
                                 *****************
                                 * O   R   C   A *
                                 *****************

           --- An Ab Initio, DFT and Semiempirical electronic structure package ---

                  #######################################################
                  #                        -***-                        #
                  #          Department of theory and spectroscopy      #
                  #               Directorship: Frank Neese             #
                  #        Max Planck Institute fuer Kohlenforschung    #
                  #                Kaiser Wilhelm Platz 1               #
                  #                 D-45470 Muelheim/Ruhr               #
                  #                      Germany                        #
                  #                                                     #
                  #                  All rights reserved                #
                  #                        -***-                        #
                  #######################################################


                         Program Version 4.2.0 -  RELEASE  -


 With contributions from (in alphabetic order):
   Daniel Aravena         : Magnetic Suceptibility
   Michael Atanasov       : Ab Initio Ligand Field Theory (pilot matlab implementation)
   Alexander A. Auer      : GIAO ZORA, VPT2
   Ute Becker             : Parallelization
   Giovanni Bistoni       : ED, misc. LED, open-shell LED, HFLED
   Martin Brehm           : Molecular dynamics
   Dmytro Bykov           : SCF Hessian
   Vijay G. Chilkuri      : MRCI spin determinant printing, contributions to CSF-ICE
   Dipayan Datta          : RHF DLPNO-CCSD density
   Achintya Kumar Dutta   : EOM-CC, STEOM-CC
   Dmitry Ganyushin       : Spin-Orbit,Spin-Spin,Magnetic field MRCI
   Miquel Garcia          : C-PCM Hessian, Gaussian charge scheme
   Yang Guo               : DLPNO-NEVPT2, CIM, IAO-localization
   Andreas Hansen         : Spin unrestricted coupled pair/coupled cluster methods
   Benjamin Helmich-Paris : CASSCF linear response (MC-RPA)
   Lee Huntington         : MR-EOM, pCC
   Robert Izsak           : Overlap fitted RIJCOSX, COSX-SCS-MP3, EOM
   Christian Kollmar      : KDIIS, OOCD, Brueckner-CCSD(T), CCSD density
   Simone Kossmann        : Meta GGA functionals, TD-DFT gradient, OOMP2, MP2 Hessian
   Martin Krupicka        : AUTO-CI
   Lucas Lang             : DCDCAS
   Dagmar Lenk            : GEPOL surface, SMD
   Dimitrios Liakos       : Extrapolation schemes; Compound Job, initial MDCI parallelization
   Dimitrios Manganas     : Further ROCIS development; embedding schemes
   Dimitrios Pantazis     : SARC Basis sets
   Taras Petrenko         : DFT Hessian,TD-DFT gradient, ASA, ECA, R-Raman, ABS, FL, XAS/XES, NRVS
   Peter Pinski           : DLPNO-MP2, DLPNO-MP2 Gradient
   Christoph Reimann      : Effective Core Potentials
   Marius Retegan         : Local ZFS, SOC
   Christoph Riplinger    : Optimizer, TS searches, QM/MM, DLPNO-CCSD(T), (RO)-DLPNO pert. Triples
   Tobias Risthaus        : Range-separated hybrids, TD-DFT gradient, RPA, STAB
   Michael Roemelt        : Original ROCIS implementation
   Masaaki Saitow         : Open-shell DLPNO-CCSD energy and density
   Barbara Sandhoefer     : DKH picture change effects
   Avijit Sen             : IP-ROCIS
   Kantharuban Sivalingam : CASSCF convergence, NEVPT2, FIC-MRCI
   Bernardo de Souza      : ESD, SOC TD-DFT
   Georgi Stoychev        : AutoAux, RI-MP2 NMR
   Willem Van den Heuvel  : Paramagnetic NMR
   Boris Wezisla          : Elementary symmetry handling
   Frank Wennmohs         : Technical directorship


 We gratefully acknowledge several colleagues who have allowed us to
 interface, adapt or use parts of their codes:
   Stefan Grimme, W. Hujo, H. Kruse,             : VdW corrections, initial TS optimization,
                  C. Bannwarth                     DFT functionals, gCP, sTDA/sTD-DF
   Ed Valeev, F. Pavosevic, A. Kumar             : LibInt (2-el integral package), F12 methods
   Garnet Chan, S. Sharma, J. Yang, R. Olivares  : DMRG
   Ulf Ekstrom                                   : XCFun DFT Library
   Mihaly Kallay                                 : mrcc  (arbitrary order and MRCC methods)
   Andreas Klamt, Michael Diedenhofen            : otool_cosmo (COSMO solvation model)
   Jiri Pittner, Ondrej Demel                    : Mk-CCSD
   Frank Weinhold                                : gennbo (NPA and NBO analysis)
   Christopher J. Cramer and Donald G. Truhlar   : smd solvation model
   Lars Goerigk                                  : TD-DFT with DH, B97 family of functionals
   V. Asgeirsson, H. Jonsson                     : NEB implementation
   FAccTs GmbH                                   : IRC, NEB, NEB-TS, Multilevel, MM, QM/MM, CI optimization
   S Lehtola, MJT Oliveira, MAL Marques          : LibXC Library


 Your calculation uses the libint2 library for the computation of 2-el integrals
 For citations please refer to: http://libint.valeyev.net

 Your ORCA version has been built with support for libXC version: 4.2.3
 For citations please refer to: https://tddft.org/programs/libxc/

 This ORCA versions uses:
   CBLAS   interface :  Fast vector & matrix operations
   LAPACKE interface :  Fast linear algebra routines
   SCALAPACK package :  Parallel linear algebra routines


----- Orbital basis set information -----
Your calculation utilizes the basis: def2-TZVP
   F. Weigend and R. Ahlrichs, Phys. Chem. Chem. Phys. 7, 3297 (2005).

================================================================================
                                        WARNINGS
                       Please study these warnings very carefully!
================================================================================


WARNING: The frozen-core approximation for MP2-gradient calculations is turned on by default.

INFO   : the flag for use of LIBINT has been found!

================================================================================
                                       INPUT FILE
================================================================================
NAME = 12meoh.boyd.etal.mol4,6,10-orca.engrad-mp2.def2tzvp.frozencore.inp
|  1> # 12meoh.boyd.etal.mol4,6,10
|  2> ! MP2 def2-TZVP EnGrad TightSCF
|  3> 
|  4> %pal
|  5>     nprocs 6
|  6> end
|  7> 
|  8> %maxcore 8000
|  9> 
| 10> %scf
| 11>     ConvForced true
| 12> end
| 13> 
| 14> *xyz 0 1
| 15> O  -1.358578914   1.232360421   1.189721000
| 16> H  -1.058250183   1.216459361   0.238591307
| 17> C  -0.389763452   1.957872567   1.943072362
| 18> H  -0.747220771   2.012806578   2.975200343
| 19> H  -0.260410585   2.982763209   1.565366540
| 20> H   0.585220638   1.453754179   1.934070793
| 21> O   2.622209273  -1.703002590  -1.445859723
| 22> H   1.828551432  -1.986513781  -0.909754968
| 23> C   2.781117675  -2.615822239  -2.525472890
| 24> H   3.691063626  -2.339003544  -3.065143454
| 25> H   1.934727323  -2.559520367  -3.223226661
| 26> H   2.879948338  -3.653846211  -2.177750170
| 27> O  -5.201143618   0.064582726  -0.172223772
| 28> H  -4.686891530   0.869258890   0.107806143
| 29> C  -6.513192168   0.171391798   0.359883449
| 30> H  -7.049381312  -0.749234190   0.111361174
| 31> H  -7.057741163   1.017801101  -0.081819420
| 32> H  -6.514770575   0.292264928   1.453058834
| 33> *
| 34> 
| 35>                          ****END OF INPUT****
================================================================================

                     *******************************
                     * Energy+Gradient Calculation *
                     *******************************

---------------------------------
CARTESIAN COORDINATES (ANGSTROEM)
---------------------------------
  O     -1.358579    1.232360    1.189721
  H     -1.058250    1.216459    0.238591
  C     -0.389763    1.957873    1.943072
  H     -0.747221    2.012807    2.975200
  H     -0.260411    2.982763    1.565367
  H      0.585221    1.453754    1.934071
  O      2.622209   -1.703003   -1.445860
  H      1.828551   -1.986514   -0.909755
  C      2.781118   -2.615822   -2.525473
  H      3.691064   -2.339004   -3.065143
  H      1.934727   -2.559520   -3.223227
  H      2.879948   -3.653846   -2.177750
  O     -5.201144    0.064583   -0.172224
  H     -4.686892    0.869259    0.107806
  C     -6.513192    0.171392    0.359883
  H     -7.049381   -0.749234    0.111361
  H     -7.057741    1.017801   -0.081819
  H     -6.514771    0.292265    1.453059

----------------------------
CARTESIAN COORDINATES (A.U.)
----------------------------
  NO LB      ZA    FRAG     MASS         X           Y           Z
   0 O     8.0000    0    15.999   -2.567342    2.328824    2.248247
   1 H     1.0000    0     1.008   -1.999803    2.298775    0.450872
   2 C     6.0000    0    12.011   -0.736546    3.699843    3.671875
   3 H     1.0000    0     1.008   -1.412043    3.803653    5.622314
   4 H     1.0000    0     1.008   -0.492105    5.636606    2.958114
   5 H     1.0000    0     1.008    1.105907    2.747197    3.654864
   6 O     8.0000    0    15.999    4.955257   -3.218209   -2.732279
   7 H     1.0000    0     1.008    3.455461   -3.753967   -1.719188
   8 C     6.0000    0    12.011    5.255551   -4.943188   -4.772452
   9 H     1.0000    0     1.008    6.975099   -4.420076   -5.792282
  10 H     1.0000    0     1.008    3.656105   -4.836793   -6.091016
  11 H     1.0000    0     1.008    5.442314   -6.904769   -4.115351
  12 O     8.0000    0    15.999   -9.828737    0.122044   -0.325456
  13 H     1.0000    0     1.008   -8.856941    1.642661    0.203724
  14 C     6.0000    0    12.011  -12.308149    0.323884    0.680081
  15 H     1.0000    0     1.008  -13.321400   -1.415847    0.210442
  16 H     1.0000    0     1.008  -13.337198    1.923365   -0.154616
  17 H     1.0000    0     1.008  -12.311132    0.552301    2.745883

--------------------------------
INTERNAL COORDINATES (ANGSTROEM)
--------------------------------
 O      0   0   0     0.000000000000     0.00000000     0.00000000
 H      1   0   0     0.997545930411     0.00000000     0.00000000
 C      1   2   0     1.425661091575   107.89987774     0.00000000
 H      3   1   2     1.093655178580   107.58652868   177.37408112
 H      3   1   2     1.099906668874   111.87891396    58.41528197
 H      3   1   2     1.097638534818   111.44220277   296.47910227
 O      2   1   3     4.990632741754   123.58487459    75.75109452
 H      7   2   1     0.998839162396    53.05155902    51.55585789
 C      7   2   1     1.422693284649   135.54809776   129.68230020
 H      9   7   2     1.093560488172   107.75927006   128.41453975
 H      9   7   2     1.098365537375   111.29143095     9.76176320
 H      9   7   2     1.099168938972   112.08005485   247.94796559
 O      1   2   3     4.240743073017    87.83349019   163.97681419
 H     13   1   2     0.995176211641    38.62448161   261.13994052
 C     13   1   2     1.419865370399   134.12535099   202.42830315
 H     15  13   1     1.093990095520   107.72610853   218.26853069
 H     15  13   1     1.099110431505   111.41668057    99.62265302
 H     15  13   1     1.099838727857   112.46269835   337.80215059

---------------------------
INTERNAL COORDINATES (A.U.)
---------------------------
 O      0   0   0     0.000000000000     0.00000000     0.00000000
 H      1   0   0     1.885088614484     0.00000000     0.00000000
 C      1   2   0     2.694109022864   107.89987774     0.00000000
 H      3   1   2     2.066708772461   107.58652868   177.37408112
 H      3   1   2     2.078522377045   111.87891396    58.41528197
 H      3   1   2     2.074236224845   111.44220277   296.47910227
 O      2   1   3     9.430929116895   123.58487459    75.75109452
 H      7   2   1     1.887532468764    53.05155902    51.55585789
 C      7   2   1     2.688500680556   135.54809776   129.68230020
 H      9   7   2     2.066529833522   107.75927006   128.41453975
 H      9   7   2     2.075610060577   111.29143095     9.76176320
 H      9   7   2     2.077128269569   112.08005485   247.94796559
 O      1   2   3     8.013843012326    87.83349019   163.97681419
 H     13   1   2     1.880610494996    38.62448161   261.13994052
 C     13   1   2     2.683156697093   134.12535099   202.42830315
 H     15  13   1     2.067341673755   107.72610853   218.26853069
 H     15  13   1     2.077017706481   111.41668057    99.62265302
 H     15  13   1     2.078393987130   112.46269835   337.80215059

---------------------
BASIS SET INFORMATION
---------------------
There are 3 groups of distinct atoms

 Group   1 Type O   : 11s6p2d1f contracted to 5s3p2d1f pattern {62111/411/11/1}
 Group   2 Type H   : 5s1p contracted to 3s1p pattern {311/1}
 Group   3 Type C   : 11s6p2d1f contracted to 5s3p2d1f pattern {62111/411/11/1}

Atom   0O    basis set group =>   1
Atom   1H    basis set group =>   2
Atom   2C    basis set group =>   3
Atom   3H    basis set group =>   2
Atom   4H    basis set group =>   2
Atom   5H    basis set group =>   2
Atom   6O    basis set group =>   1
Atom   7H    basis set group =>   2
Atom   8C    basis set group =>   3
Atom   9H    basis set group =>   2
Atom  10H    basis set group =>   2
Atom  11H    basis set group =>   2
Atom  12O    basis set group =>   1
Atom  13H    basis set group =>   2
Atom  14C    basis set group =>   3
Atom  15H    basis set group =>   2
Atom  16H    basis set group =>   2
Atom  17H    basis set group =>   2


           ************************************************************
           *        Program running with 6 parallel MPI-processes     *
           *              working on a common directory               *
           ************************************************************
------------------------------------------------------------------------------
                           ORCA GTO INTEGRAL CALCULATION
------------------------------------------------------------------------------

                         BASIS SET STATISTICS AND STARTUP INFO

 # of primitive gaussian shells          ...  192
 # of primitive gaussian functions       ...  372
 # of contracted shells                  ...  114
 # of contracted basis functions         ...  258
 Highest angular momentum                ...    3
 Maximum contraction depth               ...    6
 Integral package used                   ... LIBINT
 Integral threshhold            Thresh   ...  2.500e-11
 Primitive cut-off              TCut     ...  2.500e-12


------------------------------ INTEGRAL EVALUATION ----------------------------


 * One electron integrals 
 Pre-screening matrix                    ... done
 Shell pair data                         ... done (   0.001 sec)



           ************************************************************
           *        Program running with 6 parallel MPI-processes     *
           *              working on a common directory               *
           ************************************************************
-------------------------------------------------------------------------------
                                 ORCA SCF
-------------------------------------------------------------------------------

------------
SCF SETTINGS
------------
Hamiltonian:
 Ab initio Hamiltonian  Method          .... Hartree-Fock(GTOs)


General Settings:
 Integral files         IntName         .... 12meoh.boyd.etal.mol4,6,10-orca.engrad-mp2.def2tzvp.frozencore
 Hartree-Fock type      HFTyp           .... RHF
 Total Charge           Charge          ....    0
 Multiplicity           Mult            ....    1
 Number of Electrons    NEL             ....   54
 Basis Dimension        Dim             ....  258
 Nuclear Repulsion      ENuc            ....    198.4090530350 Eh

Convergence Acceleration:
 DIIS                   CNVDIIS         .... on
   Start iteration      DIISMaxIt       ....    12
   Startup error        DIISStart       ....  0.200000
   # of expansion vecs  DIISMaxEq       ....     5
   Bias factor          DIISBfac        ....   1.050
   Max. coefficient     DIISMaxC        ....  10.000
 Newton-Raphson         CNVNR           .... off
 SOSCF                  CNVSOSCF        .... on
   Start iteration      SOSCFMaxIt      ....   150
   Startup grad/error   SOSCFStart      ....  0.003300
 Level Shifting         CNVShift        .... on
   Level shift para.    LevelShift      ....    0.2500
   Turn off err/grad.   ShiftErr        ....    0.0010
 Zerner damping         CNVZerner       .... off
 Static damping         CNVDamp         .... on
   Fraction old density DampFac         ....    0.7000
   Max. Damping (<1)    DampMax         ....    0.9800
   Min. Damping (>=0)   DampMin         ....    0.0000
   Turn off err/grad.   DampErr         ....    0.1000
 Fernandez-Rico         CNVRico         .... off

SCF Procedure:
 Maximum # iterations   MaxIter         ....   125
 SCF integral mode      SCFMode         .... Direct
   Integral package                     .... LIBINT
 Reset frequency        DirectResetFreq ....    20
 Integral Threshold     Thresh          ....  2.500e-11 Eh
 Primitive CutOff       TCut            ....  2.500e-12 Eh

Convergence Tolerance:
 Convergence Check Mode ConvCheckMode   .... Total+1el-Energy
 Convergence forced     ConvForced      .... 1
 Energy Change          TolE            ....  1.000e-08 Eh
 1-El. energy change                    ....  1.000e-05 Eh
 Orbital Gradient       TolG            ....  1.000e-05
 Orbital Rotation angle TolX            ....  1.000e-05
 DIIS Error             TolErr          ....  5.000e-07


Diagonalization of the overlap matrix:
Smallest eigenvalue                        ... 1.655e-03
Time for diagonalization                   ...    0.010 sec
Threshold for overlap eigenvalues          ... 1.000e-08
Number of eigenvalues below threshold      ... 0
Time for construction of square roots      ...    0.005 sec
Total time needed                          ...    0.015 sec

-------------------
DFT GRID GENERATION
-------------------

General Integration Accuracy     IntAcc      ...  4.340
Radial Grid Type                 RadialGrid  ... Gauss-Chebyshev
Angular Grid (max. acc.)         AngularGrid ... Lebedev-110
Angular grid pruning method      GridPruning ... 3 (G Style)
Weight generation scheme         WeightScheme... Becke
Basis function cutoff            BFCut       ...    1.0000e-11
Integration weight cutoff        WCut        ...    1.0000e-14
Grids for H and He will be reduced by one unit

# of grid points (after initial pruning)     ...  19644 (   0.0 sec)
# of grid points (after weights+screening)   ...  18867 (   0.0 sec)
nearest neighbour list constructed           ...    0.0 sec
Grid point re-assignment to atoms done       ...    0.0 sec
Grid point division into batches done        ...    0.0 sec
Reduced shell lists constructed in    0.0 sec

Total number of grid points                  ...    18867
Total number of batches                      ...      303
Average number of points per batch           ...       62
Average number of grid points per atom       ...     1048
Average number of shells per batch           ...    54.92 (48.18%)
Average number of basis functions per batch  ...   113.69 (44.07%)
Average number of large shells per batch     ...    39.13 (71.25%)
Average number of large basis fcns per batch ...    86.13 (75.76%)
Maximum spatial batch extension              ...  19.71, 15.09, 14.79 au
Average spatial batch extension              ...   0.55,  0.56,  0.51 au

Time for grid setup =    0.054 sec

------------------------------
INITIAL GUESS: MODEL POTENTIAL
------------------------------
Loading Hartree-Fock densities                     ... done
Calculating cut-offs                               ... done
Setting up the integral package                    ... done
Initializing the effective Hamiltonian             ... done
Starting the Coulomb interaction                   ... done (   0.0 sec)
Reading the grid                                   ... done
Mapping shells                                     ... done
Starting the XC term evaluation                    ... done (   0.0 sec)
Transforming the Hamiltonian                       ... done (   0.0 sec)
Diagonalizing the Hamiltonian                      ... done (   0.0 sec)
Back transforming the eigenvectors                 ... done (   0.0 sec)
Now organizing SCF variables                       ... done
                      ------------------
                      INITIAL GUESS DONE (   0.2 sec)
                      ------------------
--------------
SCF ITERATIONS
--------------
ITER       Energy         Delta-E        Max-DP      RMS-DP      [F,P]     Damp
               ***  Starting incremental Fock matrix formation  ***
  0   -344.9099841932   0.000000000000 0.03667836  0.00076806  0.2887910 0.7000
  1   -345.0408410541  -0.130856860879 0.02510321  0.00056817  0.2178716 0.7000
                               ***Turning on DIIS***
  2   -345.1162802017  -0.075439147605 0.01467546  0.00034958  0.1628334 0.7000
  3   -345.9886969676  -0.872416765911 0.00763187  0.00019402  0.1199629 0.7000
  4   -345.8366774717   0.152019495923 0.01714303  0.00046288  0.0845631 0.0000
  5   -345.2997684264   0.536909045237 0.00227939  0.00006161  0.0064105 0.0000
                      *** Initiating the SOSCF procedure ***
                           *** Shutting down DIIS ***
                      *** Re-Reading the Fockian *** 
                      *** Removing any level shift *** 
ITER      Energy       Delta-E        Grad      Rot      Max-DP    RMS-DP
  6   -345.27469367   0.0250747553  0.000724  0.000724  0.000805  0.000031
               *** Restarting incremental Fock matrix formation ***
  7   -345.26947020   0.0052234687  0.000300  0.000309  0.000499  0.000017
  8   -345.26947715  -0.0000069526  0.000173  0.000196  0.000346  0.000012
  9   -345.26947886  -0.0000017099  0.000031  0.000029  0.000053  0.000002
 10   -345.26947892  -0.0000000516  0.000006  0.000010  0.000016  0.000001
                 **** Energy Check signals convergence ****
              ***Rediagonalizing the Fockian in SOSCF/NRSCF***

               *****************************************************
               *                     SUCCESS                       *
               *           SCF CONVERGED AFTER  11 CYCLES          *
               *****************************************************


----------------
TOTAL SCF ENERGY
----------------

Total Energy       :         -345.26947892 Eh           -9395.26017 eV

Components:
Nuclear Repulsion  :          198.40905304 Eh            5398.98481 eV
Electronic Energy  :         -543.67853196 Eh          -14794.24498 eV
One Electron Energy:         -865.81385844 Eh          -23559.99286 eV
Two Electron Energy:          322.13532649 Eh            8765.74788 eV

Virial components:
Potential Energy   :         -689.86794583 Eh          -18772.26117 eV
Kinetic Energy     :          344.59846691 Eh            9377.00100 eV
Virial Ratio       :            2.00194723


---------------
SCF CONVERGENCE
---------------

  Last Energy change         ...   -4.5142e-09  Tolerance :   1.0000e-08
  Last MAX-Density change    ...    4.1852e-06  Tolerance :   1.0000e-07
  Last RMS-Density change    ...    1.3264e-07  Tolerance :   5.0000e-09
  Last Orbital Gradient      ...    1.8698e-06  Tolerance :   1.0000e-05
  Last Orbital Rotation      ...    4.2169e-06  Tolerance :   1.0000e-05

             **** THE GBW FILE WAS UPDATED (12meoh.boyd.etal.mol4,6,10-orca.engrad-mp2.def2tzvp.frozencore.gbw) ****
             **** DENSITY FILE WAS UPDATED (12meoh.boyd.etal.mol4,6,10-orca.engrad-mp2.def2tzvp.frozencore.scfp) ****
             **** ENERGY FILE WAS UPDATED (12meoh.boyd.etal.mol4,6,10-orca.engrad-mp2.def2tzvp.frozencore.en.tmp) ****
             **** THE GBW FILE WAS UPDATED (12meoh.boyd.etal.mol4,6,10-orca.engrad-mp2.def2tzvp.frozencore.gbw) ****
             **** DENSITY FILE WAS UPDATED (12meoh.boyd.etal.mol4,6,10-orca.engrad-mp2.def2tzvp.frozencore.scfp) ****
----------------
ORBITAL ENERGIES
----------------

  NO   OCC          E(Eh)            E(eV) 
   0   2.0000     -20.561144      -559.4972 
   1   2.0000     -20.558986      -559.4385 
   2   2.0000     -20.550055      -559.1954 
   3   2.0000     -11.273568      -306.7694 
   4   2.0000     -11.272183      -306.7317 
   5   2.0000     -11.265823      -306.5586 
   6   2.0000      -1.348493       -36.6943 
   7   2.0000      -1.347090       -36.6562 
   8   2.0000      -1.340342       -36.4726 
   9   2.0000      -0.921340       -25.0709 
  10   2.0000      -0.920020       -25.0350 
  11   2.0000      -0.913269       -24.8513 
  12   2.0000      -0.683149       -18.5894 
  13   2.0000      -0.681856       -18.5542 
  14   2.0000      -0.675431       -18.3794 
  15   2.0000      -0.619074       -16.8459 
  16   2.0000      -0.617770       -16.8104 
  17   2.0000      -0.610617       -16.6157 
  18   2.0000      -0.592821       -16.1315 
  19   2.0000      -0.592178       -16.1140 
  20   2.0000      -0.585085       -15.9210 
  21   2.0000      -0.503002       -13.6874 
  22   2.0000      -0.500745       -13.6260 
  23   2.0000      -0.493578       -13.4309 
  24   2.0000      -0.452200       -12.3050 
  25   2.0000      -0.449978       -12.2445 
  26   2.0000      -0.441803       -12.0221 
  27   0.0000       0.114848         3.1252 
  28   0.0000       0.139079         3.7845 
  29   0.0000       0.152469         4.1489 
  30   0.0000       0.170876         4.6498 
  31   0.0000       0.176365         4.7991 
  32   0.0000       0.194570         5.2945 
  33   0.0000       0.227305         6.1853 
  34   0.0000       0.227803         6.1988 
  35   0.0000       0.230309         6.2670 
  36   0.0000       0.232631         6.3302 
  37   0.0000       0.234386         6.3780 
  38   0.0000       0.235675         6.4131 
  39   0.0000       0.252449         6.8695 
  40   0.0000       0.256927         6.9913 
  41   0.0000       0.264542         7.1986 
  42   0.0000       0.326742         8.8911 
  43   0.0000       0.332080         9.0364 
  44   0.0000       0.337951         9.1961 
  45   0.0000       0.339692         9.2435 
  46   0.0000       0.344244         9.3674 
  47   0.0000       0.350154         9.5282 
  48   0.0000       0.454673        12.3723 
  49   0.0000       0.462628        12.5888 
  50   0.0000       0.467009        12.7080 
  51   0.0000       0.518739        14.1156 
  52   0.0000       0.524553        14.2738 
  53   0.0000       0.532001        14.4765 
  54   0.0000       0.560210        15.2441 
  55   0.0000       0.574189        15.6245 
  56   0.0000       0.586491        15.9592 
  57   0.0000       0.609087        16.5741 
  58   0.0000       0.609442        16.5838 
  59   0.0000       0.613536        16.6952 
  60   0.0000       0.619435        16.8557 
  61   0.0000       0.624605        16.9964 
  62   0.0000       0.638748        17.3812 
  63   0.0000       0.657857        17.9012 
  64   0.0000       0.659260        17.9394 
  65   0.0000       0.664056        18.0699 
  66   0.0000       0.681240        18.5375 
  67   0.0000       0.682016        18.5586 
  68   0.0000       0.696008        18.9394 
  69   0.0000       0.705721        19.2036 
  70   0.0000       0.708107        19.2686 
  71   0.0000       0.726491        19.7688 
  72   0.0000       0.758520        20.6404 
  73   0.0000       0.772620        21.0241 
  74   0.0000       0.812488        22.1089 
  75   0.0000       0.881942        23.9988 
  76   0.0000       0.886738        24.1294 
  77   0.0000       0.894755        24.3475 
  78   0.0000       0.921534        25.0762 
  79   0.0000       0.923235        25.1225 
  80   0.0000       0.929323        25.2882 
  81   0.0000       0.951996        25.9051 
  82   0.0000       0.953645        25.9500 
  83   0.0000       0.959027        26.0965 
  84   0.0000       1.089171        29.6379 
  85   0.0000       1.090549        29.6754 
  86   0.0000       1.097051        29.8523 
  87   0.0000       1.113268        30.2936 
  88   0.0000       1.116313        30.3764 
  89   0.0000       1.124394        30.5963 
  90   0.0000       1.243413        33.8350 
  91   0.0000       1.245771        33.8992 
  92   0.0000       1.254841        34.1460 
  93   0.0000       1.533191        41.7202 
  94   0.0000       1.533883        41.7391 
  95   0.0000       1.543308        41.9955 
  96   0.0000       1.653908        45.0051 
  97   0.0000       1.659864        45.1672 
  98   0.0000       1.669333        45.4249 
  99   0.0000       1.703429        46.3527 
 100   0.0000       1.705027        46.3962 
 101   0.0000       1.714362        46.6502 
 102   0.0000       1.773431        48.2575 
 103   0.0000       1.775497        48.3137 
 104   0.0000       1.781380        48.4738 
 105   0.0000       1.789607        48.6977 
 106   0.0000       1.790300        48.7165 
 107   0.0000       1.791743        48.7558 
 108   0.0000       1.792584        48.7787 
 109   0.0000       1.798289        48.9339 
 110   0.0000       1.800632        48.9977 
 111   0.0000       1.832427        49.8629 
 112   0.0000       1.845342        50.2143 
 113   0.0000       1.859163        50.5904 
 114   0.0000       1.861604        50.6568 
 115   0.0000       1.867546        50.8185 
 116   0.0000       1.882781        51.2331 
 117   0.0000       1.958144        53.2838 
 118   0.0000       1.966197        53.5029 
 119   0.0000       1.971302        53.6419 
 120   0.0000       2.136065        58.1253 
 121   0.0000       2.140692        58.2512 
 122   0.0000       2.155319        58.6492 
 123   0.0000       2.205034        60.0020 
 124   0.0000       2.208534        60.0973 
 125   0.0000       2.214576        60.2617 
 126   0.0000       2.241729        61.0005 
 127   0.0000       2.243364        61.0450 
 128   0.0000       2.250666        61.2437 
 129   0.0000       2.288296        62.2677 
 130   0.0000       2.289626        62.3039 
 131   0.0000       2.295234        62.4565 
 132   0.0000       2.300651        62.6039 
 133   0.0000       2.306853        62.7726 
 134   0.0000       2.327627        63.3379 
 135   0.0000       2.440007        66.3960 
 136   0.0000       2.442424        66.4617 
 137   0.0000       2.452815        66.7445 
 138   0.0000       2.544711        69.2451 
 139   0.0000       2.553165        69.4751 
 140   0.0000       2.554966        69.5242 
 141   0.0000       2.556993        69.5793 
 142   0.0000       2.563163        69.7472 
 143   0.0000       2.580684        70.2240 
 144   0.0000       2.590325        70.4863 
 145   0.0000       2.598084        70.6975 
 146   0.0000       2.603095        70.8338 
 147   0.0000       2.629406        71.5498 
 148   0.0000       2.631391        71.6038 
 149   0.0000       2.641087        71.8676 
 150   0.0000       2.695376        73.3449 
 151   0.0000       2.697596        73.4053 
 152   0.0000       2.703954        73.5783 
 153   0.0000       2.777114        75.5691 
 154   0.0000       2.779530        75.6349 
 155   0.0000       2.786292        75.8189 
 156   0.0000       2.838812        77.2480 
 157   0.0000       2.839280        77.2607 
 158   0.0000       2.844591        77.4053 
 159   0.0000       2.896270        78.8115 
 160   0.0000       2.897259        78.8384 
 161   0.0000       2.909327        79.1668 
 162   0.0000       3.041186        82.7549 
 163   0.0000       3.045078        82.8608 
 164   0.0000       3.057166        83.1897 
 165   0.0000       3.105682        84.5099 
 166   0.0000       3.109790        84.6217 
 167   0.0000       3.120944        84.9252 
 168   0.0000       3.134517        85.2946 
 169   0.0000       3.137895        85.3865 
 170   0.0000       3.147533        85.6487 
 171   0.0000       3.244344        88.2831 
 172   0.0000       3.246452        88.3404 
 173   0.0000       3.252856        88.5147 
 174   0.0000       3.355399        91.3051 
 175   0.0000       3.357457        91.3610 
 176   0.0000       3.364548        91.5540 
 177   0.0000       3.417768        93.0022 
 178   0.0000       3.419117        93.0389 
 179   0.0000       3.426277        93.2337 
 180   0.0000       3.536811        96.2415 
 181   0.0000       3.536961        96.2456 
 182   0.0000       3.543901        96.4344 
 183   0.0000       3.638255        99.0020 
 184   0.0000       3.638679        99.0135 
 185   0.0000       3.640969        99.0758 
 186   0.0000       3.666102        99.7597 
 187   0.0000       3.671136        99.8967 
 188   0.0000       3.679404       100.1217 
 189   0.0000       3.718979       101.1986 
 190   0.0000       3.722874       101.3045 
 191   0.0000       3.733333       101.5892 
 192   0.0000       3.859062       105.0104 
 193   0.0000       3.861558       105.0783 
 194   0.0000       3.870322       105.3168 
 195   0.0000       3.887399       105.7815 
 196   0.0000       3.889501       105.8387 
 197   0.0000       3.897395       106.0535 
 198   0.0000       3.899656       106.1150 
 199   0.0000       3.902415       106.1901 
 200   0.0000       3.910345       106.4059 
 201   0.0000       4.242921       115.4557 
 202   0.0000       4.249304       115.6294 
 203   0.0000       4.262875       115.9987 
 204   0.0000       4.493506       122.2745 
 205   0.0000       4.495585       122.3311 
 206   0.0000       4.502972       122.5321 
 207   0.0000       4.532734       123.3420 
 208   0.0000       4.534238       123.3829 
 209   0.0000       4.541165       123.5714 
 210   0.0000       4.707428       128.0956 
 211   0.0000       4.710362       128.1755 
 212   0.0000       4.713639       128.2646 
 213   0.0000       4.867342       132.4471 
 214   0.0000       4.868363       132.4749 
 215   0.0000       4.881008       132.8190 
 216   0.0000       5.689080       154.8077 
 217   0.0000       5.690985       154.8596 
 218   0.0000       5.701367       155.1421 
 219   0.0000       5.764882       156.8704 
 220   0.0000       5.765215       156.8795 
 221   0.0000       5.776992       157.1999 
 222   0.0000       5.872139       159.7890 
 223   0.0000       5.875425       159.8784 
 224   0.0000       5.887213       160.1992 
 225   0.0000       6.158287       167.5755 
 226   0.0000       6.164957       167.7570 
 227   0.0000       6.165798       167.7799 
 228   0.0000       6.172126       167.9521 
 229   0.0000       6.178199       168.1173 
 230   0.0000       6.184907       168.2999 
 231   0.0000       6.315560       171.8551 
 232   0.0000       6.318277       171.9290 
 233   0.0000       6.334079       172.3591 
 234   0.0000       6.648776       180.9224 
 235   0.0000       6.649082       180.9307 
 236   0.0000       6.668989       181.4724 
 237   0.0000       6.944102       188.9586 
 238   0.0000       6.946161       189.0147 
 239   0.0000       6.955840       189.2780 
 240   0.0000       7.147440       194.4917 
 241   0.0000       7.149185       194.5392 
 242   0.0000       7.159080       194.8085 
 243   0.0000       7.213314       196.2843 
 244   0.0000       7.217130       196.3881 
 245   0.0000       7.227061       196.6583 
 246   0.0000       7.452796       202.8009 
 247   0.0000       7.456991       202.9150 
 248   0.0000       7.475286       203.4129 
 249   0.0000       7.586843       206.4485 
 250   0.0000       7.594333       206.6523 
 251   0.0000       7.602398       206.8718 
 252   0.0000      23.353157       635.4717 
 253   0.0000      23.362061       635.7140 
 254   0.0000      23.374358       636.0486 
 255   0.0000      45.138777      1228.2886 
 256   0.0000      45.151026      1228.6219 
 257   0.0000      45.166664      1229.0474 

                    ********************************
                    * MULLIKEN POPULATION ANALYSIS *
                    ********************************

-----------------------
MULLIKEN ATOMIC CHARGES
-----------------------
   0 O :   -0.551409
   1 H :    0.333235
   2 C :   -0.077363
   3 H :    0.108052
   4 H :    0.092081
   5 H :    0.097033
   6 O :   -0.550156
   7 H :    0.331583
   8 C :   -0.074103
   9 H :    0.108287
  10 H :    0.091775
  11 H :    0.092634
  12 O :   -0.549098
  13 H :    0.336792
  14 C :   -0.073641
  15 H :    0.105022
  16 H :    0.087312
  17 H :    0.091962
Sum of atomic charges:   -0.0000000

--------------------------------
MULLIKEN REDUCED ORBITAL CHARGES
--------------------------------
  0 O s       :     3.807517  s :     3.807517
      pz      :     1.298462  p :     4.709818
      px      :     1.622906
      py      :     1.788450
      dz2     :     0.009619  d :     0.032361
      dxz     :     0.009397
      dyz     :     0.002635
      dx2y2   :     0.003905
      dxy     :     0.006806
      f0      :     0.000441  f :     0.001713
      f+1     :     0.000351
      f-1     :     0.000147
      f+2     :     0.000115
      f-2     :     0.000301
      f+3     :     0.000146
      f-3     :     0.000211
  1 H s       :     0.624333  s :     0.624333
      pz      :     0.018840  p :     0.042432
      px      :     0.010880
      py      :     0.012712
  2 C s       :     3.195759  s :     3.195759
      pz      :     0.957502  p :     2.758849
      px      :     0.868392
      py      :     0.932955
      dz2     :     0.033533  d :     0.113886
      dxz     :     0.016050
      dyz     :     0.014298
      dx2y2   :     0.030874
      dxy     :     0.019131
      f0      :     0.000954  f :     0.008869
      f+1     :     0.001704
      f-1     :     0.000603
      f+2     :     0.001502
      f-2     :     0.001152
      f+3     :     0.001259
      f-3     :     0.001694
  3 H s       :     0.870796  s :     0.870796
      pz      :     0.013907  p :     0.021152
      px      :     0.003952
      py      :     0.003293
  4 H s       :     0.887883  s :     0.887883
      pz      :     0.003952  p :     0.020036
      px      :     0.002936
      py      :     0.013148
  5 H s       :     0.882712  s :     0.882712
      pz      :     0.002955  p :     0.020255
      px      :     0.012029
      py      :     0.005272
  6 O s       :     3.805169  s :     3.805169
      pz      :     1.471486  p :     4.710833
      px      :     1.580612
      py      :     1.658735
      dz2     :     0.003463  d :     0.032427
      dxz     :     0.006485
      dyz     :     0.010715
      dx2y2   :     0.006863
      dxy     :     0.004901
      f0      :     0.000218  f :     0.001726
      f+1     :     0.000180
      f-1     :     0.000373
      f+2     :     0.000464
      f-2     :     0.000282
      f+3     :     0.000045
      f-3     :     0.000164
  7 H s       :     0.626072  s :     0.626072
      pz      :     0.014104  p :     0.042345
      px      :     0.017140
      py      :     0.011101
  8 C s       :     3.194146  s :     3.194146
      pz      :     0.823846  p :     2.756424
      px      :     1.051752
      py      :     0.880827
      dz2     :     0.024353  d :     0.114614
      dxz     :     0.035202
      dyz     :     0.018440
      dx2y2   :     0.027539
      dxy     :     0.009080
      f0      :     0.001606  f :     0.008919
      f+1     :     0.000568
      f-1     :     0.001699
      f+2     :     0.002455
      f-2     :     0.001457
      f+3     :     0.000451
      f-3     :     0.000683
  9 H s       :     0.870555  s :     0.870555
      pz      :     0.005911  p :     0.021158
      px      :     0.011659
      py      :     0.003588
 10 H s       :     0.888051  s :     0.888051
      pz      :     0.007594  p :     0.020174
      px      :     0.009721
      py      :     0.002859
 11 H s       :     0.887319  s :     0.887319
      pz      :     0.003362  p :     0.020047
      px      :     0.003512
      py      :     0.013174
 12 O s       :     3.804252  s :     3.804252
      pz      :     1.804670  p :     4.710456
      px      :     1.332366
      py      :     1.573420
      dz2     :     0.003734  d :     0.032648
      dxz     :     0.007676
      dyz     :     0.003967
      dx2y2   :     0.008653
      dxy     :     0.008619
      f0      :     0.000287  f :     0.001742
      f+1     :     0.000242
      f-1     :     0.000107
      f+2     :     0.000291
      f-2     :     0.000205
      f+3     :     0.000475
      f-3     :     0.000134
 13 H s       :     0.620563  s :     0.620563
      pz      :     0.013170  p :     0.042645
      px      :     0.012853
      py      :     0.016623
 14 C s       :     3.192820  s :     3.192820
      pz      :     0.979503  p :     2.755762
      px      :     0.723013
      py      :     1.053246
      dz2     :     0.029111  d :     0.116069
      dxz     :     0.024036
      dyz     :     0.006007
      dx2y2   :     0.016318
      dxy     :     0.040597
      f0      :     0.001623  f :     0.008989
      f+1     :     0.001825
      f-1     :     0.000172
      f+2     :     0.001269
      f-2     :     0.000817
      f+3     :     0.001789
      f-3     :     0.001495
 15 H s       :     0.873886  s :     0.873886
      pz      :     0.003930  p :     0.021092
      px      :     0.005483
      py      :     0.011678
 16 H s       :     0.892602  s :     0.892602
      pz      :     0.005001  p :     0.020087
      px      :     0.005308
      py      :     0.009778
 17 H s       :     0.888030  s :     0.888030
      pz      :     0.014441  p :     0.020008
      px      :     0.002071
      py      :     0.003495


                     *******************************
                     * LOEWDIN POPULATION ANALYSIS *
                     *******************************

----------------------
LOEWDIN ATOMIC CHARGES
----------------------
   0 O :   -0.136153
   1 H :    0.192211
   2 C :   -0.334001
   3 H :    0.101058
   4 H :    0.088464
   5 H :    0.089731
   6 O :   -0.133456
   7 H :    0.192379
   8 C :   -0.336619
   9 H :    0.101206
  10 H :    0.088070
  11 H :    0.088430
  12 O :   -0.128255
  13 H :    0.192566
  14 C :   -0.340415
  15 H :    0.100131
  16 H :    0.086556
  17 H :    0.088098

-------------------------------
LOEWDIN REDUCED ORBITAL CHARGES
-------------------------------
  0 O s       :     3.397807  s :     3.397807
      pz      :     1.303578  p :     4.666220
      px      :     1.633569
      py      :     1.729074
      dz2     :     0.023869  d :     0.068059
      dxz     :     0.015782
      dyz     :     0.007259
      dx2y2   :     0.009419
      dxy     :     0.011730
      f0      :     0.000630  f :     0.004067
      f+1     :     0.001134
      f-1     :     0.000323
      f+2     :     0.000477
      f-2     :     0.000622
      f+3     :     0.000486
      f-3     :     0.000394
  1 H s       :     0.664826  s :     0.664826
      pz      :     0.070120  p :     0.142962
      px      :     0.037142
      py      :     0.035701
  2 C s       :     2.862992  s :     2.862992
      pz      :     1.010489  p :     2.992639
      px      :     0.968532
      py      :     1.013618
      dz2     :     0.105915  d :     0.421344
      dxz     :     0.064832
      dyz     :     0.048457
      dx2y2   :     0.116073
      dxy     :     0.086068
      f0      :     0.005125  f :     0.057026
      f+1     :     0.009619
      f-1     :     0.004340
      f+2     :     0.011815
      f-2     :     0.009981
      f+3     :     0.007112
      f-3     :     0.009034
  3 H s       :     0.840163  s :     0.840163
      pz      :     0.035061  p :     0.058779
      px      :     0.012746
      py      :     0.010973
  4 H s       :     0.853147  s :     0.853147
      pz      :     0.013411  p :     0.058389
      px      :     0.010255
      py      :     0.034722
  5 H s       :     0.851403  s :     0.851403
      pz      :     0.010969  p :     0.058866
      px      :     0.031728
      py      :     0.016170
  6 O s       :     3.396215  s :     3.396215
      pz      :     1.470852  p :     4.664700
      px      :     1.540549
      py      :     1.653299
      dz2     :     0.011385  d :     0.068449
      dxz     :     0.018303
      dyz     :     0.018841
      dx2y2   :     0.012488
      dxy     :     0.007432
      f0      :     0.000714  f :     0.004092
      f+1     :     0.000294
      f-1     :     0.000841
      f+2     :     0.000710
      f-2     :     0.000896
      f+3     :     0.000193
      f-3     :     0.000444
  7 H s       :     0.665228  s :     0.665228
      pz      :     0.040952  p :     0.142393
      px      :     0.064352
      py      :     0.037089
  8 C s       :     2.862253  s :     2.862253
      pz      :     0.924650  p :     2.992731
      px      :     1.088436
      py      :     0.979645
      dz2     :     0.086068  d :     0.424076
      dxz     :     0.115512
      dyz     :     0.093354
      dx2y2   :     0.099655
      dxy     :     0.029487
      f0      :     0.013434  f :     0.057559
      f+1     :     0.003458
      f-1     :     0.012621
      f+2     :     0.009848
      f-2     :     0.009664
      f+3     :     0.004266
      f-3     :     0.004269
  9 H s       :     0.840021  s :     0.840021
      pz      :     0.015917  p :     0.058774
      px      :     0.031024
      py      :     0.011833
 10 H s       :     0.853377  s :     0.853377
      pz      :     0.021103  p :     0.058553
      px      :     0.027327
      py      :     0.010124
 11 H s       :     0.853090  s :     0.853090
      pz      :     0.011368  p :     0.058480
      px      :     0.012547
      py      :     0.034564
 12 O s       :     3.392629  s :     3.392629
      pz      :     1.742041  p :     4.662744
      px      :     1.376263
      py      :     1.544439
      dz2     :     0.008976  d :     0.068745
      dxz     :     0.016706
      dyz     :     0.004137
      dx2y2   :     0.015734
      dxy     :     0.023192
      f0      :     0.000347  f :     0.004138
      f+1     :     0.000731
      f-1     :     0.000112
      f+2     :     0.000715
      f-2     :     0.000602
      f+3     :     0.000990
      f-3     :     0.000642
 13 H s       :     0.663406  s :     0.663406
      pz      :     0.041269  p :     0.144027
      px      :     0.036169
      py      :     0.066589
 14 C s       :     2.861518  s :     2.861518
      pz      :     1.048784  p :     2.993325
      px      :     0.852338
      py      :     1.092203
      dz2     :     0.107700  d :     0.427569
      dxz     :     0.099061
      dyz     :     0.018627
      dx2y2   :     0.070490
      dxy     :     0.131691
      f0      :     0.006201  f :     0.058002
      f+1     :     0.011306
      f-1     :     0.000859
      f+2     :     0.012212
      f-2     :     0.007598
      f+3     :     0.010023
      f-3     :     0.009804
 15 H s       :     0.841333  s :     0.841333
      pz      :     0.012883  p :     0.058536
      px      :     0.014347
      py      :     0.031307
 16 H s       :     0.855167  s :     0.855167
      pz      :     0.015626  p :     0.058277
      px      :     0.015318
      py      :     0.027333
 17 H s       :     0.853554  s :     0.853554
      pz      :     0.038034  p :     0.058348
      px      :     0.007860
      py      :     0.012453


                      *****************************
                      * MAYER POPULATION ANALYSIS *
                      *****************************

  NA   - Mulliken gross atomic population
  ZA   - Total nuclear charge
  QA   - Mulliken gross atomic charge
  VA   - Mayer's total valence
  BVA  - Mayer's bonded valence
  FA   - Mayer's free valence

  ATOM       NA         ZA         QA         VA         BVA        FA
  0 O      8.5514     8.0000    -0.5514     1.7898     1.7898    -0.0000
  1 H      0.6668     1.0000     0.3332     0.8954     0.8954    -0.0000
  2 C      6.0774     6.0000    -0.0774     3.8942     3.8942    -0.0000
  3 H      0.8919     1.0000     0.1081     0.9621     0.9621    -0.0000
  4 H      0.9079     1.0000     0.0921     0.9617     0.9617    -0.0000
  5 H      0.9030     1.0000     0.0970     0.9616     0.9616    -0.0000
  6 O      8.5502     8.0000    -0.5502     1.7896     1.7896    -0.0000
  7 H      0.6684     1.0000     0.3316     0.8967     0.8967    -0.0000
  8 C      6.0741     6.0000    -0.0741     3.8980     3.8980    -0.0000
  9 H      0.8917     1.0000     0.1083     0.9618     0.9618     0.0000
 10 H      0.9082     1.0000     0.0918     0.9612     0.9612    -0.0000
 11 H      0.9074     1.0000     0.0926     0.9616     0.9616    -0.0000
 12 O      8.5491     8.0000    -0.5491     1.7926     1.7926    -0.0000
 13 H      0.6632     1.0000     0.3368     0.8956     0.8956    -0.0000
 14 C      6.0736     6.0000    -0.0736     3.9070     3.9070    -0.0000
 15 H      0.8950     1.0000     0.1050     0.9618     0.9618    -0.0000
 16 H      0.9127     1.0000     0.0873     0.9608     0.9608    -0.0000
 17 H      0.9080     1.0000     0.0920     0.9605     0.9605    -0.0000

  Mayer bond orders larger than 0.100000
B(  0-O ,  1-H ) :   0.8846 B(  0-O ,  2-C ) :   0.9285 B(  2-C ,  3-H ) :   0.9831 
B(  2-C ,  4-H ) :   0.9875 B(  2-C ,  5-H ) :   0.9868 B(  6-O ,  7-H ) :   0.8856 
B(  6-O ,  8-C ) :   0.9313 B(  8-C ,  9-H ) :   0.9828 B(  8-C , 10-H ) :   0.9880 
B(  8-C , 11-H ) :   0.9878 B( 12-O , 13-H ) :   0.8808 B( 12-O , 14-C ) :   0.9395 
B( 14-C , 15-H ) :   0.9835 B( 14-C , 16-H ) :   0.9886 B( 14-C , 17-H ) :   0.9873 


-------
TIMINGS
-------

Total SCF time: 0 days 0 hours 0 min 9 sec 

Total time                  ....       9.211 sec
Sum of individual times     ....       8.980 sec  ( 97.5%)

Fock matrix formation       ....       8.627 sec  ( 93.7%)
Diagonalization             ....       0.073 sec  (  0.8%)
Density matrix formation    ....       0.009 sec  (  0.1%)
Population analysis         ....       0.026 sec  (  0.3%)
Initial guess               ....       0.132 sec  (  1.4%)
Orbital Transformation      ....       0.000 sec  (  0.0%)
Orbital Orthonormalization  ....       0.000 sec  (  0.0%)
DIIS solution               ....       0.026 sec  (  0.3%)
SOSCF solution              ....       0.032 sec  (  0.4%)


           ************************************************************
           *        Program running with 6 parallel MPI-processes     *
           *              working on a common directory               *
           ************************************************************

------------------------------------------------------------------------------
                                ORCA  MP2 
------------------------------------------------------------------------------

Freezing NCore=12 chemical core electrons
MP2 will be done in the AO integral direct mode
The Q1-step will be done using symmetric double matrices
Dimension of the basis                    ...  258
Memory devoted for MP2                    ... 8000 MB   
Memory needed for all in one shot         ...  264 MB
Number of MOs that can be treated together...  120      
MP2 density construction                  ... relaxed
The MP2 gradient is requested => amplitudes will be stored on disk
Total number of MOs              ...   21
Number of MOs treated per batch  ...    4 
Number of batches necessary      ...    1 
OPERATORS   0/  0 PASS   0
-----------------------------------------------
 MP2 CORRELATION ENERGY   :     -1.252156499 Eh
-----------------------------------------------


---------------------
MP2 DENSITY FORMATION
---------------------

Completing the external part of the density      ... done
Storing the unrelaxed density                    ... done

Calculating G(D)                                 ... done
Completing the Lagrangian                        ... done
Solving the Z-vector equations                   ... 

------------------------------------------------------------------------------
                           ORCA CP-SCF CALCULATION
------------------------------------------------------------------------------

Input orbitals are from        ... 12meoh.boyd.etal.mol4,6,10-orca.engrad-mp2.def2tzvp.frozencore.gbw
Input Perturbation             ... 12meoh.boyd.etal.mol4,6,10-orca.engrad-mp2.def2tzvp.frozencore.pin.tmp
Wavefunction output            ... 12meoh.boyd.etal.mol4,6,10-orca.engrad-mp2.def2tzvp.frozencore.pout.tmp
Perturbation mode              ... Real perturbation (singlet)
Solver                         ... POPLE
Max. number of iterations      ... 128
Convergence tolerance          ... 1.000e-08
Integral handling              ... Direct
Number of perturbations        ... 1
Number of operators            ... 1
Orbital ranges used for CP-SCF:
 Operator 0:  Orbitals   0... 26  to  27...257
Variables per vector in CP-SCF ... 6237
Number of vectors sought       ... 1
     CP-SCF ITERATION   0: 
     CP-SCF ITERATION   1:      0.000360780894
     CP-SCF ITERATION   2:      0.000017143807
     CP-SCF ITERATION   3:      0.000002447322
     CP-SCF ITERATION   4:      0.000000156898
     CP-SCF ITERATION   5:      0.000000004779
                                                 ... done
Finalizing the relaxed density                   ... done
Transforming P to the AO basis                   ... done
Storing the relaxed density                      ... done

------------------------------------
ENERGY WEIGHTED DENSITY FINALIZATION
------------------------------------

Gathering the parts of the W-matrix              ...                                                      done
Forming the Z-density                            ... done
Transforming Z to the AO basis                   ... done
Calculating G(Z)                                 ... done
Finalizing the W-matrix                          ...                                                      done
Transforming W to the AO basis and storing       ... done

                *********************************************
                * UNRELAXED MP2 DENSITY POPULATION ANALYSIS *
                *********************************************

------------------------------------------------------------------------------
                           ORCA POPULATION ANALYSIS
------------------------------------------------------------------------------
Input electron density              ... 12meoh.boyd.etal.mol4,6,10-orca.engrad-mp2.def2tzvp.frozencore.pmp2ur
BaseName (.gbw .S,...)              ... 12meoh.boyd.etal.mol4,6,10-orca.engrad-mp2.def2tzvp.frozencore

                    ********************************
                    * MULLIKEN POPULATION ANALYSIS *
                    ********************************

-----------------------
MULLIKEN ATOMIC CHARGES
-----------------------
   0 O :   -0.540287
   1 H :    0.330506
   2 C :   -0.093273
   3 H :    0.110828
   4 H :    0.094488
   5 H :    0.099434
   6 O :   -0.539101
   7 H :    0.328856
   8 C :   -0.090037
   9 H :    0.111064
  10 H :    0.094201
  11 H :    0.095039
  12 O :   -0.538042
  13 H :    0.334028
  14 C :   -0.089653
  15 H :    0.107816
  16 H :    0.089760
  17 H :    0.094372
Sum of atomic charges:   -0.0000000

--------------------------------
MULLIKEN REDUCED ORBITAL CHARGES
--------------------------------
  0 O s       :     3.802277  s :     3.802277
      pz      :     1.289690  p :     4.674003
      px      :     1.609462
      py      :     1.774851
      dz2     :     0.014925  d :     0.059641
      dxz     :     0.014669
      dyz     :     0.008305
      dx2y2   :     0.009523
      dxy     :     0.012219
      f0      :     0.000811  f :     0.004365
      f+1     :     0.000737
      f-1     :     0.000524
      f+2     :     0.000497
      f-2     :     0.000678
      f+3     :     0.000529
      f-3     :     0.000589
  1 H s       :     0.625355  s :     0.625355
      pz      :     0.018758  p :     0.044139
      px      :     0.011740
      py      :     0.013640
  2 C s       :     3.193835  s :     3.193835
      pz      :     0.955183  p :     2.752746
      px      :     0.867082
      py      :     0.930481
      dz2     :     0.037692  d :     0.134496
      dxz     :     0.020160
      dyz     :     0.018848
      dx2y2   :     0.034848
      dxy     :     0.022948
      f0      :     0.001436  f :     0.012196
      f+1     :     0.002152
      f-1     :     0.001146
      f+2     :     0.001976
      f-2     :     0.001565
      f+3     :     0.001810
      f-3     :     0.002110
  3 H s       :     0.864937  s :     0.864937
      pz      :     0.014770  p :     0.024235
      px      :     0.005044
      py      :     0.004421
  4 H s       :     0.882293  s :     0.882293
      pz      :     0.005082  p :     0.023219
      px      :     0.004101
      py      :     0.014036
  5 H s       :     0.877142  s :     0.877142
      pz      :     0.004108  p :     0.023424
      px      :     0.012954
      py      :     0.006362
  6 O s       :     3.799911  s :     3.799911
      pz      :     1.460398  p :     4.675106
      px      :     1.569430
      py      :     1.645278
      dz2     :     0.009113  d :     0.059704
      dxz     :     0.011950
      dyz     :     0.015979
      dx2y2   :     0.012311
      dxy     :     0.010351
      f0      :     0.000597  f :     0.004380
      f+1     :     0.000556
      f-1     :     0.000755
      f+2     :     0.000839
      f-2     :     0.000665
      f+3     :     0.000426
      f-3     :     0.000541
  7 H s       :     0.627093  s :     0.627093
      pz      :     0.014635  p :     0.044051
      px      :     0.017444
      py      :     0.011973
  8 C s       :     3.192251  s :     3.192251
      pz      :     0.823867  p :     2.750321
      px      :     1.047224
      py      :     0.879229
      dz2     :     0.028884  d :     0.135218
      dxz     :     0.038980
      dyz     :     0.021724
      dx2y2   :     0.031314
      dxy     :     0.014316
      f0      :     0.002066  f :     0.012248
      f+1     :     0.001129
      f-1     :     0.002106
      f+2     :     0.002853
      f-2     :     0.001955
      f+3     :     0.000969
      f-3     :     0.001170
  9 H s       :     0.864696  s :     0.864696
      pz      :     0.006985  p :     0.024240
      px      :     0.012560
      py      :     0.004695
 10 H s       :     0.882432  s :     0.882432
      pz      :     0.008634  p :     0.023367
      px      :     0.010706
      py      :     0.004027
 11 H s       :     0.881734  s :     0.881734
      pz      :     0.004503  p :     0.023227
      px      :     0.004658
      py      :     0.014065
 12 O s       :     3.799021  s :     3.799021
      pz      :     1.790953  p :     4.674692
      px      :     1.321801
      py      :     1.561938
      dz2     :     0.009354  d :     0.059930
      dxz     :     0.013143
      dyz     :     0.009475
      dx2y2   :     0.013979
      dxy     :     0.013979
      f0      :     0.000655  f :     0.004399
      f+1     :     0.000628
      f-1     :     0.000478
      f+2     :     0.000671
      f-2     :     0.000586
      f+3     :     0.000851
      f-3     :     0.000530
 13 H s       :     0.621647  s :     0.621647
      pz      :     0.014038  p :     0.044325
      px      :     0.013354
      py      :     0.016933
 14 C s       :     3.190956  s :     3.190956
      pz      :     0.976069  p :     2.749697
      px      :     0.725030
      py      :     1.048597
      dz2     :     0.032722  d :     0.136679
      dxz     :     0.028180
      dyz     :     0.011170
      dx2y2   :     0.020059
      dxy     :     0.044547
      f0      :     0.002034  f :     0.012321
      f+1     :     0.002365
      f-1     :     0.000714
      f+2     :     0.001686
      f-2     :     0.001298
      f+3     :     0.002162
      f-3     :     0.002063
 15 H s       :     0.867996  s :     0.867996
      pz      :     0.005039  p :     0.024188
      px      :     0.006575
      py      :     0.012574
 16 H s       :     0.886943  s :     0.886943
      pz      :     0.006111  p :     0.023297
      px      :     0.006413
      py      :     0.010774
 17 H s       :     0.882435  s :     0.882435
      pz      :     0.015299  p :     0.023193
      px      :     0.003248
      py      :     0.004646


                     *******************************
                     * LOEWDIN POPULATION ANALYSIS *
                     *******************************

----------------------
LOEWDIN ATOMIC CHARGES
----------------------
   0 O :   -0.128248
   1 H :    0.190322
   2 C :   -0.344642
   3 H :    0.102822
   4 H :    0.089933
   5 H :    0.091212
   6 O :   -0.125674
   7 H :    0.190476
   8 C :   -0.347192
   9 H :    0.102968
  10 H :    0.089528
  11 H :    0.089903
  12 O :   -0.120501
  13 H :    0.190649
  14 C :   -0.350998
  15 H :    0.101881
  16 H :    0.087997
  17 H :    0.089564

-------------------------------
LOEWDIN REDUCED ORBITAL CHARGES
-------------------------------
  0 O s       :     3.394326  s :     3.394326
      pz      :     1.294373  p :     4.630203
      px      :     1.620051
      py      :     1.715779
      dz2     :     0.029511  d :     0.096748
      dxz     :     0.021571
      dyz     :     0.012958
      dx2y2   :     0.015022
      dxy     :     0.017687
      f0      :     0.001080  f :     0.006970
      f+1     :     0.001565
      f-1     :     0.000714
      f+2     :     0.000873
      f-2     :     0.001056
      f+3     :     0.000879
      f-3     :     0.000804
  1 H s       :     0.663157  s :     0.663157
      pz      :     0.071793  p :     0.146521
      px      :     0.038160
      py      :     0.036569
  2 C s       :     2.861848  s :     2.861848
      pz      :     1.005604  p :     2.978826
      px      :     0.964496
      py      :     1.008725
      dz2     :     0.109786  d :     0.442070
      dxz     :     0.069240
      dyz     :     0.052983
      dx2y2   :     0.119829
      dxy     :     0.090233
      f0      :     0.005978  f :     0.061898
      f+1     :     0.010282
      f-1     :     0.004965
      f+2     :     0.012329
      f-2     :     0.010717
      f+3     :     0.007732
      f-3     :     0.009895
  3 H s       :     0.833391  s :     0.833391
      pz      :     0.037444  p :     0.063787
      px      :     0.014117
      py      :     0.012226
  4 H s       :     0.846451  s :     0.846451
      pz      :     0.014835  p :     0.063616
      px      :     0.011598
      py      :     0.037182
  5 H s       :     0.844719  s :     0.844719
      pz      :     0.012255  p :     0.064069
      px      :     0.034138
      py      :     0.017676
  6 O s       :     3.392748  s :     3.392748
      pz      :     1.459344  p :     4.628811
      px      :     1.529585
      py      :     1.639881
      dz2     :     0.016941  d :     0.097117
      dxz     :     0.024028
      dyz     :     0.025007
      dx2y2   :     0.018127
      dxy     :     0.013013
      f0      :     0.001119  f :     0.006999
      f+1     :     0.000688
      f-1     :     0.001288
      f+2     :     0.001169
      f-2     :     0.001310
      f+3     :     0.000582
      f-3     :     0.000842
  7 H s       :     0.663564  s :     0.663564
      pz      :     0.041996  p :     0.145960
      px      :     0.065867
      py      :     0.038097
  8 C s       :     2.861109  s :     2.861109
      pz      :     0.921549  p :     2.978896
      px      :     1.081981
      py      :     0.975365
      dz2     :     0.089946  d :     0.444752
      dxz     :     0.119217
      dyz     :     0.097343
      dx2y2   :     0.103878
      dxy     :     0.034368
      f0      :     0.013925  f :     0.062435
      f+1     :     0.004152
      f-1     :     0.013411
      f+2     :     0.010903
      f-2     :     0.010212
      f+3     :     0.004872
      f-3     :     0.004958
  9 H s       :     0.833254  s :     0.833254
      pz      :     0.017542  p :     0.063778
      px      :     0.033082
      py      :     0.013154
 10 H s       :     0.846681  s :     0.846681
      pz      :     0.023022  p :     0.063791
      px      :     0.029341
      py      :     0.011428
 11 H s       :     0.846395  s :     0.846395
      pz      :     0.012797  p :     0.063702
      px      :     0.013800
      py      :     0.037106
 12 O s       :     3.389187  s :     3.389187
      pz      :     1.728809  p :     4.626845
      px      :     1.364811
      py      :     1.533224
      dz2     :     0.014740  d :     0.097419
      dxz     :     0.022563
      dyz     :     0.009837
      dx2y2   :     0.021603
      dxy     :     0.028675
      f0      :     0.000758  f :     0.007050
      f+1     :     0.001135
      f-1     :     0.000495
      f+2     :     0.001145
      f-2     :     0.001007
      f+3     :     0.001455
      f-3     :     0.001054
 13 H s       :     0.661827  s :     0.661827
      pz      :     0.042236  p :     0.147524
      px      :     0.037144
      py      :     0.068144
 14 C s       :     2.860389  s :     2.860389
      pz      :     1.043168  p :     2.979469
      px      :     0.850656
      py      :     1.085645
      dz2     :     0.111656  d :     0.448252
      dxz     :     0.102953
      dyz     :     0.023843
      dx2y2   :     0.074728
      dxy     :     0.135072
      f0      :     0.007152  f :     0.062888
      f+1     :     0.011856
      f-1     :     0.001519
      f+2     :     0.012831
      f-2     :     0.008200
      f+3     :     0.010944
      f-3     :     0.010386
 15 H s       :     0.834553  s :     0.834553
      pz      :     0.014170  p :     0.063567
      px      :     0.016020
      py      :     0.033376
 16 H s       :     0.848456  s :     0.848456
      pz      :     0.017072  p :     0.063547
      px      :     0.017088
      py      :     0.029386
 17 H s       :     0.846857  s :     0.846857
      pz      :     0.040624  p :     0.063579
      px      :     0.009237
      py      :     0.013718


                      *****************************
                      * MAYER POPULATION ANALYSIS *
                      *****************************

  NA   - Mulliken gross atomic population
  ZA   - Total nuclear charge
  QA   - Mulliken gross atomic charge
  VA   - Mayer's total valence
  BVA  - Mayer's bonded valence
  FA   - Mayer's free valence

  ATOM       NA         ZA         QA         VA         BVA        FA
  0 O      8.5403     8.0000    -0.5403     2.0899     1.6835     0.4064
  1 H      0.6695     1.0000     0.3305     0.9018     0.8488     0.0530
  2 C      6.0933     6.0000    -0.0933     3.9992     3.7207     0.2785
  3 H      0.8892     1.0000     0.1108     0.9710     0.9241     0.0469
  4 H      0.9055     1.0000     0.0945     0.9716     0.9224     0.0492
  5 H      0.9006     1.0000     0.0994     0.9713     0.9225     0.0488
  6 O      8.5391     8.0000    -0.5391     2.0892     1.6837     0.4055
  7 H      0.6711     1.0000     0.3289     0.9032     0.8501     0.0531
  8 C      6.0900     6.0000    -0.0900     4.0028     3.7248     0.2780
  9 H      0.8889     1.0000     0.1111     0.9708     0.9239     0.0469
 10 H      0.9058     1.0000     0.0942     0.9711     0.9220     0.0491
 11 H      0.9050     1.0000     0.0950     0.9715     0.9225     0.0491
 12 O      8.5380     8.0000    -0.5380     2.0915     1.6872     0.4044
 13 H      0.6660     1.0000     0.3340     0.9021     0.8497     0.0524
 14 C      6.0897     6.0000    -0.0897     4.0116     3.7332     0.2784
 15 H      0.8922     1.0000     0.1078     0.9709     0.9237     0.0471
 16 H      0.9102     1.0000     0.0898     0.9709     0.9215     0.0494
 17 H      0.9056     1.0000     0.0944     0.9704     0.9212     0.0492

  Mayer bond orders larger than 0.100000
B(  0-O ,  1-H ) :   0.8391 B(  0-O ,  2-C ) :   0.8695 B(  2-C ,  3-H ) :   0.9457 
B(  2-C ,  4-H ) :   0.9493 B(  2-C ,  5-H ) :   0.9488 B(  6-O ,  7-H ) :   0.8400 
B(  6-O ,  8-C ) :   0.8727 B(  8-C ,  9-H ) :   0.9454 B(  8-C , 10-H ) :   0.9497 
B(  8-C , 11-H ) :   0.9496 B( 12-O , 13-H ) :   0.8360 B( 12-O , 14-C ) :   0.8805 
B( 14-C , 15-H ) :   0.9460 B( 14-C , 16-H ) :   0.9502 B( 14-C , 17-H ) :   0.9491 



                *******************************************
                * RELAXED MP2 DENSITY POPULATION ANALYSIS *
                *******************************************

------------------------------------------------------------------------------
                           ORCA POPULATION ANALYSIS
------------------------------------------------------------------------------
Input electron density              ... 12meoh.boyd.etal.mol4,6,10-orca.engrad-mp2.def2tzvp.frozencore.pmp2re
BaseName (.gbw .S,...)              ... 12meoh.boyd.etal.mol4,6,10-orca.engrad-mp2.def2tzvp.frozencore

                    ********************************
                    * MULLIKEN POPULATION ANALYSIS *
                    ********************************

-----------------------
MULLIKEN ATOMIC CHARGES
-----------------------
   0 O :   -0.502489
   1 H :    0.325248
   2 C :   -0.175019
   3 H :    0.129052
   4 H :    0.110664
   5 H :    0.115152
   6 O :   -0.501807
   7 H :    0.323476
   8 C :   -0.171934
   9 H :    0.129121
  10 H :    0.110238
  11 H :    0.110929
  12 O :   -0.500327
  13 H :    0.327064
  14 C :   -0.171830
  15 H :    0.126089
  16 H :    0.106100
  17 H :    0.110271
Sum of atomic charges:   -0.0000000

--------------------------------
MULLIKEN REDUCED ORBITAL CHARGES
--------------------------------
  0 O s       :     3.804599  s :     3.804599
      pz      :     1.279418  p :     4.636059
      px      :     1.593626
      py      :     1.763014
      dz2     :     0.014240  d :     0.057520
      dxz     :     0.013545
      dyz     :     0.008143
      dx2y2   :     0.009798
      dxy     :     0.011794
      f0      :     0.000787  f :     0.004311
      f+1     :     0.000726
      f-1     :     0.000528
      f+2     :     0.000498
      f-2     :     0.000657
      f+3     :     0.000535
      f-3     :     0.000581
  1 H s       :     0.630034  s :     0.630034
      pz      :     0.017599  p :     0.044718
      px      :     0.012459
      py      :     0.014660
  2 C s       :     3.215831  s :     3.215831
      pz      :     0.977849  p :     2.822852
      px      :     0.889595
      py      :     0.955408
      dz2     :     0.035213  d :     0.124706
      dxz     :     0.018524
      dyz     :     0.017872
      dx2y2   :     0.032100
      dxy     :     0.020997
      f0      :     0.001370  f :     0.011630
      f+1     :     0.002019
      f-1     :     0.001118
      f+2     :     0.001855
      f-2     :     0.001493
      f+3     :     0.001787
      f-3     :     0.001989
  3 H s       :     0.847865  s :     0.847865
      pz      :     0.013362  p :     0.023083
      px      :     0.005075
      py      :     0.004646
  4 H s       :     0.867225  s :     0.867225
      pz      :     0.005131  p :     0.022110
      px      :     0.004334
      py      :     0.012645
  5 H s       :     0.862542  s :     0.862542
      pz      :     0.004329  p :     0.022305
      px      :     0.011730
      py      :     0.006246
  6 O s       :     3.801397  s :     3.801397
      pz      :     1.452144  p :     4.638486
      px      :     1.554970
      py      :     1.631372
      dz2     :     0.009168  d :     0.057598
      dxz     :     0.011680
      dyz     :     0.014659
      dx2y2   :     0.011905
      dxy     :     0.010186
      f0      :     0.000597  f :     0.004326
      f+1     :     0.000558
      f-1     :     0.000734
      f+2     :     0.000815
      f-2     :     0.000664
      f+3     :     0.000426
      f-3     :     0.000532
  7 H s       :     0.631920  s :     0.631920
      pz      :     0.014723  p :     0.044604
      px      :     0.017170
      py      :     0.012712
  8 C s       :     3.214308  s :     3.214308
      pz      :     0.843811  p :     2.820346
      px      :     1.073954
      py      :     0.902580
      dz2     :     0.029368  d :     0.125594
      dxz     :     0.034804
      dyz     :     0.019655
      dx2y2   :     0.026865
      dxy     :     0.014902
      f0      :     0.001921  f :     0.011686
      f+1     :     0.001105
      f-1     :     0.002022
      f+2     :     0.002721
      f-2     :     0.001869
      f+3     :     0.000917
      f-3     :     0.001130
  9 H s       :     0.847796  s :     0.847796
      pz      :     0.006741  p :     0.023083
      px      :     0.011544
      py      :     0.004798
 10 H s       :     0.867497  s :     0.867497
      pz      :     0.008083  p :     0.022265
      px      :     0.009891
      py      :     0.004291
 11 H s       :     0.866958  s :     0.866958
      pz      :     0.004611  p :     0.022112
      px      :     0.004867
      py      :     0.012635
 12 O s       :     3.800201  s :     3.800201
      pz      :     1.776889  p :     4.637989
      px      :     1.315634
      py      :     1.545466
      dz2     :     0.009423  d :     0.057794
      dxz     :     0.012539
      dyz     :     0.009324
      dx2y2   :     0.012845
      dxy     :     0.013663
      f0      :     0.000643  f :     0.004343
      f+1     :     0.000635
      f-1     :     0.000477
      f+2     :     0.000652
      f-2     :     0.000581
      f+3     :     0.000821
      f-3     :     0.000535
 13 H s       :     0.628056  s :     0.628056
      pz      :     0.014933  p :     0.044880
      px      :     0.013291
      py      :     0.016657
 14 C s       :     3.212996  s :     3.212996
      pz      :     1.002763  p :     2.819883
      px      :     0.741049
      py      :     1.076072
      dz2     :     0.027372  d :     0.127186
      dxz     :     0.028819
      dyz     :     0.010420
      dx2y2   :     0.017927
      dxy     :     0.042647
      f0      :     0.001892  f :     0.011765
      f+1     :     0.002301
      f-1     :     0.000697
      f+2     :     0.001623
      f-2     :     0.001226
      f+3     :     0.001985
      f-3     :     0.002042
 15 H s       :     0.850871  s :     0.850871
      pz      :     0.005181  p :     0.023040
      px      :     0.006324
      py      :     0.011534
 16 H s       :     0.871691  s :     0.871691
      pz      :     0.006072  p :     0.022209
      px      :     0.006174
      py      :     0.009963
 17 H s       :     0.867650  s :     0.867650
      pz      :     0.013718  p :     0.022080
      px      :     0.003499
      py      :     0.004863


                     *******************************
                     * LOEWDIN POPULATION ANALYSIS *
                     *******************************

----------------------
LOEWDIN ATOMIC CHARGES
----------------------
   0 O :   -0.115135
   1 H :    0.192964
   2 C :   -0.379368
   3 H :    0.110160
   4 H :    0.096134
   5 H :    0.097129
   6 O :   -0.112754
   7 H :    0.193077
   8 C :   -0.382046
   9 H :    0.110216
  10 H :    0.095510
  11 H :    0.096012
  12 O :   -0.107602
  13 H :    0.192547
  14 C :   -0.385787
  15 H :    0.109193
  16 H :    0.094081
  17 H :    0.095671

-------------------------------
LOEWDIN REDUCED ORBITAL CHARGES
-------------------------------
  0 O s       :     3.397302  s :     3.397302
      pz      :     1.297896  p :     4.614499
      px      :     1.610014
      py      :     1.706589
      dz2     :     0.029170  d :     0.096252
      dxz     :     0.021072
      dyz     :     0.012984
      dx2y2   :     0.015416
      dxy     :     0.017610
      f0      :     0.001099  f :     0.007082
      f+1     :     0.001585
      f-1     :     0.000721
      f+2     :     0.000890
      f-2     :     0.001078
      f+3     :     0.000889
      f-3     :     0.000820
  1 H s       :     0.659942  s :     0.659942
      pz      :     0.070689  p :     0.147095
      px      :     0.038944
      py      :     0.037462
  2 C s       :     2.867828  s :     2.867828
      pz      :     1.018863  p :     3.018804
      px      :     0.976904
      py      :     1.023037
      dz2     :     0.107082  d :     0.432370
      dxz     :     0.066960
      dyz     :     0.050592
      dx2y2   :     0.119620
      dxy     :     0.088115
      f0      :     0.005837  f :     0.060367
      f+1     :     0.010017
      f-1     :     0.004824
      f+2     :     0.012042
      f-2     :     0.010594
      f+3     :     0.007321
      f-3     :     0.009732
  3 H s       :     0.825687  s :     0.825687
      pz      :     0.036992  p :     0.064153
      px      :     0.014449
      py      :     0.012712
  4 H s       :     0.839505  s :     0.839505
      pz      :     0.015235  p :     0.064361
      px      :     0.012141
      py      :     0.036984
  5 H s       :     0.838091  s :     0.838091
      pz      :     0.012796  p :     0.064780
      px      :     0.034062
      py      :     0.017922
  6 O s       :     3.395701  s :     3.395701
      pz      :     1.456807  p :     4.613329
      px      :     1.526369
      py      :     1.630153
      dz2     :     0.017279  d :     0.096612
      dxz     :     0.023930
      dyz     :     0.024321
      dx2y2   :     0.017898
      dxy     :     0.013184
      f0      :     0.001142  f :     0.007112
      f+1     :     0.000694
      f-1     :     0.001315
      f+2     :     0.001195
      f-2     :     0.001331
      f+3     :     0.000591
      f-3     :     0.000843
  7 H s       :     0.660339  s :     0.660339
      pz      :     0.041814  p :     0.146584
      px      :     0.065834
      py      :     0.038937
  8 C s       :     2.867040  s :     2.867040
      pz      :     0.933279  p :     3.018880
      px      :     1.097245
      py      :     0.988355
      dz2     :     0.090616  d :     0.435231
      dxz     :     0.115938
      dyz     :     0.093756
      dx2y2   :     0.100775
      dxy     :     0.034147
      f0      :     0.013655  f :     0.060895
      f+1     :     0.003983
      f-1     :     0.013119
      f+2     :     0.010620
      f-2     :     0.009912
      f+3     :     0.004760
      f-3     :     0.004846
  9 H s       :     0.825653  s :     0.825653
      pz      :     0.017774  p :     0.064131
      px      :     0.032817
      py      :     0.013540
 10 H s       :     0.839953  s :     0.839953
      pz      :     0.023324  p :     0.064537
      px      :     0.029264
      py      :     0.011949
 11 H s       :     0.839553  s :     0.839553
      pz      :     0.013243  p :     0.064435
      px      :     0.014263
      py      :     0.036929
 12 O s       :     3.392072  s :     3.392072
      pz      :     1.719237  p :     4.611471
      px      :     1.363458
      py      :     1.528776
      dz2     :     0.014839  d :     0.096897
      dxz     :     0.022467
      dyz     :     0.009929
      dx2y2   :     0.021029
      dxy     :     0.028634
      f0      :     0.000771  f :     0.007162
      f+1     :     0.001158
      f-1     :     0.000496
      f+2     :     0.001162
      f-2     :     0.001020
      f+3     :     0.001487
      f-3     :     0.001068
 13 H s       :     0.659388  s :     0.659388
      pz      :     0.043146  p :     0.148066
      px      :     0.036729
      py      :     0.068191
 14 C s       :     2.866292  s :     2.866292
      pz      :     1.058287  p :     3.019274
      px      :     0.859916
      py      :     1.101071
      dz2     :     0.108355  d :     0.438882
      dxz     :     0.103085
      dyz     :     0.022226
      dx2y2   :     0.071442
      dxy     :     0.133774
      f0      :     0.006999  f :     0.061340
      f+1     :     0.011332
      f-1     :     0.001481
      f+2     :     0.012680
      f-2     :     0.008102
      f+3     :     0.010716
      f-3     :     0.010030
 15 H s       :     0.826867  s :     0.826867
      pz      :     0.014592  p :     0.063940
      px      :     0.016259
      py      :     0.033088
 16 H s       :     0.841590  s :     0.841590
      pz      :     0.017363  p :     0.064329
      px      :     0.017601
      py      :     0.029365
 17 H s       :     0.840012  s :     0.840012
      pz      :     0.040271  p :     0.064317
      px      :     0.009871
      py      :     0.014175


                      *****************************
                      * MAYER POPULATION ANALYSIS *
                      *****************************

  NA   - Mulliken gross atomic population
  ZA   - Total nuclear charge
  QA   - Mulliken gross atomic charge
  VA   - Mayer's total valence
  BVA  - Mayer's bonded valence
  FA   - Mayer's free valence

  ATOM       NA         ZA         QA         VA         BVA        FA
  0 O      8.5025     8.0000    -0.5025     2.1446     1.7449     0.3997
  1 H      0.6748     1.0000     0.3252     0.9041     0.8510     0.0531
  2 C      6.1750     6.0000    -0.1750     4.0198     3.7436     0.2763
  3 H      0.8709     1.0000     0.1291     0.9627     0.9164     0.0464
  4 H      0.8893     1.0000     0.1107     0.9645     0.9159     0.0486
  5 H      0.8848     1.0000     0.1152     0.9638     0.9156     0.0482
  6 O      8.5018     8.0000    -0.5018     2.1435     1.7446     0.3989
  7 H      0.6765     1.0000     0.3235     0.9057     0.8525     0.0532
  8 C      6.1719     6.0000    -0.1719     4.0245     3.7488     0.2758
  9 H      0.8709     1.0000     0.1291     0.9623     0.9160     0.0463
 10 H      0.8898     1.0000     0.1102     0.9635     0.9150     0.0485
 11 H      0.8891     1.0000     0.1109     0.9646     0.9161     0.0485
 12 O      8.5003     8.0000    -0.5003     2.1464     1.7485     0.3979
 13 H      0.6729     1.0000     0.3271     0.9070     0.8546     0.0524
 14 C      6.1718     6.0000    -0.1718     4.0331     3.7569     0.2762
 15 H      0.8739     1.0000     0.1261     0.9624     0.9158     0.0466
 16 H      0.8939     1.0000     0.1061     0.9633     0.9145     0.0488
 17 H      0.8897     1.0000     0.1103     0.9633     0.9148     0.0486

  Mayer bond orders larger than 0.100000
B(  0-O ,  1-H ) :   0.8392 B(  0-O ,  2-C ) :   0.9201 B(  2-C ,  3-H ) :   0.9376 
B(  2-C ,  4-H ) :   0.9388 B(  2-C ,  5-H ) :   0.9381 B(  6-O ,  7-H ) :   0.8403 
B(  6-O ,  8-C ) :   0.9244 B(  8-C ,  9-H ) :   0.9373 B(  8-C , 10-H ) :   0.9391 
B(  8-C , 11-H ) :   0.9393 B( 12-O , 13-H ) :   0.8364 B( 12-O , 14-C ) :   0.9325 
B( 14-C , 15-H ) :   0.9379 B( 14-C , 16-H ) :   0.9396 B( 14-C , 17-H ) :   0.9384 



----------------------------------
MP2 DERIVATIVE INTEGRAL GENERATION
----------------------------------


Input Wavefunction Amplitudes       ... 12meoh.boyd.etal.mol4,6,10-orca.engrad-mp2.def2tzvp.frozencore.mp2tsaa.tmp
Input Correlated Electron Density   ... 12meoh.boyd.etal.mol4,6,10-orca.engrad-mp2.def2tzvp.frozencore.pmp2re
Input Energy Weighted Density       ... 12meoh.boyd.etal.mol4,6,10-orca.engrad-mp2.def2tzvp.frozencore.wmp2.tmp
Input SCF Electron Density          ... 12meoh.boyd.etal.mol4,6,10-orca.engrad-mp2.def2tzvp.frozencore.scfp

One-Electron Terms    ...
                        ... One-Electron Terms done
Prescreening matrices              ... done

Batch handling in the gradient evaluation:
Memory available                      ... 8000.0 MB
Memory per occupied orbital in Q2     ...   10.7 MB
Memory per occupied orbital in Q3     ...    0.1 MB
Total memory requirement per |i>      ...   10.8 MB
Max. Number of orbitals possible      ...    743
Number of orbitals treated per batch  ...     21
Number of batches to be done          ...      1
Batch   0: i=    6 ...    26

---------------------------------------
MP2 TOTAL ENERGY:     -346.521635420 Eh
---------------------------------------

The final MP2 gradient
  0:  -0.00733859  -0.00080900   0.02581918
  1:   0.00751396  -0.00090203  -0.02964870
  2:  -0.00252682  -0.00180170   0.00261669
  3:  -0.00000347   0.00143940   0.00440569
  4:   0.00056641   0.00371982  -0.00183474
  5:   0.00235115  -0.00172222  -0.00086356
  6:   0.02123201   0.00739540  -0.01638421
  7:  -0.02493769  -0.00728993   0.01863362
  8:   0.00435475   0.00291816   0.00099855
  9:   0.00293014  -0.00030476  -0.00363970
 10:  -0.00277023   0.00083081  -0.00107713
 11:  -0.00055260  -0.00361094   0.00131040
 12:  -0.01407265  -0.01975353  -0.00724685
 13:   0.01520279   0.02306081   0.00650421
 14:   0.00275813  -0.00448685  -0.00161435
 15:  -0.00363000  -0.00282074  -0.00032836
 16:  -0.00053972   0.00274269  -0.00147111
 17:  -0.00053757   0.00139461   0.00382038

-----------------------------------
NORM OF THE MP2 GRADIENT:  0.071538
-----------------------------------

-------------------------   --------------------
FINAL SINGLE POINT ENERGY      -346.521635420280
-------------------------   --------------------


                            ***************************************
                            *     ORCA property calculations      *
                            ***************************************

                                    ---------------------
                                    Active property flags
                                    ---------------------
   (+) Dipole Moment


------------------------------------------------------------------------------
                       ORCA ELECTRIC PROPERTIES CALCULATION
------------------------------------------------------------------------------

Dipole Moment Calculation                       ... on
Quadrupole Moment Calculation                   ... off
Polarizability Calculation                      ... off
GBWName                                         ... 12meoh.boyd.etal.mol4,6,10-orca.engrad-mp2.def2tzvp.frozencore.gbw
Electron density file                           ... 12meoh.boyd.etal.mol4,6,10-orca.engrad-mp2.def2tzvp.frozencore.scfp
The origin for moment calculation is the CENTER OF MASS  = (-2.537769, -0.271197 -0.208518)

-------------
DIPOLE MOMENT
-------------
                                X             Y             Z
Electronic contribution:      0.31326       0.02204      -0.21601
Nuclear contribution   :     -0.31763       0.26223       0.23487
                        -----------------------------------------
Total Dipole Moment    :     -0.00437       0.28427       0.01885
                        -----------------------------------------
Magnitude (a.u.)       :      0.28492
Magnitude (Debye)      :      0.72422



--------------------
Rotational spectrum 
--------------------
 
Rotational constants in cm-1:     0.053081     0.012422     0.010151 
Rotational constants in MHz :  1591.323389   372.390274   304.320171 

 Dipole components along the rotational axes: 
x,y,z [a.u.] :     0.088390     0.199338    -0.183394 
x,y,z [Debye]:     0.224669     0.506676    -0.466150 

 

                         *** MP2 UNRELAXED DENSITY ***

------------------------------------------------------------------------------
                       ORCA ELECTRIC PROPERTIES CALCULATION
------------------------------------------------------------------------------

Dipole Moment Calculation                       ... on
Quadrupole Moment Calculation                   ... off
Polarizability Calculation                      ... off
GBWName                                         ... 12meoh.boyd.etal.mol4,6,10-orca.engrad-mp2.def2tzvp.frozencore.gbw
Electron density file                           ... 12meoh.boyd.etal.mol4,6,10-orca.engrad-mp2.def2tzvp.frozencore.pmp2ur
The origin for moment calculation is the CENTER OF MASS  = (-2.537769, -0.271197 -0.208518)

-------------
DIPOLE MOMENT
-------------
                                X             Y             Z
Electronic contribution:      0.31568       0.01739      -0.21655
Nuclear contribution   :     -0.31763       0.26223       0.23487
                        -----------------------------------------
Total Dipole Moment    :     -0.00195       0.27962       0.01831
                        -----------------------------------------
Magnitude (a.u.)       :      0.28023
Magnitude (Debye)      :      0.71228



--------------------
Rotational spectrum 
--------------------
 
Rotational constants in cm-1:     0.053081     0.012422     0.010151 
Rotational constants in MHz :  1591.323389   372.390274   304.320171 

 Dipole components along the rotational axes: 
x,y,z [a.u.] :     0.084721     0.196822    -0.180585 
x,y,z [Debye]:     0.215343     0.500282    -0.459010 

 

                           *** MP2 RELAXED DENSITY ***

------------------------------------------------------------------------------
                       ORCA ELECTRIC PROPERTIES CALCULATION
------------------------------------------------------------------------------

Dipole Moment Calculation                       ... on
Quadrupole Moment Calculation                   ... off
Polarizability Calculation                      ... off
GBWName                                         ... 12meoh.boyd.etal.mol4,6,10-orca.engrad-mp2.def2tzvp.frozencore.gbw
Electron density file                           ... 12meoh.boyd.etal.mol4,6,10-orca.engrad-mp2.def2tzvp.frozencore.pmp2re
The origin for moment calculation is the CENTER OF MASS  = (-2.537769, -0.271197 -0.208518)

-------------
DIPOLE MOMENT
-------------
                                X             Y             Z
Electronic contribution:      0.32049       0.01312      -0.21589
Nuclear contribution   :     -0.31763       0.26223       0.23487
                        -----------------------------------------
Total Dipole Moment    :      0.00286       0.27535       0.01898
                        -----------------------------------------
Magnitude (a.u.)       :      0.27601
Magnitude (Debye)      :      0.70157



--------------------
Rotational spectrum 
--------------------
 
Rotational constants in cm-1:     0.053081     0.012422     0.010151 
Rotational constants in MHz :  1591.323389   372.390274   304.320171 

 Dipole components along the rotational axes: 
x,y,z [a.u.] :     0.079246     0.196236    -0.177186 
x,y,z [Debye]:     0.201427     0.498793    -0.450371 

 

Timings for individual modules:

Sum of individual times         ...       44.326 sec (=   0.739 min)
GTO integral calculation        ...        1.183 sec (=   0.020 min)   2.7 %
SCF iterations                  ...        9.978 sec (=   0.166 min)  22.5 %
MP2 module                      ...       33.165 sec (=   0.553 min)  74.8 %
                             ****ORCA TERMINATED NORMALLY****
TOTAL RUN TIME: 0 days 0 hours 0 minutes 45 seconds 269 msec
