61
Energy:  -2131.61580033
O   -2.99813606  -0.51499418   1.53348869
H   -2.90070512  -0.39914653   2.47864391
H   -3.91824709  -0.75032978   1.41413751
O    1.51416263   2.27643671   3.47264275
H    1.60400616   3.01296209   2.86791937
H    2.27464069   2.34565674   4.04980266
O    0.95401378   0.13376483   1.85811902
H    1.25879765   0.82337831   2.44784089
H    0.62582717  -0.55182380   2.43992108
O   -1.13761550   2.47826517   4.29116315
H   -1.22728162   2.95931387   5.11383197
H   -0.19304865   2.37601111   4.17467529
O    3.52068904   1.11732011  -1.94010061
H    4.43657800   1.32031928  -2.13028630
H    3.10404081   1.05996099  -2.79995294
O   -0.27115890  -1.63638584   3.45282001
H   -0.06476106  -2.34667631   4.06037184
H   -1.01549667  -1.18692914   3.85304720
O   -0.23213011   0.36822174  -2.08034173
H   -0.88873055  -0.14628957  -2.54979441
H    0.37184478   0.66501653  -2.76104655
O   -1.65593760  -1.28354249  -3.74397003
H   -2.21799118  -0.98705631  -4.45980771
H   -0.84079752  -1.54584326  -4.17172790
O   -0.29009590  -3.99054119  -0.74576008
H   -0.35596807  -4.82396960  -0.27961655
H   -1.05231475  -3.97844510  -1.32464518
O    1.28603774   4.09009349   1.39712874
H    1.61876823   4.98387287   1.31539327
H    0.34257987   4.19550482   1.51963403
O    1.98230520  -0.83876012  -0.75218378
H    2.74709780  -0.36605745  -1.08062908
H    2.00389246  -1.67850619  -1.21108721
O   -1.29354534   1.34209345   0.50142999
H   -1.39643157   2.22094922   0.86647630
H   -2.05688331   0.85954508   0.81875327
O   -1.41199540   3.72509504   1.84232707
H   -1.44977395   3.39153489   2.73873226
H   -2.11544617   4.37268251   1.79739011
O   -2.37920615  -3.58118168  -2.38193737
H   -3.11582115  -4.04150558  -2.78409667
H   -2.26560101  -2.79602701  -2.91752851
O    1.81609575  -3.11711039  -2.25244172
H    1.11233663  -3.57121440  -1.78903641
H    2.52256224  -3.76074855  -2.30598491
O   -0.76916676  -1.46241516   0.14877753
H   -0.63046683  -2.38280235  -0.07456436
H   -1.57596610  -1.45939911   0.66384799
O    1.69065463   0.76248334  -3.99827513
H    1.54575981  -0.12365078  -4.32994313
H    1.67132749   1.31685257  -4.77836043
O    0.93576643  -1.84635755  -4.56014628
H    1.15948898  -2.34288500  -5.34731879
H    1.27129018  -2.37747501  -3.83794832
O   -2.38846589  -0.00649231   4.17632711
H   -2.00847801   0.86512165   4.28646413
H   -2.96588137  -0.11382366   4.93217312
O    1.46479256   1.96861067  -0.32038256
H    2.27121372   1.98212337  -0.83587666
H    1.48429267   2.78610005   0.17717417
Ca   0.34813222   0.24534516  -0.10190323
