61
Energy:  -2131.05301502
O   -2.98426556  -0.77571604   2.03879920
H   -2.71257726  -0.61902124   2.94315757
H   -3.87057381  -1.12965837   2.11238148
O    1.41563307   2.75417704   3.01384440
H    1.27513518   3.39010439   2.31235413
H    2.21595904   3.04903541   3.44831962
O    1.07852442   0.40834550   1.64701021
H    1.31524429   1.19080024   2.14496615
H    0.95501448  -0.27024763   2.31070329
O   -1.11772509   2.49776659   4.11928045
H   -1.24696510   3.06733466   4.87764783
H   -0.19201348   2.59922581   3.89793032
O    4.09168241   1.04494043  -1.35172509
H    5.03066240   1.22975636  -1.37151113
H    3.73413170   1.53963960  -2.08905953
O    0.18845897  -1.67647124   3.16400670
H    0.62170634  -2.28446945   3.76306157
H   -0.48978973  -1.25888489   3.69488540
O   -0.51845252  -0.28353417  -2.08549083
H   -1.32766384  -0.76077075  -2.26894148
H   -0.06113421  -0.25457897  -2.92587967
O   -2.35086805  -4.54199417  -2.65533546
H   -3.01130058  -5.06908408  -2.20562782
H   -2.31691253  -4.90413482  -3.54073538
O    0.02417967  -3.98498696  -1.32586880
H   -0.78515484  -4.19248170  -1.79293992
H    0.31926866  -4.82422292  -0.97254552
O    0.56183898   4.16154107   0.79862065
H    0.67102340   5.08907716   0.58888890
H   -0.36403874   4.07410053   1.02519615
O    2.07261252  -0.65696731  -0.90548957
H    2.87475929  -0.14052566  -0.98346669
H    2.19113279  -1.37903444  -1.52258263
O   -1.51263148   0.82022680   0.46349895
H   -1.74226268   1.70352156   0.75210202
H   -2.12238478   0.24902942   0.93058171
O   -1.92560439   3.28690512   1.59320499
H   -1.79372380   3.06542029   2.51504220
H   -2.76460083   3.74731025   1.57465979
O   -2.70810992  -1.78309833  -2.50431781
H   -3.57652351  -1.53998438  -2.82523103
H   -2.67792199  -2.73580231  -2.59192866
O    1.96081026  -2.61799624  -2.80691258
H    1.30145292  -3.19189556  -2.41688781
H    2.66322266  -3.20902317  -3.07808751
O   -0.24957085  -1.81199925   0.37507374
H   -0.23830543  -2.63225262  -0.11816996
H   -0.31695918  -2.08336021   1.29052657
O    2.23521791   2.06039785  -3.19871018
H    1.96092155   1.29016605  -3.69644135
H    2.35500638   2.74278664  -3.85918585
O    1.18929070  -0.32025786  -4.22044038
H    1.01527196  -0.43222536  -5.15500585
H    1.55379438  -1.16035518  -3.94186292
O   -1.75651728  -0.18938369   4.44370468
H   -1.56490242   0.74777815   4.40844453
H   -2.10991343  -0.32919206   5.32222425
O    0.84852283   1.97648461  -0.82672873
H    1.32170407   2.16038849  -1.63821546
H    0.82311762   2.81629557  -0.36813961
Ca   0.27922882   0.09012533  -0.23050692
