61
Energy:  -2130.15717806
O   -3.53289486  -0.50369371   3.27565896
H   -2.80976105  -0.31449428   3.87358280
H   -4.28048574  -0.67263281   3.84906921
O    1.07977106   0.07992042   3.80857994
H    1.67222067  -0.28343684   4.46676442
H    0.23133071   0.12693969   4.24922720
O    0.60965384  -1.01606907   1.35185244
H    0.82349797  -0.72794300   2.23925646
H    0.32730167  -1.92472237   1.45605560
O   -1.43792696   0.37708692   4.85362702
H   -1.51065389   1.29475702   4.59128328
H   -1.53979243   0.39075147   5.80529322
O    3.95576286   1.41227443  -1.99740070
H    4.12153170   0.48787474  -2.18243519
H    4.82645938   1.80649273  -1.94533022
O   -0.51623939  -3.43741642   1.48411878
H   -1.46054224  -3.28102785   1.49227872
H   -0.42243989  -4.35353774   1.74518433
O   -0.14094180   1.08448046  -2.10928537
H   -0.86977413   0.81341723  -2.66746097
H    0.50627933   1.44265475  -2.71677844
O   -3.04892643  -2.30060123   1.23128805
H   -3.84071327  -2.82377088   1.10639224
H   -3.24681567  -1.74135893   1.98250023
O    0.06717183  -2.15309436  -3.88186425
H    0.77732150  -1.74607933  -4.37810820
H   -0.01101960  -3.03235857  -4.25201609
O    1.48252823   2.34699494   2.27394185
H    1.67224089   3.16715482   2.72954993
H    1.44207658   1.69014011   2.96902259
O    3.74031104  -1.27317167  -2.56813197
H    4.41793831  -1.94820011  -2.60541127
H    3.38869771  -1.23670775  -3.45766572
O   -0.70256846   1.49669024   0.78895035
H   -0.19745433   2.02777285   1.40461489
H   -1.61479475   1.63871724   1.04174154
O   -3.25654819   1.78052367   1.74852583
H   -4.08929344   2.12789770   1.42899731
H   -3.49710171   0.99622911   2.24172751
O   -2.07239890  -0.49401146  -3.29258994
H   -1.48058220  -1.12796067  -3.69767417
H   -2.80319697  -0.42158596  -3.90652852
O    1.19690519  -1.35850768  -1.50904849
H    2.13293109  -1.43297970  -1.69490134
H    0.77027926  -1.79299353  -2.24759044
O   -1.56601160  -0.91008264  -0.61386239
H   -2.02261226  -0.92121810  -1.45506610
H   -2.12668700  -1.42059346  -0.02969320
O    1.90582405   1.76470609  -3.81040146
H    1.92378550   2.56976403  -4.32788666
H    2.69264161   1.81094376  -3.26725134
O    2.26149298  -0.78699001  -4.86896945
H    2.56436501  -0.80225215  -5.77686121
H    2.12292952   0.14062712  -4.67776677
O   -1.67917810   2.84893518   3.77191659
H   -1.88963715   3.71473363   4.12167635
H   -2.33527694   2.69910173   3.09124332
O    2.00221749   1.09490079  -0.11775409
H    2.75984929   1.28944943  -0.66945757
H    2.12730752   1.63661785   0.66142943
Ca   0.23644725   0.05873470  -0.35126815
