61
Energy:  -2132.39503478
O   -3.71447686   0.60827534   1.84485097
H   -3.53660208   1.16757931   2.60100670
H   -4.65202601   0.71397671   1.68341783
O    1.05766559  -0.40516122   3.72706566
H    1.62846304  -0.90947602   4.30679723
H    0.23716348  -0.32014195   4.21263734
O    0.41816837  -1.36376283   1.24025989
H    0.65767701  -1.10498754   2.13014910
H   -0.02803078  -2.20390949   1.34652255
O   -1.38763154  -0.16185859   4.93952404
H   -1.84874825   0.64723850   4.71824336
H   -1.63161774  -0.33622004   5.84853486
O    3.42029273   1.70735650  -1.88345981
H    3.74768852   0.83760540  -2.11275626
H    4.20633049   2.24926882  -1.81484829
O   -2.43110440  -1.62857069   2.82397850
H   -3.05739750  -0.97668087   2.50929062
H   -2.12165082  -1.28005623   3.66004548
O   -0.47944038   0.79153338  -2.15771049
H    0.11449021   1.24798873  -2.75363566
H   -1.15879980   0.42951616  -2.72660957
O   -1.39943452  -3.44099284   1.11647742
H   -1.52665014  -4.37044204   1.30666737
H   -1.88582683  -2.98651885   1.80430572
O    0.25512054  -2.31163170  -3.99960206
H    0.30142636  -3.18594893  -4.38645733
H    0.91031904  -1.80286933  -4.47720819
O    1.83145431   1.95206184   2.55788722
H    2.58534324   2.36292318   2.98106130
H    1.64661303   1.18052959   3.09342763
O    3.73217748  -0.92911535  -2.58359972
H    4.51267743  -1.48210993  -2.61893618
H    3.39764631  -0.92856323  -3.48043886
O   -1.26055702   0.98864372   0.68503580
H   -1.04890558   1.80868197   1.13109946
H   -2.15514211   0.78925774   0.96106949
O   -0.65039841   3.13801794   2.27615242
H    0.24864028   2.90141852   2.50414801
H   -0.61755212   4.08152384   2.11819808
O   -2.13022986  -0.97621461  -3.48718177
H   -1.44593282  -1.50833089  -3.89316413
H   -2.85202934  -0.99326111  -4.11562968
O    1.20907644  -1.41917288  -1.58815036
H    2.15038426  -1.35511840  -1.74960767
H    0.86469817  -1.87721428  -2.35485339
O   -1.59690280  -1.50057809  -0.81532332
H   -2.08656274  -1.59016698  -1.63290440
H   -1.78403712  -2.30649795  -0.33396506
O    1.45350422   1.80511740  -3.81816844
H    1.36569059   2.61406176  -4.32228117
H    2.19857742   1.96329522  -3.23844647
O    2.25111075  -0.63035605  -4.91333304
H    2.56749246  -0.58566842  -5.81562871
H    1.95513884   0.25883810  -4.71848378
O   -2.64285706   2.08906666   3.92896322
H   -3.08382333   2.74571660   4.46802856
H   -1.97249198   2.57974606   3.45348847
O    1.55140585   1.03179307  -0.01021048
H    2.24562832   1.34867560  -0.58802745
H    1.76746503   1.39759282   0.84754288
Ca  -0.02539104  -0.23432555  -0.41918624
