
                                 *****************
                                 * O   R   C   A *
                                 *****************

           --- An Ab Initio, DFT and Semiempirical electronic structure package ---

                  #######################################################
                  #                        -***-                        #
                  #          Department of theory and spectroscopy      #
                  #               Directorship: Frank Neese             #
                  #        Max Planck Institute fuer Kohlenforschung    #
                  #                Kaiser Wilhelm Platz 1               #
                  #                 D-45470 Muelheim/Ruhr               #
                  #                      Germany                        #
                  #                                                     #
                  #                  All rights reserved                #
                  #                        -***-                        #
                  #######################################################


                         Program Version 4.2.0 -  RELEASE  -


 With contributions from (in alphabetic order):
   Daniel Aravena         : Magnetic Suceptibility
   Michael Atanasov       : Ab Initio Ligand Field Theory (pilot matlab implementation)
   Alexander A. Auer      : GIAO ZORA, VPT2
   Ute Becker             : Parallelization
   Giovanni Bistoni       : ED, misc. LED, open-shell LED, HFLED
   Martin Brehm           : Molecular dynamics
   Dmytro Bykov           : SCF Hessian
   Vijay G. Chilkuri      : MRCI spin determinant printing, contributions to CSF-ICE
   Dipayan Datta          : RHF DLPNO-CCSD density
   Achintya Kumar Dutta   : EOM-CC, STEOM-CC
   Dmitry Ganyushin       : Spin-Orbit,Spin-Spin,Magnetic field MRCI
   Miquel Garcia          : C-PCM Hessian, Gaussian charge scheme
   Yang Guo               : DLPNO-NEVPT2, CIM, IAO-localization
   Andreas Hansen         : Spin unrestricted coupled pair/coupled cluster methods
   Benjamin Helmich-Paris : CASSCF linear response (MC-RPA)
   Lee Huntington         : MR-EOM, pCC
   Robert Izsak           : Overlap fitted RIJCOSX, COSX-SCS-MP3, EOM
   Christian Kollmar      : KDIIS, OOCD, Brueckner-CCSD(T), CCSD density
   Simone Kossmann        : Meta GGA functionals, TD-DFT gradient, OOMP2, MP2 Hessian
   Martin Krupicka        : AUTO-CI
   Lucas Lang             : DCDCAS
   Dagmar Lenk            : GEPOL surface, SMD
   Dimitrios Liakos       : Extrapolation schemes; Compound Job, initial MDCI parallelization
   Dimitrios Manganas     : Further ROCIS development; embedding schemes
   Dimitrios Pantazis     : SARC Basis sets
   Taras Petrenko         : DFT Hessian,TD-DFT gradient, ASA, ECA, R-Raman, ABS, FL, XAS/XES, NRVS
   Peter Pinski           : DLPNO-MP2, DLPNO-MP2 Gradient
   Christoph Reimann      : Effective Core Potentials
   Marius Retegan         : Local ZFS, SOC
   Christoph Riplinger    : Optimizer, TS searches, QM/MM, DLPNO-CCSD(T), (RO)-DLPNO pert. Triples
   Tobias Risthaus        : Range-separated hybrids, TD-DFT gradient, RPA, STAB
   Michael Roemelt        : Original ROCIS implementation
   Masaaki Saitow         : Open-shell DLPNO-CCSD energy and density
   Barbara Sandhoefer     : DKH picture change effects
   Avijit Sen             : IP-ROCIS
   Kantharuban Sivalingam : CASSCF convergence, NEVPT2, FIC-MRCI
   Bernardo de Souza      : ESD, SOC TD-DFT
   Georgi Stoychev        : AutoAux, RI-MP2 NMR
   Willem Van den Heuvel  : Paramagnetic NMR
   Boris Wezisla          : Elementary symmetry handling
   Frank Wennmohs         : Technical directorship


 We gratefully acknowledge several colleagues who have allowed us to
 interface, adapt or use parts of their codes:
   Stefan Grimme, W. Hujo, H. Kruse,             : VdW corrections, initial TS optimization,
                  C. Bannwarth                     DFT functionals, gCP, sTDA/sTD-DF
   Ed Valeev, F. Pavosevic, A. Kumar             : LibInt (2-el integral package), F12 methods
   Garnet Chan, S. Sharma, J. Yang, R. Olivares  : DMRG
   Ulf Ekstrom                                   : XCFun DFT Library
   Mihaly Kallay                                 : mrcc  (arbitrary order and MRCC methods)
   Andreas Klamt, Michael Diedenhofen            : otool_cosmo (COSMO solvation model)
   Jiri Pittner, Ondrej Demel                    : Mk-CCSD
   Frank Weinhold                                : gennbo (NPA and NBO analysis)
   Christopher J. Cramer and Donald G. Truhlar   : smd solvation model
   Lars Goerigk                                  : TD-DFT with DH, B97 family of functionals
   V. Asgeirsson, H. Jonsson                     : NEB implementation
   FAccTs GmbH                                   : IRC, NEB, NEB-TS, Multilevel, MM, QM/MM, CI optimization
   S Lehtola, MJT Oliveira, MAL Marques          : LibXC Library


 Your calculation uses the libint2 library for the computation of 2-el integrals
 For citations please refer to: http://libint.valeyev.net

 Your ORCA version has been built with support for libXC version: 4.2.3
 For citations please refer to: https://tddft.org/programs/libxc/

 This ORCA versions uses:
   CBLAS   interface :  Fast vector & matrix operations
   LAPACKE interface :  Fast linear algebra routines
   SCALAPACK package :  Parallel linear algebra routines


----- Orbital basis set information -----
Your calculation utilizes the basis: def2-TZVP
   F. Weigend and R. Ahlrichs, Phys. Chem. Chem. Phys. 7, 3297 (2005).

================================================================================
                                        WARNINGS
                       Please study these warnings very carefully!
================================================================================


WARNING: The frozen-core approximation for MP2-gradient calculations is turned on by default.

INFO   : the flag for use of LIBINT has been found!

================================================================================
                                       INPUT FILE
================================================================================
NAME = 12h2o.su.etal.mol2,4,5,7,8,9-orca.engrad-mp2.def2tzvp.frozencore.inp
|  1> # 12h2o.su.etal.mol2,4,5,7,8,9
|  2> ! MP2 def2-TZVP EnGrad TightSCF
|  3> 
|  4> %pal
|  5>     nprocs 6
|  6> end
|  7> 
|  8> %maxcore 8000
|  9> 
| 10> %scf
| 11>     ConvForced true
| 12> end
| 13> 
| 14> *xyz 0 1
| 15> O   0.923410000  -1.794470000  -2.768350000
| 16> H   1.359750000  -2.338250000  -3.430940000
| 17> H   1.303000000  -0.879480000  -2.865760000
| 18> O  -0.885520000   1.737840000   0.052730000
| 19> H  -1.032320000   2.090180000  -0.841890000
| 20> H  -1.284090000   0.839590000   0.017130000
| 21> O   0.885520000  -1.737840000   0.052730000
| 22> H   1.284090000  -0.839590000   0.017130000
| 23> H   1.032320000  -2.090180000  -0.841890000
| 24> O  -1.737840000  -0.885520000  -0.052730000
| 25> H  -2.090180000  -1.032320000   0.841890000
| 26> H  -0.839590000  -1.284090000  -0.017130000
| 27> O   1.752130000   0.741530000  -2.896280000
| 28> H   2.036450000   0.920500000  -1.984040000
| 29> H   0.921210000   1.242140000  -2.984230000
| 30> O   0.741530000  -1.752130000   2.896280000
| 31> H   0.920500000  -2.036450000   1.984040000
| 32> H   1.242140000  -0.921210000   2.984230000
| 33> *
| 34> 
| 35>                          ****END OF INPUT****
================================================================================

                     *******************************
                     * Energy+Gradient Calculation *
                     *******************************

---------------------------------
CARTESIAN COORDINATES (ANGSTROEM)
---------------------------------
  O      0.923410   -1.794470   -2.768350
  H      1.359750   -2.338250   -3.430940
  H      1.303000   -0.879480   -2.865760
  O     -0.885520    1.737840    0.052730
  H     -1.032320    2.090180   -0.841890
  H     -1.284090    0.839590    0.017130
  O      0.885520   -1.737840    0.052730
  H      1.284090   -0.839590    0.017130
  H      1.032320   -2.090180   -0.841890
  O     -1.737840   -0.885520   -0.052730
  H     -2.090180   -1.032320    0.841890
  H     -0.839590   -1.284090   -0.017130
  O      1.752130    0.741530   -2.896280
  H      2.036450    0.920500   -1.984040
  H      0.921210    1.242140   -2.984230
  O      0.741530   -1.752130    2.896280
  H      0.920500   -2.036450    1.984040
  H      1.242140   -0.921210    2.984230

----------------------------
CARTESIAN COORDINATES (A.U.)
----------------------------
  NO LB      ZA    FRAG     MASS         X           Y           Z
   0 O     8.0000    0    15.999    1.744992   -3.391057   -5.231423
   1 H     1.0000    0     1.008    2.569555   -4.418652   -6.483537
   2 H     1.0000    0     1.008    2.462313   -1.661976   -5.415502
   3 O     8.0000    0    15.999   -1.673390    3.284042    0.099645
   4 H     1.0000    0     1.008   -1.950802    3.949868   -1.590942
   5 H     1.0000    0     1.008   -2.426578    1.586595    0.032371
   6 O     8.0000    0    15.999    1.673390   -3.284042    0.099645
   7 H     1.0000    0     1.008    2.426578   -1.586595    0.032371
   8 H     1.0000    0     1.008    1.950802   -3.949868   -1.590942
   9 O     8.0000    0    15.999   -3.284042   -1.673390   -0.099645
  10 H     1.0000    0     1.008   -3.949868   -1.950802    1.590942
  11 H     1.0000    0     1.008   -1.586595   -2.426578   -0.032371
  12 O     8.0000    0    15.999    3.311046    1.401289   -5.473176
  13 H     1.0000    0     1.008    3.848333    1.739493   -3.749292
  14 H     1.0000    0     1.008    1.740835    2.347304   -5.639377
  15 O     8.0000    0    15.999    1.401289   -3.311046    5.473176
  16 H     1.0000    0     1.008    1.739493   -3.848333    3.749292
  17 H     1.0000    0     1.008    2.347304   -1.740835    5.639377

--------------------------------
INTERNAL COORDINATES (ANGSTROEM)
--------------------------------
 O      0   0   0     0.000000000000     0.00000000     0.00000000
 H      1   0   0     0.961828878803     0.00000000     0.00000000
 H      1   2   0     0.995381322057   106.21731035     0.00000000
 O      3   1   2     4.489717992580   106.64087787   176.77928518
 H      4   3   1     0.972645187106    71.75107181   239.98847868
 H      4   3   1     0.983350632989    68.99381625   353.14737776
 O      1   2   3     2.821902722526   134.92023192   245.52250503
 H      7   1   2     0.983350632989    88.66470709   117.24500673
 H      7   1   2     0.972645187106    21.75017499   343.08822912
 O      6   4   3     1.785153773264   170.81379649    41.84808259
 H     10   6   4     0.972645187106   101.65007623   109.44492584
 H     10   6   4     0.983350632989    99.09581498     3.33484705
 O      3   1   2     1.682356278379   171.61043709   164.26103839
 H     13   3   1     0.972136791249   103.79460456    70.64587838
 H     13   3   1     0.974050112161   105.61118924   321.69395179
 O      7   1   2     2.847229166523   177.43098014   265.14132070
 H     16   7   9     0.972136791249    19.08819947     8.79504813
 H     16   7   9     0.974050112161    93.43428486   132.89132802

---------------------------
INTERNAL COORDINATES (A.U.)
---------------------------
 O      0   0   0     0.000000000000     0.00000000     0.00000000
 H      1   0   0     1.817593168635     0.00000000     0.00000000
 H      1   2   0     1.880998097508   106.21731035     0.00000000
 O      3   1   2     8.484337424516   106.64087787   176.77928518
 H      4   3   1     1.838033029106    71.75107181   239.98847868
 H      4   3   1     1.858263389967    68.99381625   353.14737776
 O      1   2   3     5.332623322141   134.92023192   245.52250503
 H      7   1   2     1.858263389967    88.66470709   117.24500673
 H      7   1   2     1.838033029106    21.75017499   343.08822912
 O      6   4   3     3.373451738406   170.81379649    41.84808259
 H     10   6   4     1.838033029106   101.65007623   109.44492584
 H     10   6   4     1.858263389967    99.09581498     3.33484705
 O      3   1   2     3.179192625819   171.61043709   164.26103839
 H     13   3   1     1.837072300170   103.79460456    70.64587838
 H     13   3   1     1.840687952699   105.61118924   321.69395179
 O      7   1   2     5.380483365242   177.43098014   265.14132070
 H     16   7   9     1.837072300170    19.08819947     8.79504813
 H     16   7   9     1.840687952699    93.43428486   132.89132802

---------------------
BASIS SET INFORMATION
---------------------
There are 2 groups of distinct atoms

 Group   1 Type O   : 11s6p2d1f contracted to 5s3p2d1f pattern {62111/411/11/1}
 Group   2 Type H   : 5s1p contracted to 3s1p pattern {311/1}

Atom   0O    basis set group =>   1
Atom   1H    basis set group =>   2
Atom   2H    basis set group =>   2
Atom   3O    basis set group =>   1
Atom   4H    basis set group =>   2
Atom   5H    basis set group =>   2
Atom   6O    basis set group =>   1
Atom   7H    basis set group =>   2
Atom   8H    basis set group =>   2
Atom   9O    basis set group =>   1
Atom  10H    basis set group =>   2
Atom  11H    basis set group =>   2
Atom  12O    basis set group =>   1
Atom  13H    basis set group =>   2
Atom  14H    basis set group =>   2
Atom  15O    basis set group =>   1
Atom  16H    basis set group =>   2
Atom  17H    basis set group =>   2


           ************************************************************
           *        Program running with 6 parallel MPI-processes     *
           *              working on a common directory               *
           ************************************************************
------------------------------------------------------------------------------
                           ORCA GTO INTEGRAL CALCULATION
------------------------------------------------------------------------------

                         BASIS SET STATISTICS AND STARTUP INFO

 # of primitive gaussian shells          ...  192
 # of primitive gaussian functions       ...  372
 # of contracted shells                  ...  114
 # of contracted basis functions         ...  258
 Highest angular momentum                ...    3
 Maximum contraction depth               ...    6
 Integral package used                   ... LIBINT
 Integral threshhold            Thresh   ...  2.500e-11
 Primitive cut-off              TCut     ...  2.500e-12


------------------------------ INTEGRAL EVALUATION ----------------------------


 * One electron integrals 
 Pre-screening matrix                    ... done
 Shell pair data                         ... done (   0.001 sec)



           ************************************************************
           *        Program running with 6 parallel MPI-processes     *
           *              working on a common directory               *
           ************************************************************
-------------------------------------------------------------------------------
                                 ORCA SCF
-------------------------------------------------------------------------------

------------
SCF SETTINGS
------------
Hamiltonian:
 Ab initio Hamiltonian  Method          .... Hartree-Fock(GTOs)


General Settings:
 Integral files         IntName         .... 12h2o.su.etal.mol2,4,5,7,8,9-orca.engrad-mp2.def2tzvp.frozencore
 Hartree-Fock type      HFTyp           .... RHF
 Total Charge           Charge          ....    0
 Multiplicity           Mult            ....    1
 Number of Electrons    NEL             ....   60
 Basis Dimension        Dim             ....  258
 Nuclear Repulsion      ENuc            ....    269.7639627268 Eh

Convergence Acceleration:
 DIIS                   CNVDIIS         .... on
   Start iteration      DIISMaxIt       ....    12
   Startup error        DIISStart       ....  0.200000
   # of expansion vecs  DIISMaxEq       ....     5
   Bias factor          DIISBfac        ....   1.050
   Max. coefficient     DIISMaxC        ....  10.000
 Newton-Raphson         CNVNR           .... off
 SOSCF                  CNVSOSCF        .... on
   Start iteration      SOSCFMaxIt      ....   150
   Startup grad/error   SOSCFStart      ....  0.003300
 Level Shifting         CNVShift        .... on
   Level shift para.    LevelShift      ....    0.2500
   Turn off err/grad.   ShiftErr        ....    0.0010
 Zerner damping         CNVZerner       .... off
 Static damping         CNVDamp         .... on
   Fraction old density DampFac         ....    0.7000
   Max. Damping (<1)    DampMax         ....    0.9800
   Min. Damping (>=0)   DampMin         ....    0.0000
   Turn off err/grad.   DampErr         ....    0.1000
 Fernandez-Rico         CNVRico         .... off

SCF Procedure:
 Maximum # iterations   MaxIter         ....   125
 SCF integral mode      SCFMode         .... Direct
   Integral package                     .... LIBINT
 Reset frequency        DirectResetFreq ....    20
 Integral Threshold     Thresh          ....  2.500e-11 Eh
 Primitive CutOff       TCut            ....  2.500e-12 Eh

Convergence Tolerance:
 Convergence Check Mode ConvCheckMode   .... Total+1el-Energy
 Convergence forced     ConvForced      .... 1
 Energy Change          TolE            ....  1.000e-08 Eh
 1-El. energy change                    ....  1.000e-05 Eh
 Orbital Gradient       TolG            ....  1.000e-05
 Orbital Rotation angle TolX            ....  1.000e-05
 DIIS Error             TolErr          ....  5.000e-07


Diagonalization of the overlap matrix:
Smallest eigenvalue                        ... 3.832e-03
Time for diagonalization                   ...    0.011 sec
Threshold for overlap eigenvalues          ... 1.000e-08
Number of eigenvalues below threshold      ... 0
Time for construction of square roots      ...    0.005 sec
Total time needed                          ...    0.016 sec

-------------------
DFT GRID GENERATION
-------------------

General Integration Accuracy     IntAcc      ...  4.340
Radial Grid Type                 RadialGrid  ... Gauss-Chebyshev
Angular Grid (max. acc.)         AngularGrid ... Lebedev-110
Angular grid pruning method      GridPruning ... 3 (G Style)
Weight generation scheme         WeightScheme... Becke
Basis function cutoff            BFCut       ...    1.0000e-11
Integration weight cutoff        WCut        ...    1.0000e-14
Grids for H and He will be reduced by one unit

# of grid points (after initial pruning)     ...  19824 (   0.0 sec)
# of grid points (after weights+screening)   ...  18711 (   0.0 sec)
nearest neighbour list constructed           ...    0.0 sec
Grid point re-assignment to atoms done       ...    0.0 sec
Grid point division into batches done        ...    0.0 sec
Reduced shell lists constructed in    0.0 sec

Total number of grid points                  ...    18711
Total number of batches                      ...      303
Average number of points per batch           ...       61
Average number of grid points per atom       ...     1040
Average number of shells per batch           ...    58.04 (50.91%)
Average number of basis functions per batch  ...   117.85 (45.68%)
Average number of large shells per batch     ...    41.38 (71.31%)
Average number of large basis fcns per batch ...    82.69 (70.17%)
Maximum spatial batch extension              ...  21.02, 14.14, 12.83 au
Average spatial batch extension              ...   0.74,  0.55,  0.59 au

Time for grid setup =    0.056 sec

------------------------------
INITIAL GUESS: MODEL POTENTIAL
------------------------------
Loading Hartree-Fock densities                     ... done
Calculating cut-offs                               ... done
Setting up the integral package                    ... done
Initializing the effective Hamiltonian             ... done
Starting the Coulomb interaction                   ... done (   0.0 sec)
Reading the grid                                   ... done
Mapping shells                                     ... done
Starting the XC term evaluation                    ... done (   0.0 sec)
Transforming the Hamiltonian                       ... done (   0.0 sec)
Diagonalizing the Hamiltonian                      ... done (   0.0 sec)
Back transforming the eigenvectors                 ... done (   0.0 sec)
Now organizing SCF variables                       ... done
                      ------------------
                      INITIAL GUESS DONE (   0.2 sec)
                      ------------------
--------------
SCF ITERATIONS
--------------
ITER       Energy         Delta-E        Max-DP      RMS-DP      [F,P]     Damp
               ***  Starting incremental Fock matrix formation  ***
  0   -455.8364289596   0.000000000000 0.04383528  0.00097264  0.3529013 0.7000
  1   -456.0467263535  -0.210297393932 0.02924093  0.00067374  0.2166225 0.7000
                               ***Turning on DIIS***
  2   -456.1579985571  -0.111272203556 0.01688510  0.00037576  0.1636526 0.7000
  3   -457.1463001203  -0.988301563201 0.00781004  0.00017122  0.1218306 0.7000
  4   -456.9444444480   0.201855672331 0.01757272  0.00039579  0.0861651 0.0000
  5   -456.4120244727   0.532419975250 0.00218366  0.00006415  0.0058884 0.0000
                      *** Initiating the SOSCF procedure ***
                           *** Shutting down DIIS ***
                      *** Re-Reading the Fockian *** 
                      *** Removing any level shift *** 
ITER      Energy       Delta-E        Grad      Rot      Max-DP    RMS-DP
  6   -456.38136141   0.0306630660  0.000695  0.000695  0.001478  0.000040
               *** Restarting incremental Fock matrix formation ***
  7   -456.37277410   0.0085873022  0.000279  0.000450  0.000730  0.000017
  8   -456.37278319  -0.0000090903  0.000116  0.000380  0.000578  0.000015
  9   -456.37278540  -0.0000022019  0.000067  0.000040  0.000093  0.000003
 10   -456.37278558  -0.0000001816  0.000011  0.000007  0.000019  0.000000
                  ***Gradient check signals convergence***
              ***Rediagonalizing the Fockian in SOSCF/NRSCF***

               *****************************************************
               *                     SUCCESS                       *
               *           SCF CONVERGED AFTER  11 CYCLES          *
               *****************************************************


----------------
TOTAL SCF ENERGY
----------------

Total Energy       :         -456.37278558 Eh          -12418.53484 eV

Components:
Nuclear Repulsion  :          269.76396273 Eh            7340.65062 eV
Electronic Energy  :         -726.13674831 Eh          -19759.18546 eV
One Electron Energy:        -1167.23402109 Eh          -31762.05247 eV
Two Electron Energy:          441.09727278 Eh           12002.86701 eV

Virial components:
Potential Energy   :         -912.15099587 Eh          -24820.89047 eV
Kinetic Energy     :          455.77821029 Eh           12402.35563 eV
Virial Ratio       :            2.00130453


---------------
SCF CONVERGENCE
---------------

  Last Energy change         ...   -4.8191e-09  Tolerance :   1.0000e-08
  Last MAX-Density change    ...    5.2544e-06  Tolerance :   1.0000e-07
  Last RMS-Density change    ...    1.3904e-07  Tolerance :   5.0000e-09
  Last Orbital Gradient      ...    2.1092e-06  Tolerance :   1.0000e-05
  Last Orbital Rotation      ...    2.3796e-06  Tolerance :   1.0000e-05

             **** THE GBW FILE WAS UPDATED (12h2o.su.etal.mol2,4,5,7,8,9-orca.engrad-mp2.def2tzvp.frozencore.gbw) ****
             **** DENSITY FILE WAS UPDATED (12h2o.su.etal.mol2,4,5,7,8,9-orca.engrad-mp2.def2tzvp.frozencore.scfp) ****
             **** ENERGY FILE WAS UPDATED (12h2o.su.etal.mol2,4,5,7,8,9-orca.engrad-mp2.def2tzvp.frozencore.en.tmp) ****
             **** THE GBW FILE WAS UPDATED (12h2o.su.etal.mol2,4,5,7,8,9-orca.engrad-mp2.def2tzvp.frozencore.gbw) ****
             **** DENSITY FILE WAS UPDATED (12h2o.su.etal.mol2,4,5,7,8,9-orca.engrad-mp2.def2tzvp.frozencore.scfp) ****
----------------
ORBITAL ENERGIES
----------------

  NO   OCC          E(Eh)            E(eV) 
   0   2.0000     -20.622832      -561.1758 
   1   2.0000     -20.593888      -560.3882 
   2   2.0000     -20.565410      -559.6133 
   3   2.0000     -20.554004      -559.3029 
   4   2.0000     -20.539823      -558.9170 
   5   2.0000     -20.539753      -558.9151 
   6   2.0000      -1.408387       -38.3242 
   7   2.0000      -1.381950       -37.6048 
   8   2.0000      -1.347994       -36.6808 
   9   2.0000      -1.340896       -36.4876 
  10   2.0000      -1.321637       -35.9636 
  11   2.0000      -1.318357       -35.8743 
  12   2.0000      -0.765419       -20.8281 
  13   2.0000      -0.743177       -20.2229 
  14   2.0000      -0.734473       -19.9860 
  15   2.0000      -0.708828       -19.2882 
  16   2.0000      -0.693434       -18.8693 
  17   2.0000      -0.690953       -18.8018 
  18   2.0000      -0.649042       -17.6613 
  19   2.0000      -0.626001       -17.0344 
  20   2.0000      -0.597940       -16.2708 
  21   2.0000      -0.589689       -16.0463 
  22   2.0000      -0.566231       -15.4079 
  23   2.0000      -0.556487       -15.1428 
  24   2.0000      -0.549230       -14.9453 
  25   2.0000      -0.528678       -14.3861 
  26   2.0000      -0.514951       -14.0125 
  27   2.0000      -0.497180       -13.5290 
  28   2.0000      -0.487182       -13.2569 
  29   2.0000      -0.486024       -13.2254 
  30   0.0000       0.072199         1.9646 
  31   0.0000       0.123601         3.3634 
  32   0.0000       0.141692         3.8556 
  33   0.0000       0.145642         3.9631 
  34   0.0000       0.177331         4.8254 
  35   0.0000       0.200038         5.4433 
  36   0.0000       0.217032         5.9057 
  37   0.0000       0.253096         6.8871 
  38   0.0000       0.283887         7.7250 
  39   0.0000       0.298358         8.1187 
  40   0.0000       0.320861         8.7311 
  41   0.0000       0.336586         9.1590 
  42   0.0000       0.438663        11.9366 
  43   0.0000       0.454745        12.3742 
  44   0.0000       0.458871        12.4865 
  45   0.0000       0.502603        13.6765 
  46   0.0000       0.525004        14.2861 
  47   0.0000       0.525836        14.3087 
  48   0.0000       0.534265        14.5381 
  49   0.0000       0.543224        14.7819 
  50   0.0000       0.560536        15.2530 
  51   0.0000       0.561827        15.2881 
  52   0.0000       0.576268        15.6811 
  53   0.0000       0.602410        16.3924 
  54   0.0000       0.609679        16.5902 
  55   0.0000       0.617576        16.8051 
  56   0.0000       0.627715        17.0810 
  57   0.0000       0.636444        17.3185 
  58   0.0000       0.640205        17.4209 
  59   0.0000       0.672979        18.3127 
  60   0.0000       0.701876        19.0990 
  61   0.0000       0.708995        19.2927 
  62   0.0000       0.733585        19.9619 
  63   0.0000       0.738765        20.1028 
  64   0.0000       0.751394        20.4465 
  65   0.0000       0.764899        20.8140 
  66   0.0000       0.783629        21.3236 
  67   0.0000       0.790603        21.5134 
  68   0.0000       0.800459        21.7816 
  69   0.0000       0.817171        22.2363 
  70   0.0000       0.872188        23.7334 
  71   0.0000       0.902910        24.5694 
  72   0.0000       0.928011        25.2525 
  73   0.0000       0.970241        26.4016 
  74   0.0000       0.987941        26.8832 
  75   0.0000       1.011792        27.5323 
  76   0.0000       1.054238        28.6873 
  77   0.0000       1.089299        29.6413 
  78   0.0000       1.334362        36.3098 
  79   0.0000       1.358129        36.9566 
  80   0.0000       1.362346        37.0713 
  81   0.0000       1.391512        37.8650 
  82   0.0000       1.414184        38.4819 
  83   0.0000       1.434431        39.0329 
  84   0.0000       1.444310        39.3017 
  85   0.0000       1.449227        39.4355 
  86   0.0000       1.456294        39.6278 
  87   0.0000       1.475310        40.1452 
  88   0.0000       1.498909        40.7874 
  89   0.0000       1.512968        41.1700 
  90   0.0000       1.554946        42.3122 
  91   0.0000       1.564052        42.5600 
  92   0.0000       1.580908        43.0187 
  93   0.0000       1.593211        43.3535 
  94   0.0000       1.605497        43.6878 
  95   0.0000       1.619492        44.0686 
  96   0.0000       1.759126        47.8683 
  97   0.0000       1.788371        48.6641 
  98   0.0000       1.822047        49.5804 
  99   0.0000       1.842736        50.1434 
 100   0.0000       1.852506        50.4092 
 101   0.0000       1.872062        50.9414 
 102   0.0000       1.898511        51.6611 
 103   0.0000       1.933853        52.6228 
 104   0.0000       1.968650        53.5697 
 105   0.0000       1.978491        53.8375 
 106   0.0000       2.014785        54.8251 
 107   0.0000       2.025206        55.1087 
 108   0.0000       2.058049        56.0024 
 109   0.0000       2.062330        56.1189 
 110   0.0000       2.068407        56.2842 
 111   0.0000       2.120078        57.6903 
 112   0.0000       2.134535        58.0836 
 113   0.0000       2.192454        59.6597 
 114   0.0000       2.212676        60.2100 
 115   0.0000       2.259164        61.4750 
 116   0.0000       2.289629        62.3040 
 117   0.0000       2.308556        62.8190 
 118   0.0000       2.314803        62.9890 
 119   0.0000       2.333413        63.4954 
 120   0.0000       2.338904        63.6448 
 121   0.0000       2.354862        64.0791 
 122   0.0000       2.364147        64.3317 
 123   0.0000       2.372867        64.5690 
 124   0.0000       2.381667        64.8084 
 125   0.0000       2.427865        66.0656 
 126   0.0000       2.442549        66.4651 
 127   0.0000       2.489285        67.7369 
 128   0.0000       2.493375        67.8482 
 129   0.0000       2.504561        68.1526 
 130   0.0000       2.531918        68.8970 
 131   0.0000       2.544678        69.2442 
 132   0.0000       2.586823        70.3910 
 133   0.0000       2.601132        70.7804 
 134   0.0000       2.610324        71.0305 
 135   0.0000       2.622627        71.3653 
 136   0.0000       2.625666        71.4480 
 137   0.0000       2.630876        71.5898 
 138   0.0000       2.657713        72.3201 
 139   0.0000       2.706644        73.6515 
 140   0.0000       2.722607        74.0859 
 141   0.0000       2.732388        74.3520 
 142   0.0000       2.748266        74.7841 
 143   0.0000       2.787155        75.8423 
 144   0.0000       2.873430        78.1900 
 145   0.0000       2.904488        79.0351 
 146   0.0000       2.925291        79.6012 
 147   0.0000       2.932679        79.8022 
 148   0.0000       2.945871        80.1612 
 149   0.0000       2.973592        80.9155 
 150   0.0000       2.980345        81.0993 
 151   0.0000       2.997475        81.5654 
 152   0.0000       3.022880        82.2567 
 153   0.0000       3.028415        82.4074 
 154   0.0000       3.060628        83.2839 
 155   0.0000       3.082872        83.8892 
 156   0.0000       3.098063        84.3026 
 157   0.0000       3.114931        84.7616 
 158   0.0000       3.152502        85.7840 
 159   0.0000       3.169165        86.2374 
 160   0.0000       3.223490        87.7156 
 161   0.0000       3.238734        88.1304 
 162   0.0000       3.272005        89.0358 
 163   0.0000       3.286107        89.4195 
 164   0.0000       3.303073        89.8812 
 165   0.0000       3.422739        93.1375 
 166   0.0000       3.462941        94.2314 
 167   0.0000       3.484083        94.8067 
 168   0.0000       3.979300       108.2823 
 169   0.0000       4.044216       110.0487 
 170   0.0000       4.058870       110.4475 
 171   0.0000       4.077667       110.9589 
 172   0.0000       4.086685       111.2044 
 173   0.0000       4.124797       112.2414 
 174   0.0000       4.250257       115.6554 
 175   0.0000       4.287625       116.6722 
 176   0.0000       4.334242       117.9407 
 177   0.0000       4.347002       118.2879 
 178   0.0000       4.357252       118.5669 
 179   0.0000       4.363666       118.7414 
 180   0.0000       5.486030       149.2825 
 181   0.0000       5.511658       149.9799 
 182   0.0000       5.543105       150.8355 
 183   0.0000       5.547074       150.9436 
 184   0.0000       5.565693       151.4502 
 185   0.0000       5.568174       151.5177 
 186   0.0000       5.620108       152.9309 
 187   0.0000       5.633329       153.2907 
 188   0.0000       5.652750       153.8191 
 189   0.0000       5.671656       154.3336 
 190   0.0000       5.673573       154.3858 
 191   0.0000       5.677173       154.4837 
 192   0.0000       5.772220       157.0701 
 193   0.0000       5.778040       157.2285 
 194   0.0000       5.784631       157.4078 
 195   0.0000       5.813308       158.1882 
 196   0.0000       5.826176       158.5383 
 197   0.0000       5.827319       158.5694 
 198   0.0000       5.837500       158.8465 
 199   0.0000       5.838899       158.8845 
 200   0.0000       5.845350       159.0601 
 201   0.0000       5.848998       159.1593 
 202   0.0000       5.860145       159.4627 
 203   0.0000       5.871203       159.7635 
 204   0.0000       5.881759       160.0508 
 205   0.0000       5.893568       160.3721 
 206   0.0000       5.900973       160.5736 
 207   0.0000       5.913926       160.9261 
 208   0.0000       5.920879       161.1153 
 209   0.0000       5.924825       161.2227 
 210   0.0000       6.426169       174.8649 
 211   0.0000       6.439071       175.2160 
 212   0.0000       6.458987       175.7580 
 213   0.0000       6.475981       176.2204 
 214   0.0000       6.495248       176.7447 
 215   0.0000       6.512192       177.2058 
 216   0.0000       6.651106       180.9858 
 217   0.0000       6.665036       181.3648 
 218   0.0000       6.694495       182.1665 
 219   0.0000       6.715518       182.7385 
 220   0.0000       6.724702       182.9884 
 221   0.0000       6.765363       184.0949 
 222   0.0000       6.813523       185.4054 
 223   0.0000       6.838771       186.0924 
 224   0.0000       6.848301       186.3518 
 225   0.0000       6.859241       186.6494 
 226   0.0000       6.866415       186.8447 
 227   0.0000       6.869898       186.9394 
 228   0.0000       6.886676       187.3960 
 229   0.0000       6.899498       187.7449 
 230   0.0000       6.910775       188.0518 
 231   0.0000       6.913408       188.1234 
 232   0.0000       6.925481       188.4519 
 233   0.0000       6.949123       189.0953 
 234   0.0000       6.956553       189.2974 
 235   0.0000       6.972993       189.7448 
 236   0.0000       6.983196       190.0224 
 237   0.0000       7.014260       190.8677 
 238   0.0000       7.036784       191.4806 
 239   0.0000       7.067862       192.3263 
 240   0.0000       7.350219       200.0096 
 241   0.0000       7.383153       200.9058 
 242   0.0000       7.390335       201.1012 
 243   0.0000       7.412087       201.6932 
 244   0.0000       7.448481       202.6835 
 245   0.0000       7.465616       203.1497 
 246   0.0000       7.498793       204.0525 
 247   0.0000       7.537561       205.1075 
 248   0.0000       7.553156       205.5318 
 249   0.0000       7.570323       205.9990 
 250   0.0000       7.572930       206.0699 
 251   0.0000       7.598019       206.7526 
 252   0.0000      44.886495      1221.4236 
 253   0.0000      44.919555      1222.3232 
 254   0.0000      44.948720      1223.1168 
 255   0.0000      44.964873      1223.5564 
 256   0.0000      45.004022      1224.6217 
 257   0.0000      45.062774      1226.2204 

                    ********************************
                    * MULLIKEN POPULATION ANALYSIS *
                    ********************************

-----------------------
MULLIKEN ATOMIC CHARGES
-----------------------
   0 O :   -0.767260
   1 H :    0.353489
   2 H :    0.396390
   3 O :   -0.744793
   4 H :    0.322968
   5 H :    0.388243
   6 O :   -0.760866
   7 H :    0.347099
   8 H :    0.416411
   9 O :   -0.751883
  10 H :    0.362046
  11 H :    0.402473
  12 O :   -0.704341
  13 H :    0.365568
  14 H :    0.375102
  15 O :   -0.717673
  16 H :    0.385474
  17 H :    0.331552
Sum of atomic charges:   -0.0000000

--------------------------------
MULLIKEN REDUCED ORBITAL CHARGES
--------------------------------
  0 O s       :     3.808592  s :     3.808592
      pz      :     1.709369  p :     4.934343
      px      :     1.812162
      py      :     1.412812
      dz2     :     0.003496  d :     0.022894
      dxz     :     0.005454
      dyz     :     0.004062
      dx2y2   :     0.002290
      dxy     :     0.007592
      f0      :     0.000078  f :     0.001431
      f+1     :     0.000177
      f-1     :     0.000310
      f+2     :     0.000070
      f-2     :     0.000348
      f+3     :     0.000358
      f-3     :     0.000090
  1 H s       :     0.600781  s :     0.600781
      pz      :     0.016820  p :     0.045730
      px      :     0.014994
      py      :     0.013916
  2 H s       :     0.547026  s :     0.547026
      pz      :     0.010387  p :     0.056584
      px      :     0.014227
      py      :     0.031970
  3 O s       :     3.812978  s :     3.812978
      pz      :     1.514119  p :     4.905435
      px      :     1.875233
      py      :     1.516083
      dz2     :     0.011613  d :     0.024949
      dxz     :     0.002556
      dyz     :     0.002992
      dx2y2   :     0.002974
      dxy     :     0.004815
      f0      :     0.000186  f :     0.001431
      f+1     :     0.000123
      f-1     :     0.000452
      f+2     :     0.000076
      f-2     :     0.000041
      f+3     :     0.000441
      f-3     :     0.000113
  4 H s       :     0.631895  s :     0.631895
      pz      :     0.018141  p :     0.045137
      px      :     0.014582
      py      :     0.012414
  5 H s       :     0.557646  s :     0.557646
      pz      :     0.009338  p :     0.054111
      px      :     0.015277
      py      :     0.029496
  6 O s       :     3.802800  s :     3.802800
      pz      :     1.624740  p :     4.933064
      px      :     1.849906
      py      :     1.458418
      dz2     :     0.010438  d :     0.023624
      dxz     :     0.002063
      dyz     :     0.002460
      dx2y2   :     0.003500
      dxy     :     0.005162
      f0      :     0.000161  f :     0.001379
      f+1     :     0.000111
      f-1     :     0.000439
      f+2     :     0.000069
      f-2     :     0.000036
      f+3     :     0.000454
      f-3     :     0.000109
  7 H s       :     0.610659  s :     0.610659
      pz      :     0.009601  p :     0.042242
      px      :     0.014173
      py      :     0.018468
  8 H s       :     0.535202  s :     0.535202
      pz      :     0.025772  p :     0.048387
      px      :     0.011946
      py      :     0.010669
  9 O s       :     3.803432  s :     3.803432
      pz      :     1.553105  p :     4.922202
      px      :     1.526647
      py      :     1.842449
      dz2     :     0.011878  d :     0.024883
      dxz     :     0.002939
      dyz     :     0.002175
      dx2y2   :     0.003341
      dxy     :     0.004551
      f0      :     0.000169  f :     0.001366
      f+1     :     0.000465
      f-1     :     0.000113
      f+2     :     0.000068
      f-2     :     0.000041
      f+3     :     0.000097
      f-3     :     0.000413
 10 H s       :     0.594163  s :     0.594163
      pz      :     0.018904  p :     0.043791
      px      :     0.011544
      py      :     0.013343
 11 H s       :     0.544627  s :     0.544627
      pz      :     0.009319  p :     0.052900
      px      :     0.028923
      py      :     0.014659
 12 O s       :     3.800160  s :     3.800160
      pz      :     1.525933  p :     4.876764
      px      :     1.561350
      py      :     1.789482
      dz2     :     0.012632  d :     0.025970
      dxz     :     0.001259
      dyz     :     0.002468
      dx2y2   :     0.002518
      dxy     :     0.007093
      f0      :     0.000249  f :     0.001448
      f+1     :     0.000393
      f-1     :     0.000163
      f+2     :     0.000051
      f-2     :     0.000057
      f+3     :     0.000053
      f-3     :     0.000482
 13 H s       :     0.590578  s :     0.590578
      pz      :     0.019415  p :     0.043853
      px      :     0.011716
      py      :     0.012723
 14 H s       :     0.581649  s :     0.581649
      pz      :     0.010086  p :     0.043249
      px      :     0.018537
      py      :     0.014626
 15 O s       :     3.811525  s :     3.811525
      pz      :     1.551471  p :     4.878941
      px      :     1.813823
      py      :     1.513646
      dz2     :     0.011728  d :     0.025713
      dxz     :     0.003048
      dyz     :     0.001234
      dx2y2   :     0.002135
      dxy     :     0.007568
      f0      :     0.000250  f :     0.001495
      f+1     :     0.000167
      f-1     :     0.000375
      f+2     :     0.000056
      f-2     :     0.000055
      f+3     :     0.000521
      f-3     :     0.000070
 16 H s       :     0.565695  s :     0.565695
      pz      :     0.024182  p :     0.048831
      px      :     0.013057
      py      :     0.011592
 17 H s       :     0.623415  s :     0.623415
      pz      :     0.011037  p :     0.045032
      px      :     0.015922
      py      :     0.018073


                     *******************************
                     * LOEWDIN POPULATION ANALYSIS *
                     *******************************

----------------------
LOEWDIN ATOMIC CHARGES
----------------------
   0 O :   -0.343906
   1 H :    0.157277
   2 H :    0.153093
   3 O :   -0.365362
   4 H :    0.150525
   5 H :    0.152190
   6 O :   -0.295016
   7 H :    0.168540
   8 H :    0.166394
   9 O :   -0.318801
  10 H :    0.168706
  11 H :    0.155408
  12 O :   -0.274508
  13 H :    0.172335
  14 H :    0.179369
  15 O :   -0.340688
  16 H :    0.155243
  17 H :    0.159201

-------------------------------
LOEWDIN REDUCED ORBITAL CHARGES
-------------------------------
  0 O s       :     3.460432  s :     3.460432
      pz      :     1.676412  p :     4.852294
      px      :     1.781869
      py      :     1.394013
      dz2     :     0.004545  d :     0.029202
      dxz     :     0.005589
      dyz     :     0.006538
      dx2y2   :     0.003290
      dxy     :     0.009241
      f0      :     0.000080  f :     0.001978
      f+1     :     0.000261
      f-1     :     0.000425
      f+2     :     0.000034
      f-2     :     0.000610
      f+3     :     0.000484
      f-3     :     0.000085
  1 H s       :     0.677975  s :     0.677975
      pz      :     0.065706  p :     0.164748
      px      :     0.053255
      py      :     0.045786
  2 H s       :     0.652048  s :     0.652048
      pz      :     0.033532  p :     0.194859
      px      :     0.047696
      py      :     0.113631
  3 O s       :     3.472959  s :     3.472959
      pz      :     1.531037  p :     4.859365
      px      :     1.838607
      py      :     1.489721
      dz2     :     0.015288  d :     0.030988
      dxz     :     0.001723
      dyz     :     0.004537
      dx2y2   :     0.003746
      dxy     :     0.005694
      f0      :     0.000406  f :     0.002050
      f+1     :     0.000192
      f-1     :     0.000760
      f+2     :     0.000048
      f-2     :     0.000046
      f+3     :     0.000534
      f-3     :     0.000064
  4 H s       :     0.690851  s :     0.690851
      pz      :     0.077723  p :     0.158624
      px      :     0.043868
      py      :     0.037034
  5 H s       :     0.660893  s :     0.660893
      pz      :     0.028702  p :     0.186916
      px      :     0.052646
      py      :     0.105568
  6 O s       :     3.456591  s :     3.456591
      pz      :     1.570502  p :     4.805467
      px      :     1.785319
      py      :     1.449646
      dz2     :     0.014087  d :     0.030951
      dxz     :     0.001239
      dyz     :     0.003357
      dx2y2   :     0.005447
      dxy     :     0.006821
      f0      :     0.000319  f :     0.002007
      f+1     :     0.000199
      f-1     :     0.000699
      f+2     :     0.000036
      f-2     :     0.000041
      f+3     :     0.000639
      f-3     :     0.000075
  7 H s       :     0.676935  s :     0.676935
      pz      :     0.031014  p :     0.154525
      px      :     0.049397
      py      :     0.074113
  8 H s       :     0.658773  s :     0.658773
      pz      :     0.097424  p :     0.174834
      px      :     0.041832
      py      :     0.035578
  9 O s       :     3.462168  s :     3.462168
      pz      :     1.547987  p :     4.824019
      px      :     1.489822
      py      :     1.786210
      dz2     :     0.014853  d :     0.030620
      dxz     :     0.004136
      dyz     :     0.001346
      dx2y2   :     0.004738
      dxy     :     0.005546
      f0      :     0.000366  f :     0.001994
      f+1     :     0.000742
      f-1     :     0.000201
      f+2     :     0.000040
      f-2     :     0.000047
      f+3     :     0.000066
      f-3     :     0.000532
 10 H s       :     0.671566  s :     0.671566
      pz      :     0.079679  p :     0.159727
      px      :     0.036988
      py      :     0.043061
 11 H s       :     0.659257  s :     0.659257
      pz      :     0.029168  p :     0.185335
      px      :     0.103621
      py      :     0.052546
 12 O s       :     3.457881  s :     3.457881
      pz      :     1.517395  p :     4.780887
      px      :     1.534536
      py      :     1.728957
      dz2     :     0.016869  d :     0.033544
      dxz     :     0.001997
      dyz     :     0.001965
      dx2y2   :     0.003685
      dxy     :     0.009029
      f0      :     0.000460  f :     0.002195
      f+1     :     0.000591
      f-1     :     0.000342
      f+2     :     0.000022
      f-2     :     0.000049
      f+3     :     0.000027
      f-3     :     0.000705
 13 H s       :     0.668887  s :     0.668887
      pz      :     0.081353  p :     0.158778
      px      :     0.035649
      py      :     0.041776
 14 H s       :     0.662986  s :     0.662986
      pz      :     0.029599  p :     0.157645
      px      :     0.073157
      py      :     0.054889
 15 O s       :     3.468155  s :     3.468155
      pz      :     1.534384  p :     4.837975
      px      :     1.785608
      py      :     1.517982
      dz2     :     0.015536  d :     0.032411
      dxz     :     0.002364
      dyz     :     0.001877
      dx2y2   :     0.002422
      dxy     :     0.010212
      f0      :     0.000441  f :     0.002147
      f+1     :     0.000319
      f-1     :     0.000567
      f+2     :     0.000024
      f-2     :     0.000045
      f+3     :     0.000747
      f-3     :     0.000003
 16 H s       :     0.674313  s :     0.674313
      pz      :     0.092653  p :     0.170444
      px      :     0.042044
      py      :     0.035747
 17 H s       :     0.683717  s :     0.683717
      pz      :     0.031315  p :     0.157082
      px      :     0.054753
      py      :     0.071013


                      *****************************
                      * MAYER POPULATION ANALYSIS *
                      *****************************

  NA   - Mulliken gross atomic population
  ZA   - Total nuclear charge
  QA   - Mulliken gross atomic charge
  VA   - Mayer's total valence
  BVA  - Mayer's bonded valence
  FA   - Mayer's free valence

  ATOM       NA         ZA         QA         VA         BVA        FA
  0 O      8.7673     8.0000    -0.7673     1.7015     1.7015     0.0000
  1 H      0.6465     1.0000     0.3535     0.8917     0.8917    -0.0000
  2 H      0.6036     1.0000     0.3964     0.8763     0.8763    -0.0000
  3 O      8.7448     8.0000    -0.7448     1.7101     1.7101    -0.0000
  4 H      0.6770     1.0000     0.3230     0.9103     0.9103    -0.0000
  5 H      0.6118     1.0000     0.3882     0.8939     0.8939     0.0000
  6 O      8.7609     8.0000    -0.7609     1.7256     1.7256    -0.0000
  7 H      0.6529     1.0000     0.3471     0.9023     0.9023    -0.0000
  8 H      0.5836     1.0000     0.4164     0.8628     0.8628    -0.0000
  9 O      8.7519     8.0000    -0.7519     1.7337     1.7337    -0.0000
 10 H      0.6380     1.0000     0.3620     0.8838     0.8838    -0.0000
 11 H      0.5975     1.0000     0.4025     0.8700     0.8700     0.0000
 12 O      8.7043     8.0000    -0.7043     1.7820     1.7820     0.0000
 13 H      0.6344     1.0000     0.3656     0.8830     0.8830     0.0000
 14 H      0.6249     1.0000     0.3751     0.8761     0.8761     0.0000
 15 O      8.7177     8.0000    -0.7177     1.7607     1.7607    -0.0000
 16 H      0.6145     1.0000     0.3855     0.8742     0.8742    -0.0000
 17 H      0.6684     1.0000     0.3316     0.9046     0.9046    -0.0000

  Mayer bond orders larger than 0.100000
B(  0-O ,  1-H ) :   0.8835 B(  0-O ,  2-H ) :   0.8053 B(  3-O ,  4-H ) :   0.9050 
B(  3-O ,  5-H ) :   0.8129 B(  6-O ,  7-H ) :   0.8796 B(  6-O ,  8-H ) :   0.8081 
B(  9-O , 10-H ) :   0.8764 B(  9-O , 11-H ) :   0.8166 B( 12-O , 13-H ) :   0.8731 
B( 12-O , 14-H ) :   0.8656 B( 15-O , 16-H ) :   0.8540 B( 15-O , 17-H ) :   0.8995 


-------
TIMINGS
-------

Total SCF time: 0 days 0 hours 0 min 11 sec 

Total time                  ....      11.989 sec
Sum of individual times     ....      11.738 sec  ( 97.9%)

Fock matrix formation       ....      11.371 sec  ( 94.8%)
Diagonalization             ....       0.077 sec  (  0.6%)
Density matrix formation    ....       0.010 sec  (  0.1%)
Population analysis         ....       0.019 sec  (  0.2%)
Initial guess               ....       0.143 sec  (  1.2%)
Orbital Transformation      ....       0.000 sec  (  0.0%)
Orbital Orthonormalization  ....       0.000 sec  (  0.0%)
DIIS solution               ....       0.027 sec  (  0.2%)
SOSCF solution              ....       0.034 sec  (  0.3%)


           ************************************************************
           *        Program running with 6 parallel MPI-processes     *
           *              working on a common directory               *
           ************************************************************

------------------------------------------------------------------------------
                                ORCA  MP2 
------------------------------------------------------------------------------

Freezing NCore=12 chemical core electrons
MP2 will be done in the AO integral direct mode
The Q1-step will be done using symmetric double matrices
Dimension of the basis                    ...  258
Memory devoted for MP2                    ... 8000 MB   
Memory needed for all in one shot         ...  264 MB
Number of MOs that can be treated together...  120      
MP2 density construction                  ... relaxed
The MP2 gradient is requested => amplitudes will be stored on disk
Total number of MOs              ...   24
Number of MOs treated per batch  ...    4 
Number of batches necessary      ...    1 
OPERATORS   0/  0 PASS   0
-----------------------------------------------
 MP2 CORRELATION ENERGY   :     -1.550629126 Eh
-----------------------------------------------


---------------------
MP2 DENSITY FORMATION
---------------------

Completing the external part of the density      ... done
Storing the unrelaxed density                    ... done

Calculating G(D)                                 ... done
Completing the Lagrangian                        ... done
Solving the Z-vector equations                   ... 

------------------------------------------------------------------------------
                           ORCA CP-SCF CALCULATION
------------------------------------------------------------------------------

Input orbitals are from        ... 12h2o.su.etal.mol2,4,5,7,8,9-orca.engrad-mp2.def2tzvp.frozencore.gbw
Input Perturbation             ... 12h2o.su.etal.mol2,4,5,7,8,9-orca.engrad-mp2.def2tzvp.frozencore.pin.tmp
Wavefunction output            ... 12h2o.su.etal.mol2,4,5,7,8,9-orca.engrad-mp2.def2tzvp.frozencore.pout.tmp
Perturbation mode              ... Real perturbation (singlet)
Solver                         ... POPLE
Max. number of iterations      ... 128
Convergence tolerance          ... 1.000e-08
Integral handling              ... Direct
Number of perturbations        ... 1
Number of operators            ... 1
Orbital ranges used for CP-SCF:
 Operator 0:  Orbitals   0... 29  to  30...257
Variables per vector in CP-SCF ... 6840
Number of vectors sought       ... 1
     CP-SCF ITERATION   0: 
     CP-SCF ITERATION   1:      0.000807407115
     CP-SCF ITERATION   2:      0.000020751111
     CP-SCF ITERATION   3:      0.000000979130
     CP-SCF ITERATION   4:      0.000000106750
     CP-SCF ITERATION   5:      0.000000010800
     CP-SCF ITERATION   6:      0.000000000510
                                                 ... done
Finalizing the relaxed density                   ... done
Transforming P to the AO basis                   ... done
Storing the relaxed density                      ... done

------------------------------------
ENERGY WEIGHTED DENSITY FINALIZATION
------------------------------------

Gathering the parts of the W-matrix              ...                                                      done
Forming the Z-density                            ... done
Transforming Z to the AO basis                   ... done
Calculating G(Z)                                 ... done
Finalizing the W-matrix                          ...                                                      done
Transforming W to the AO basis and storing       ... done

                *********************************************
                * UNRELAXED MP2 DENSITY POPULATION ANALYSIS *
                *********************************************

------------------------------------------------------------------------------
                           ORCA POPULATION ANALYSIS
------------------------------------------------------------------------------
Input electron density              ... 12h2o.su.etal.mol2,4,5,7,8,9-orca.engrad-mp2.def2tzvp.frozencore.pmp2ur
BaseName (.gbw .S,...)              ... 12h2o.su.etal.mol2,4,5,7,8,9-orca.engrad-mp2.def2tzvp.frozencore

                    ********************************
                    * MULLIKEN POPULATION ANALYSIS *
                    ********************************

-----------------------
MULLIKEN ATOMIC CHARGES
-----------------------
   0 O :   -0.761161
   1 H :    0.351244
   2 H :    0.391924
   3 O :   -0.738975
   4 H :    0.320494
   5 H :    0.383726
   6 O :   -0.754309
   7 H :    0.344035
   8 H :    0.413210
   9 O :   -0.744955
  10 H :    0.359547
  11 H :    0.398292
  12 O :   -0.698086
  13 H :    0.363067
  14 H :    0.372596
  15 O :   -0.712374
  16 H :    0.382589
  17 H :    0.329138
Sum of atomic charges:   -0.0000000

--------------------------------
MULLIKEN REDUCED ORBITAL CHARGES
--------------------------------
  0 O s       :     3.803715  s :     3.803715
      pz      :     1.698305  p :     4.903070
      px      :     1.800682
      py      :     1.404083
      dz2     :     0.009143  d :     0.050364
      dxz     :     0.010903
      dyz     :     0.009555
      dx2y2   :     0.007819
      dxy     :     0.012944
      f0      :     0.000451  f :     0.004012
      f+1     :     0.000543
      f-1     :     0.000676
      f+2     :     0.000440
      f-2     :     0.000715
      f+3     :     0.000725
      f-3     :     0.000464
  1 H s       :     0.601398  s :     0.601398
      pz      :     0.017289  p :     0.047358
      px      :     0.015717
      py      :     0.014352
  2 H s       :     0.549830  s :     0.549830
      pz      :     0.011207  p :     0.058246
      px      :     0.014966
      py      :     0.032072
  3 O s       :     3.807950  s :     3.807950
      pz      :     1.505102  p :     4.875245
      px      :     1.863255
      py      :     1.506888
      dz2     :     0.016658  d :     0.051784
      dxz     :     0.008051
      dyz     :     0.008336
      dx2y2   :     0.008486
      dxy     :     0.010254
      f0      :     0.000564  f :     0.003995
      f+1     :     0.000491
      f-1     :     0.000818
      f+2     :     0.000437
      f-2     :     0.000406
      f+3     :     0.000799
      f-3     :     0.000480
  4 H s       :     0.632591  s :     0.632591
      pz      :     0.018326  p :     0.046915
      px      :     0.015491
      py      :     0.013099
  5 H s       :     0.560523  s :     0.560523
      pz      :     0.010140  p :     0.055751
      px      :     0.015974
      py      :     0.029637
  6 O s       :     3.797713  s :     3.797713
      pz      :     1.614508  p :     4.901277
      px      :     1.837178
      py      :     1.449591
      dz2     :     0.015903  d :     0.051345
      dxz     :     0.007800
      dyz     :     0.007920
      dx2y2   :     0.009068
      dxy     :     0.010653
      f0      :     0.000552  f :     0.003975
      f+1     :     0.000490
      f-1     :     0.000809
      f+2     :     0.000435
      f-2     :     0.000404
      f+3     :     0.000808
      f-3     :     0.000477
  7 H s       :     0.612096  s :     0.612096
      pz      :     0.010433  p :     0.043870
      px      :     0.014927
      py      :     0.018510
  8 H s       :     0.537023  s :     0.537023
      pz      :     0.025853  p :     0.049767
      px      :     0.012721
      py      :     0.011193
  9 O s       :     3.798168  s :     3.798168
      pz      :     1.543693  p :     4.890541
      px      :     1.517343
      py      :     1.829505
      dz2     :     0.017036  d :     0.052287
      dxz     :     0.008340
      dyz     :     0.007788
      dx2y2   :     0.009010
      dxy     :     0.010113
      f0      :     0.000552  f :     0.003958
      f+1     :     0.000832
      f-1     :     0.000486
      f+2     :     0.000434
      f-2     :     0.000409
      f+3     :     0.000470
      f-3     :     0.000776
 10 H s       :     0.595043  s :     0.595043
      pz      :     0.019040  p :     0.045410
      px      :     0.012182
      py      :     0.014189
 11 H s       :     0.547168  s :     0.547168
      pz      :     0.010123  p :     0.054540
      px      :     0.029086
      py      :     0.015331
 12 O s       :     3.794999  s :     3.794999
      pz      :     1.516795  p :     4.846087
      px      :     1.552120
      py      :     1.777171
      dz2     :     0.017692  d :     0.052970
      dxz     :     0.006636
      dyz     :     0.008024
      dx2y2   :     0.008134
      dxy     :     0.012485
      f0      :     0.000628  f :     0.004030
      f+1     :     0.000758
      f-1     :     0.000539
      f+2     :     0.000413
      f-2     :     0.000423
      f+3     :     0.000428
      f-3     :     0.000842
 13 H s       :     0.591529  s :     0.591529
      pz      :     0.019485  p :     0.045405
      px      :     0.012382
      py      :     0.013537
 14 H s       :     0.582646  s :     0.582646
      pz      :     0.010837  p :     0.044758
      px      :     0.018693
      py      :     0.015228
 15 O s       :     3.806739  s :     3.806739
      pz      :     1.542081  p :     4.849271
      px      :     1.802539
      py      :     1.504651
      dz2     :     0.016837  d :     0.052310
      dxz     :     0.008508
      dyz     :     0.006611
      dx2y2   :     0.007599
      dxy     :     0.012755
      f0      :     0.000630  f :     0.004054
      f+1     :     0.000540
      f-1     :     0.000741
      f+2     :     0.000414
      f-2     :     0.000420
      f+3     :     0.000871
      f-3     :     0.000436
 16 H s       :     0.567019  s :     0.567019
      pz      :     0.024248  p :     0.050392
      px      :     0.013899
      py      :     0.012245
 17 H s       :     0.624117  s :     0.624117
      pz      :     0.011860  p :     0.046745
      px      :     0.016622
      py      :     0.018263


                     *******************************
                     * LOEWDIN POPULATION ANALYSIS *
                     *******************************

----------------------
LOEWDIN ATOMIC CHARGES
----------------------
   0 O :   -0.340465
   1 H :    0.156036
   2 H :    0.150540
   3 O :   -0.362611
   4 H :    0.148915
   5 H :    0.149626
   6 O :   -0.290236
   7 H :    0.166487
   8 H :    0.164346
   9 O :   -0.314678
  10 H :    0.167237
  11 H :    0.152862
  12 O :   -0.270191
  13 H :    0.170851
  14 H :    0.177952
  15 O :   -0.337735
  16 H :    0.153340
  17 H :    0.157723

-------------------------------
LOEWDIN REDUCED ORBITAL CHARGES
-------------------------------
  0 O s       :     3.456771  s :     3.456771
      pz      :     1.664899  p :     4.821169
      px      :     1.770752
      py      :     1.385519
      dz2     :     0.010277  d :     0.057768
      dxz     :     0.011359
      dyz     :     0.012238
      dx2y2   :     0.008928
      dxy     :     0.014965
      f0      :     0.000464  f :     0.004757
      f+1     :     0.000646
      f-1     :     0.000840
      f+2     :     0.000411
      f-2     :     0.001021
      f+3     :     0.000904
      f-3     :     0.000472
  1 H s       :     0.676083  s :     0.676083
      pz      :     0.066919  p :     0.167881
      px      :     0.054256
      py      :     0.046706
  2 H s       :     0.652125  s :     0.652125
      pz      :     0.034367  p :     0.197335
      px      :     0.048586
      py      :     0.114382
  3 O s       :     3.469256  s :     3.469256
      pz      :     1.521564  p :     4.829579
      px      :     1.827221
      py      :     1.480794
      dz2     :     0.021009  d :     0.058967
      dxz     :     0.007153
      dyz     :     0.009899
      dx2y2   :     0.009447
      dxy     :     0.011459
      f0      :     0.000816  f :     0.004809
      f+1     :     0.000576
      f-1     :     0.001195
      f+2     :     0.000418
      f-2     :     0.000417
      f+3     :     0.000945
      f-3     :     0.000442
  4 H s       :     0.688955  s :     0.688955
      pz      :     0.079554  p :     0.162129
      px      :     0.044684
      py      :     0.037892
  5 H s       :     0.660814  s :     0.660814
      pz      :     0.029491  p :     0.189559
      px      :     0.053465
      py      :     0.106604
  6 O s       :     3.452798  s :     3.452798
      pz      :     1.559940  p :     4.772897
      px      :     1.772518
      py      :     1.440439
      dz2     :     0.020128  d :     0.059739
      dxz     :     0.006897
      dyz     :     0.008869
      dx2y2   :     0.011215
      dxy     :     0.012630
      f0      :     0.000740  f :     0.004802
      f+1     :     0.000594
      f-1     :     0.001138
      f+2     :     0.000410
      f-2     :     0.000415
      f+3     :     0.001051
      f-3     :     0.000454
  7 H s       :     0.675665  s :     0.675665
      pz      :     0.031878  p :     0.157848
      px      :     0.050386
      py      :     0.075584
  8 H s       :     0.658264  s :     0.658264
      pz      :     0.098559  p :     0.177390
      px      :     0.042566
      py      :     0.036265
  9 O s       :     3.458371  s :     3.458371
      pz      :     1.538313  p :     4.792438
      px      :     1.480718
      py      :     1.773407
      dz2     :     0.020661  d :     0.059084
      dxz     :     0.009553
      dyz     :     0.006884
      dx2y2   :     0.010560
      dxy     :     0.011425
      f0      :     0.000780  f :     0.004784
      f+1     :     0.001179
      f-1     :     0.000590
      f+2     :     0.000414
      f-2     :     0.000421
      f+3     :     0.000451
      f-3     :     0.000950
 10 H s       :     0.669895  s :     0.669895
      pz      :     0.081239  p :     0.162868
      px      :     0.037793
      py      :     0.043836
 11 H s       :     0.659104  s :     0.659104
      pz      :     0.029978  p :     0.188033
      px      :     0.104679
      py      :     0.053376
 12 O s       :     3.454006  s :     3.454006
      pz      :     1.507967  p :     4.749651
      px      :     1.525118
      py      :     1.716566
      dz2     :     0.022633  d :     0.061560
      dxz     :     0.007314
      dyz     :     0.007446
      dx2y2   :     0.009270
      dxy     :     0.014896
      f0      :     0.000880  f :     0.004974
      f+1     :     0.001010
      f-1     :     0.000741
      f+2     :     0.000389
      f-2     :     0.000422
      f+3     :     0.000407
      f-3     :     0.001125
 13 H s       :     0.667338  s :     0.667338
      pz      :     0.082851  p :     0.161811
      px      :     0.036380
      py      :     0.042580
 14 H s       :     0.661475  s :     0.661475
      pz      :     0.030316  p :     0.160573
      px      :     0.074392
      py      :     0.055864
 15 O s       :     3.464432  s :     3.464432
      pz      :     1.524901  p :     4.808273
      px      :     1.774621
      py      :     1.508751
      dz2     :     0.021325  d :     0.060128
      dxz     :     0.007768
      dyz     :     0.007211
      dx2y2   :     0.007880
      dxy     :     0.015945
      f0      :     0.000862  f :     0.004901
      f+1     :     0.000716
      f-1     :     0.000988
      f+2     :     0.000388
      f-2     :     0.000417
      f+3     :     0.001157
      f-3     :     0.000375
 16 H s       :     0.673292  s :     0.673292
      pz      :     0.094019  p :     0.173368
      px      :     0.042864
      py      :     0.036486
 17 H s       :     0.681829  s :     0.681829
      pz      :     0.032098  p :     0.160448
      px      :     0.055856
      py      :     0.072493


                      *****************************
                      * MAYER POPULATION ANALYSIS *
                      *****************************

  NA   - Mulliken gross atomic population
  ZA   - Total nuclear charge
  QA   - Mulliken gross atomic charge
  VA   - Mayer's total valence
  BVA  - Mayer's bonded valence
  FA   - Mayer's free valence

  ATOM       NA         ZA         QA         VA         BVA        FA
  0 O      8.7612     8.0000    -0.7612     2.0169     1.6232     0.3937
  1 H      0.6488     1.0000     0.3512     0.8974     0.8511     0.0464
  2 H      0.6081     1.0000     0.3919     0.8837     0.8378     0.0460
  3 O      8.7390     8.0000    -0.7390     2.0218     1.6299     0.3919
  4 H      0.6795     1.0000     0.3205     0.9167     0.8666     0.0501
  5 H      0.6163     1.0000     0.3837     0.9016     0.8554     0.0462
  6 O      8.7543     8.0000    -0.7543     2.0411     1.6470     0.3941
  7 H      0.6560     1.0000     0.3440     0.9092     0.8593     0.0499
  8 H      0.5868     1.0000     0.4132     0.8688     0.8266     0.0422
  9 O      8.7450     8.0000    -0.7450     2.0460     1.6544     0.3916
 10 H      0.6405     1.0000     0.3595     0.8897     0.8429     0.0468
 11 H      0.6017     1.0000     0.3983     0.8772     0.8321     0.0452
 12 O      8.6981     8.0000    -0.6981     2.0876     1.7017     0.3859
 13 H      0.6369     1.0000     0.3631     0.8889     0.8428     0.0461
 14 H      0.6274     1.0000     0.3726     0.8819     0.8365     0.0454
 15 O      8.7124     8.0000    -0.7124     2.0671     1.6797     0.3874
 16 H      0.6174     1.0000     0.3826     0.8803     0.8359     0.0444
 17 H      0.6709     1.0000     0.3291     0.9109     0.8619     0.0490

  Mayer bond orders larger than 0.100000
B(  0-O ,  1-H ) :   0.8435 B(  0-O ,  2-H ) :   0.7686 B(  3-O ,  4-H ) :   0.8618 
B(  3-O ,  5-H ) :   0.7768 B(  6-O ,  7-H ) :   0.8376 B(  6-O ,  8-H ) :   0.7736 
B(  9-O , 10-H ) :   0.8361 B(  9-O , 11-H ) :   0.7802 B( 12-O , 13-H ) :   0.8335 
B( 12-O , 14-H ) :   0.8266 B( 15-O , 16-H ) :   0.8162 B( 15-O , 17-H ) :   0.8572 



                *******************************************
                * RELAXED MP2 DENSITY POPULATION ANALYSIS *
                *******************************************

------------------------------------------------------------------------------
                           ORCA POPULATION ANALYSIS
------------------------------------------------------------------------------
Input electron density              ... 12h2o.su.etal.mol2,4,5,7,8,9-orca.engrad-mp2.def2tzvp.frozencore.pmp2re
BaseName (.gbw .S,...)              ... 12h2o.su.etal.mol2,4,5,7,8,9-orca.engrad-mp2.def2tzvp.frozencore

                    ********************************
                    * MULLIKEN POPULATION ANALYSIS *
                    ********************************

-----------------------
MULLIKEN ATOMIC CHARGES
-----------------------
   0 O :   -0.735784
   1 H :    0.344575
   2 H :    0.370786
   3 O :   -0.719040
   4 H :    0.314663
   5 H :    0.359187
   6 O :   -0.724704
   7 H :    0.335316
   8 H :    0.394591
   9 O :   -0.716420
  10 H :    0.353398
  11 H :    0.377977
  12 O :   -0.674950
  13 H :    0.356612
  14 H :    0.365430
  15 O :   -0.694955
  16 H :    0.369747
  17 H :    0.323570
Sum of atomic charges:   -0.0000000

--------------------------------
MULLIKEN REDUCED ORBITAL CHARGES
--------------------------------
  0 O s       :     3.805559  s :     3.805559
      pz      :     1.686416  p :     4.877801
      px      :     1.795070
      py      :     1.396314
      dz2     :     0.008972  d :     0.048479
      dxz     :     0.010594
      dyz     :     0.008996
      dx2y2   :     0.007706
      dxy     :     0.012211
      f0      :     0.000448  f :     0.003945
      f+1     :     0.000534
      f-1     :     0.000658
      f+2     :     0.000440
      f-2     :     0.000695
      f+3     :     0.000707
      f-3     :     0.000462
  1 H s       :     0.607327  s :     0.607327
      pz      :     0.017381  p :     0.048098
      px      :     0.016347
      py      :     0.014370
  2 H s       :     0.570692  s :     0.570692
      pz      :     0.011933  p :     0.058522
      px      :     0.015520
      py      :     0.031068
  3 O s       :     3.808362  s :     3.808362
      pz      :     1.498332  p :     4.856983
      px      :     1.855609
      py      :     1.503042
      dz2     :     0.015434  d :     0.049768
      dxz     :     0.008098
      dyz     :     0.008084
      dx2y2   :     0.008282
      dxy     :     0.009869
      f0      :     0.000551  f :     0.003927
      f+1     :     0.000486
      f-1     :     0.000790
      f+2     :     0.000437
      f-2     :     0.000405
      f+3     :     0.000780
      f-3     :     0.000479
  4 H s       :     0.637549  s :     0.637549
      pz      :     0.017684  p :     0.047788
      px      :     0.016533
      py      :     0.013571
  5 H s       :     0.584740  s :     0.584740
      pz      :     0.010781  p :     0.056073
      px      :     0.016498
      py      :     0.028794
  6 O s       :     3.798636  s :     3.798636
      pz      :     1.607844  p :     4.872808
      px      :     1.822313
      py      :     1.442652
      dz2     :     0.014909  d :     0.049357
      dxz     :     0.007846
      dyz     :     0.007679
      dx2y2   :     0.008764
      dxy     :     0.010158
      f0      :     0.000540  f :     0.003902
      f+1     :     0.000484
      f-1     :     0.000780
      f+2     :     0.000434
      f-2     :     0.000402
      f+3     :     0.000787
      f-3     :     0.000475
  7 H s       :     0.620029  s :     0.620029
      pz      :     0.011240  p :     0.044655
      px      :     0.015734
      py      :     0.017682
  8 H s       :     0.555144  s :     0.555144
      pz      :     0.025223  p :     0.050264
      px      :     0.013512
      py      :     0.011529
  9 O s       :     3.797811  s :     3.797811
      pz      :     1.538498  p :     4.864276
      px      :     1.515378
      py      :     1.810399
      dz2     :     0.015882  d :     0.050442
      dxz     :     0.008107
      dyz     :     0.007844
      dx2y2   :     0.008829
      dxy     :     0.009780
      f0      :     0.000538  f :     0.003890
      f+1     :     0.000806
      f-1     :     0.000481
      f+2     :     0.000433
      f-2     :     0.000407
      f+3     :     0.000468
      f-3     :     0.000757
 10 H s       :     0.600518  s :     0.600518
      pz      :     0.018376  p :     0.046084
      px      :     0.012571
      py      :     0.015138
 11 H s       :     0.567232  s :     0.567232
      pz      :     0.010782  p :     0.054791
      px      :     0.028211
      py      :     0.015799
 12 O s       :     3.797220  s :     3.797220
      pz      :     1.512480  p :     4.822933
      px      :     1.548638
      py      :     1.761815
      dz2     :     0.016332  d :     0.050844
      dxz     :     0.006584
      dyz     :     0.008012
      dx2y2   :     0.008089
      dxy     :     0.011826
      f0      :     0.000609  f :     0.003953
      f+1     :     0.000736
      f-1     :     0.000529
      f+2     :     0.000413
      f-2     :     0.000421
      f+3     :     0.000428
      f-3     :     0.000816
 13 H s       :     0.597372  s :     0.597372
      pz      :     0.018729  p :     0.046016
      px      :     0.012904
      py      :     0.014382
 14 H s       :     0.589265  s :     0.589265
      pz      :     0.011472  p :     0.045305
      px      :     0.018168
      py      :     0.015664
 15 O s       :     3.808748  s :     3.808748
      pz      :     1.538522  p :     4.832096
      px      :     1.796746
      py      :     1.496827
      dz2     :     0.015600  d :     0.050130
      dxz     :     0.008484
      dyz     :     0.006569
      dx2y2   :     0.007510
      dxy     :     0.011966
      f0      :     0.000614  f :     0.003981
      f+1     :     0.000530
      f-1     :     0.000720
      f+2     :     0.000415
      f-2     :     0.000419
      f+3     :     0.000847
      f-3     :     0.000437
 16 H s       :     0.579346  s :     0.579346
      pz      :     0.023385  p :     0.050907
      px      :     0.014798
      py      :     0.012724
 17 H s       :     0.628851  s :     0.628851
      pz      :     0.012623  p :     0.047579
      px      :     0.017224
      py      :     0.017733


                     *******************************
                     * LOEWDIN POPULATION ANALYSIS *
                     *******************************

----------------------
LOEWDIN ATOMIC CHARGES
----------------------
   0 O :   -0.337208
   1 H :    0.157991
   2 H :    0.143594
   3 O :   -0.364274
   4 H :    0.150546
   5 H :    0.142000
   6 O :   -0.282078
   7 H :    0.166824
   8 H :    0.159036
   9 O :   -0.308725
  10 H :    0.168771
  11 H :    0.146167
  12 O :   -0.264799
  13 H :    0.172017
  14 H :    0.179061
  15 O :   -0.338804
  16 H :    0.149954
  17 H :    0.159927

-------------------------------
LOEWDIN REDUCED ORBITAL CHARGES
-------------------------------
  0 O s       :     3.458191  s :     3.458191
      pz      :     1.658955  p :     4.817115
      px      :     1.769182
      py      :     1.388979
      dz2     :     0.010308  d :     0.057108
      dxz     :     0.011292
      dyz     :     0.011902
      dx2y2   :     0.008924
      dxy     :     0.014682
      f0      :     0.000467  f :     0.004794
      f+1     :     0.000647
      f-1     :     0.000851
      f+2     :     0.000411
      f-2     :     0.001022
      f+3     :     0.000919
      f-3     :     0.000476
  1 H s       :     0.674148  s :     0.674148
      pz      :     0.066773  p :     0.167860
      px      :     0.054850
      py      :     0.046237
  2 H s       :     0.658776  s :     0.658776
      pz      :     0.034928  p :     0.197630
      px      :     0.049178
      py      :     0.113524
  3 O s       :     3.471114  s :     3.471114
      pz      :     1.522879  p :     4.830288
      px      :     1.823601
      py      :     1.483809
      dz2     :     0.020374  d :     0.058034
      dxz     :     0.007221
      dyz     :     0.009658
      dx2y2   :     0.009398
      dxy     :     0.011382
      f0      :     0.000813  f :     0.004839
      f+1     :     0.000576
      f-1     :     0.001208
      f+2     :     0.000420
      f-2     :     0.000416
      f+3     :     0.000961
      f-3     :     0.000445
  4 H s       :     0.686747  s :     0.686747
      pz      :     0.079095  p :     0.162707
      px      :     0.045591
      py      :     0.038021
  5 H s       :     0.667812  s :     0.667812
      pz      :     0.029857  p :     0.190188
      px      :     0.054093
      py      :     0.106239
  6 O s       :     3.453901  s :     3.453901
      pz      :     1.558532  p :     4.764367
      px      :     1.762505
      py      :     1.443330
      dz2     :     0.019853  d :     0.058985
      dxz     :     0.006980
      dyz     :     0.008709
      dx2y2   :     0.011062
      dxy     :     0.012381
      f0      :     0.000744  f :     0.004824
      f+1     :     0.000596
      f-1     :     0.001147
      f+2     :     0.000412
      f-2     :     0.000414
      f+3     :     0.001056
      f-3     :     0.000456
  7 H s       :     0.674962  s :     0.674962
      pz      :     0.032482  p :     0.158214
      px      :     0.051028
      py      :     0.074703
  8 H s       :     0.663452  s :     0.663452
      pz      :     0.098069  p :     0.177512
      px      :     0.043231
      py      :     0.036212
  9 O s       :     3.459619  s :     3.459619
      pz      :     1.540032  p :     4.785908
      px      :     1.483775
      py      :     1.762101
      dz2     :     0.020117  d :     0.058385
      dxz     :     0.009337
      dyz     :     0.006954
      dx2y2   :     0.010583
      dxy     :     0.011394
      f0      :     0.000777  f :     0.004813
      f+1     :     0.001190
      f-1     :     0.000592
      f+2     :     0.000415
      f-2     :     0.000420
      f+3     :     0.000454
      f-3     :     0.000965
 10 H s       :     0.668342  s :     0.668342
      pz      :     0.080500  p :     0.162887
      px      :     0.037897
      py      :     0.044490
 11 H s       :     0.665270  s :     0.665270
      pz      :     0.030422  p :     0.188562
      px      :     0.104260
      py      :     0.053880
 12 O s       :     3.455305  s :     3.455305
      pz      :     1.510256  p :     4.744010
      px      :     1.526997
      py      :     1.706758
      dz2     :     0.021897  d :     0.060495
      dxz     :     0.007178
      dyz     :     0.007485
      dx2y2   :     0.009321
      dxy     :     0.014615
      f0      :     0.000879  f :     0.004989
      f+1     :     0.001016
      f-1     :     0.000741
      f+2     :     0.000391
      f-2     :     0.000422
      f+3     :     0.000408
      f-3     :     0.001132
 13 H s       :     0.666149  s :     0.666149
      pz      :     0.082012  p :     0.161834
      px      :     0.036548
      py      :     0.043274
 14 H s       :     0.660574  s :     0.660574
      pz      :     0.030616  p :     0.160365
      px      :     0.073556
      py      :     0.056192
 15 O s       :     3.465960  s :     3.465960
      pz      :     1.526031  p :     4.809004
      px      :     1.772634
      py      :     1.510339
      dz2     :     0.020702  d :     0.058921
      dxz     :     0.007805
      dyz     :     0.007087
      dx2y2   :     0.007800
      dxy     :     0.015526
      f0      :     0.000866  f :     0.004919
      f+1     :     0.000714
      f-1     :     0.000995
      f+2     :     0.000390
      f-2     :     0.000416
      f+3     :     0.001163
      f-3     :     0.000375
 16 H s       :     0.676322  s :     0.676322
      pz      :     0.093180  p :     0.173724
      px      :     0.043763
      py      :     0.036781
 17 H s       :     0.679240  s :     0.679240
      pz      :     0.032539  p :     0.160833
      px      :     0.056421
      py      :     0.071874


                      *****************************
                      * MAYER POPULATION ANALYSIS *
                      *****************************

  NA   - Mulliken gross atomic population
  ZA   - Total nuclear charge
  QA   - Mulliken gross atomic charge
  VA   - Mayer's total valence
  BVA  - Mayer's bonded valence
  FA   - Mayer's free valence

  ATOM       NA         ZA         QA         VA         BVA        FA
  0 O      8.7358     8.0000    -0.7358     2.0416     1.6536     0.3880
  1 H      0.6554     1.0000     0.3446     0.9020     0.8556     0.0464
  2 H      0.6292     1.0000     0.3708     0.9090     0.8638     0.0453
  3 O      8.7190     8.0000    -0.7190     2.0297     1.6432     0.3865
  4 H      0.6853     1.0000     0.3147     0.9203     0.8701     0.0502
  5 H      0.6408     1.0000     0.3592     0.9349     0.8898     0.0451
  6 O      8.7247     8.0000    -0.7247     2.0891     1.7016     0.3875
  7 H      0.6647     1.0000     0.3353     0.9201     0.8707     0.0494
  8 H      0.6054     1.0000     0.3946     0.8943     0.8528     0.0416
  9 O      8.7164     8.0000    -0.7164     2.0800     1.6943     0.3857
 10 H      0.6466     1.0000     0.3534     0.8943     0.8475     0.0468
 11 H      0.6220     1.0000     0.3780     0.9054     0.8611     0.0443
 12 O      8.6749     8.0000    -0.6749     2.1181     1.7380     0.3800
 13 H      0.6434     1.0000     0.3566     0.8953     0.8493     0.0460
 14 H      0.6346     1.0000     0.3654     0.8890     0.8438     0.0452
 15 O      8.6950     8.0000    -0.6950     2.0806     1.6983     0.3823
 16 H      0.6303     1.0000     0.3697     0.8977     0.8537     0.0441
 17 H      0.6764     1.0000     0.3236     0.9147     0.8656     0.0491

  Mayer bond orders larger than 0.100000
B(  0-O ,  1-H ) :   0.8467 B(  0-O ,  2-H ) :   0.7680 B(  3-O ,  4-H ) :   0.8647 
B(  3-O ,  5-H ) :   0.7779 B(  5-H ,  9-O ) :   0.1078 B(  6-O ,  7-H ) :   0.8393 
B(  6-O ,  8-H ) :   0.7774 B(  9-O , 10-H ) :   0.8390 B(  9-O , 11-H ) :   0.7806 
B( 12-O , 13-H ) :   0.8366 B( 12-O , 14-H ) :   0.8302 B( 15-O , 16-H ) :   0.8215 
B( 15-O , 17-H ) :   0.8603 


----------------------------------
MP2 DERIVATIVE INTEGRAL GENERATION
----------------------------------


Input Wavefunction Amplitudes       ... 12h2o.su.etal.mol2,4,5,7,8,9-orca.engrad-mp2.def2tzvp.frozencore.mp2tsaa.tmp
Input Correlated Electron Density   ... 12h2o.su.etal.mol2,4,5,7,8,9-orca.engrad-mp2.def2tzvp.frozencore.pmp2re
Input Energy Weighted Density       ... 12h2o.su.etal.mol2,4,5,7,8,9-orca.engrad-mp2.def2tzvp.frozencore.wmp2.tmp
Input SCF Electron Density          ... 12h2o.su.etal.mol2,4,5,7,8,9-orca.engrad-mp2.def2tzvp.frozencore.scfp

One-Electron Terms    ...
                        ... One-Electron Terms done
Prescreening matrices              ... done

Batch handling in the gradient evaluation:
Memory available                      ... 8000.0 MB
Memory per occupied orbital in Q2     ...   12.2 MB
Memory per occupied orbital in Q3     ...    0.1 MB
Total memory requirement per |i>      ...   12.3 MB
Max. Number of orbitals possible      ...    651
Number of orbitals treated per batch  ...     24
Number of batches to be done          ...      1
Batch   0: i=    6 ...    29

---------------------------------------
MP2 TOTAL ENERGY:     -457.923414709 Eh
---------------------------------------

The final MP2 gradient
  0:  -0.00643878  -0.00753440  -0.00492444
  1:  -0.00005295  -0.00039631   0.00079836
  2:   0.00613605   0.01568073   0.00394644
  3:  -0.00262480  -0.00013666   0.01296531
  4:   0.00135641   0.00232802  -0.01100353
  5:  -0.00053436  -0.00306993   0.00050836
  6:  -0.01004376  -0.01777675  -0.00128588
  7:   0.00746016   0.01623404  -0.00121741
  8:   0.00115556   0.00021585   0.00729867
  9:  -0.00120642   0.00083287  -0.01049116
 10:  -0.00179541   0.00056924   0.00756296
 11:   0.00665183   0.00025360   0.00005304
 12:   0.00559645  -0.00830807  -0.00944956
 13:   0.00050454  -0.00280361   0.00704246
 14:  -0.00742917   0.00340313   0.00026951
 15:  -0.00684295  -0.00876005   0.00232690
 16:   0.00174802  -0.00081449  -0.00426877
 17:   0.00635959   0.01008281  -0.00013125

-----------------------------------
NORM OF THE MP2 GRADIENT:  0.048519
-----------------------------------

-------------------------   --------------------
FINAL SINGLE POINT ENERGY      -457.923414709318
-------------------------   --------------------


                            ***************************************
                            *     ORCA property calculations      *
                            ***************************************

                                    ---------------------
                                    Active property flags
                                    ---------------------
   (+) Dipole Moment


------------------------------------------------------------------------------
                       ORCA ELECTRIC PROPERTIES CALCULATION
------------------------------------------------------------------------------

Dipole Moment Calculation                       ... on
Quadrupole Moment Calculation                   ... off
Polarizability Calculation                      ... off
GBWName                                         ... 12h2o.su.etal.mol2,4,5,7,8,9-orca.engrad-mp2.def2tzvp.frozencore.gbw
Electron density file                           ... 12h2o.su.etal.mol2,4,5,7,8,9-orca.engrad-mp2.def2tzvp.frozencore.scfp
The origin for moment calculation is the CENTER OF MASS  = ( 0.555224, -1.143828 -0.885083)

-------------
DIPOLE MOMENT
-------------
                                X             Y             Z
Electronic contribution:      0.01448      -0.24646      -0.18096
Nuclear contribution   :      1.24423       0.87566      -1.40687
                        -----------------------------------------
Total Dipole Moment    :      1.25871       0.62920      -1.58784
                        -----------------------------------------
Magnitude (a.u.)       :      2.12167
Magnitude (Debye)      :      5.39285



--------------------
Rotational spectrum 
--------------------
 
Rotational constants in cm-1:     0.051710     0.030542     0.024819 
Rotational constants in MHz :  1550.239232   915.640307   744.058191 

 Dipole components along the rotational axes: 
x,y,z [a.u.] :    -1.939025    -0.264726    -0.819498 
x,y,z [Debye]:    -4.928610    -0.672881    -2.083000 

 

                         *** MP2 UNRELAXED DENSITY ***

------------------------------------------------------------------------------
                       ORCA ELECTRIC PROPERTIES CALCULATION
------------------------------------------------------------------------------

Dipole Moment Calculation                       ... on
Quadrupole Moment Calculation                   ... off
Polarizability Calculation                      ... off
GBWName                                         ... 12h2o.su.etal.mol2,4,5,7,8,9-orca.engrad-mp2.def2tzvp.frozencore.gbw
Electron density file                           ... 12h2o.su.etal.mol2,4,5,7,8,9-orca.engrad-mp2.def2tzvp.frozencore.pmp2ur
The origin for moment calculation is the CENTER OF MASS  = ( 0.555224, -1.143828 -0.885083)

-------------
DIPOLE MOMENT
-------------
                                X             Y             Z
Electronic contribution:      0.00290      -0.25748      -0.17119
Nuclear contribution   :      1.24423       0.87566      -1.40687
                        -----------------------------------------
Total Dipole Moment    :      1.24713       0.61818      -1.57806
                        -----------------------------------------
Magnitude (a.u.)       :      2.10422
Magnitude (Debye)      :      5.34850



--------------------
Rotational spectrum 
--------------------
 
Rotational constants in cm-1:     0.051710     0.030542     0.024819 
Rotational constants in MHz :  1550.239232   915.640307   744.058191 

 Dipole components along the rotational axes: 
x,y,z [a.u.] :    -1.924575    -0.266949    -0.807771 
x,y,z [Debye]:    -4.891881    -0.678531    -2.053191 

 

                           *** MP2 RELAXED DENSITY ***

------------------------------------------------------------------------------
                       ORCA ELECTRIC PROPERTIES CALCULATION
------------------------------------------------------------------------------

Dipole Moment Calculation                       ... on
Quadrupole Moment Calculation                   ... off
Polarizability Calculation                      ... off
GBWName                                         ... 12h2o.su.etal.mol2,4,5,7,8,9-orca.engrad-mp2.def2tzvp.frozencore.gbw
Electron density file                           ... 12h2o.su.etal.mol2,4,5,7,8,9-orca.engrad-mp2.def2tzvp.frozencore.pmp2re
The origin for moment calculation is the CENTER OF MASS  = ( 0.555224, -1.143828 -0.885083)

-------------
DIPOLE MOMENT
-------------
                                X             Y             Z
Electronic contribution:     -0.00688      -0.26281      -0.17156
Nuclear contribution   :      1.24423       0.87566      -1.40687
                        -----------------------------------------
Total Dipole Moment    :      1.23735       0.61285      -1.57843
                        -----------------------------------------
Magnitude (a.u.)       :      2.09716
Magnitude (Debye)      :      5.33054



--------------------
Rotational spectrum 
--------------------
 
Rotational constants in cm-1:     0.051710     0.030542     0.024819 
Rotational constants in MHz :  1550.239232   915.640307   744.058191 

 Dipole components along the rotational axes: 
x,y,z [a.u.] :    -1.921427    -0.266050    -0.797118 
x,y,z [Debye]:    -4.883878    -0.676245    -2.026112 

 

Timings for individual modules:

Sum of individual times         ...       66.011 sec (=   1.100 min)
GTO integral calculation        ...        0.940 sec (=   0.016 min)   1.4 %
SCF iterations                  ...       12.650 sec (=   0.211 min)  19.2 %
MP2 module                      ...       52.422 sec (=   0.874 min)  79.4 %
                             ****ORCA TERMINATED NORMALLY****
TOTAL RUN TIME: 0 days 0 hours 1 minutes 7 seconds 5 msec
