17
Energy:   -406.37644811
O   -1.01290851  -1.89049791   0.59857190
H   -0.16587893  -1.80267863   1.03567661
H   -0.96143289  -1.29229397  -0.14690388
O   -1.46752613   0.41375111   2.01175608
H   -0.81138426   0.95629097   1.57430870
H   -1.45903660  -0.41124293   1.52642670
O   -0.55566831   1.46839754  -3.62201311
H   -0.96703903   0.89269287  -2.97736584
H    0.29636435   1.68350858  -3.24254053
O    1.45967320  -0.94018422   2.18193628
H    0.99970213  -0.10415336   2.25750653
H    1.78816535  -0.95296231   1.28295826
S    0.83874398   0.56340362  -0.70373212
O    1.43178231   1.46680225  -1.72953739
O    0.57974614   1.33289893   0.54562655
O   -0.44307838   0.00317587  -1.21673927
O    1.78652584  -0.54926259  -0.41427838
