17
Energy:   -402.85566771
O   -1.35574584  -1.55154147  -0.41384408
H   -1.56468678  -0.65633489  -0.14704694
H   -0.67583563  -1.83202974   0.19875716
O    0.84298444  -1.97463777   1.22723498
H    0.47148702  -1.26124864   1.74617376
H    1.26006489  -1.53882636   0.48403637
O   -0.48079733   1.61377724  -2.05301612
H    0.32525228   1.77079051  -1.56122072
H   -1.13395104   1.40852342  -1.38406698
O    1.59993587  -0.47319160  -0.97260285
H    0.74461589  -0.59950653  -1.38333892
H    1.48560860   0.29348560  -0.41102721
S   -0.41737608   1.37694645   1.32608508
O   -1.53470884   1.03022021   0.40334545
O   -0.19988134   0.25769336   2.28528713
O    0.82612426   1.60365601   0.53715562
O   -0.76103841   2.61621622   2.07855213
