17
Energy:   -404.20063267
O   -2.38756722   1.50743373   2.65281652
H   -1.86026590   2.17813643   2.21883144
H   -2.04814380   0.67896860   2.31418822
O    0.01320291  -2.31136159  -0.15292521
H    0.83667746  -2.04592462  -0.56239406
H   -0.25063812  -1.55344980   0.36879261
O   -0.83826953  -0.85404299  -2.34893846
H   -0.55253891  -0.01349291  -1.99107616
H   -0.79829556  -1.45698182  -1.60657824
O    2.65281811  -0.36511143  -1.06461428
H    2.65825979   0.06651526  -0.21027206
H    1.89214006   0.00265152  -1.51444888
S    0.22296613   1.18923755   0.54043820
O    0.22374194   1.18939898  -0.94956159
O    1.62447932   1.09721897   1.03782470
O   -0.39853462   2.44913629   1.03691783
O   -0.55782214   0.02119599   1.03657186
