17
Energy:   -403.57908541
O   -2.49353998   0.80294698   0.54073212
H   -1.61008545   0.92000055   0.89007208
H   -2.37287813   0.26493897  -0.24171273
O   -0.39042446  -1.79121954   2.51681566
H    0.34819780  -1.90206643   1.91816553
H   -0.60946922  -0.86127207   2.45808791
O   -1.68781204  -1.11100431  -1.30580984
H   -0.89668034  -0.58072456  -1.40144387
H   -1.56916499  -1.57138350  -0.47502363
O    2.60886517   1.82935611  -2.26649500
H    2.89170225   1.79663344  -1.35262178
H    1.79563472   1.32480355  -2.28423743
S    1.14098977   0.23155473   0.28979982
O    0.60216913   0.28374398  -1.09838194
O    1.48389956  -1.17630096   0.63686642
O    2.36434024   1.07737042   0.37985239
O    0.11355015   0.74140549   1.24086241
