17
Energy:   -402.36026459
O    1.93268232   1.49073476   1.02222946
H    1.56711355   1.60750428   0.14532798
H    1.68079253   0.60134672   1.27076979
O   -2.94203225  -0.59888467   1.39902846
H   -2.17560315  -0.73481827   1.95611045
H   -2.58150439  -0.47376411   0.52119229
O    1.57934187   0.16243841  -3.80510763
H    1.19616383  -0.64078354  -3.45262935
H    1.42229838   0.82050039  -3.12796391
O   -0.55091976  -0.45943290   2.79821365
H   -0.72371559   0.47179230   2.65967454
H   -0.16255190  -0.75647345   1.97531076
S   -0.05696011  -0.40946557  -0.93275002
O   -1.53674457  -0.25091898  -0.86063264
O    0.56605578   0.89762846  -1.28411362
O    0.45859150  -0.86619692   0.38850054
O    0.28425688  -1.41837487  -1.97475435
