
                                 *****************
                                 * O   R   C   A *
                                 *****************

           --- An Ab Initio, DFT and Semiempirical electronic structure package ---

                  #######################################################
                  #                        -***-                        #
                  #          Department of theory and spectroscopy      #
                  #               Directorship: Frank Neese             #
                  #        Max Planck Institute fuer Kohlenforschung    #
                  #                Kaiser Wilhelm Platz 1               #
                  #                 D-45470 Muelheim/Ruhr               #
                  #                      Germany                        #
                  #                                                     #
                  #                  All rights reserved                #
                  #                        -***-                        #
                  #######################################################


                         Program Version 4.2.0 -  RELEASE  -


 With contributions from (in alphabetic order):
   Daniel Aravena         : Magnetic Suceptibility
   Michael Atanasov       : Ab Initio Ligand Field Theory (pilot matlab implementation)
   Alexander A. Auer      : GIAO ZORA, VPT2
   Ute Becker             : Parallelization
   Giovanni Bistoni       : ED, misc. LED, open-shell LED, HFLED
   Martin Brehm           : Molecular dynamics
   Dmytro Bykov           : SCF Hessian
   Vijay G. Chilkuri      : MRCI spin determinant printing, contributions to CSF-ICE
   Dipayan Datta          : RHF DLPNO-CCSD density
   Achintya Kumar Dutta   : EOM-CC, STEOM-CC
   Dmitry Ganyushin       : Spin-Orbit,Spin-Spin,Magnetic field MRCI
   Miquel Garcia          : C-PCM Hessian, Gaussian charge scheme
   Yang Guo               : DLPNO-NEVPT2, CIM, IAO-localization
   Andreas Hansen         : Spin unrestricted coupled pair/coupled cluster methods
   Benjamin Helmich-Paris : CASSCF linear response (MC-RPA)
   Lee Huntington         : MR-EOM, pCC
   Robert Izsak           : Overlap fitted RIJCOSX, COSX-SCS-MP3, EOM
   Christian Kollmar      : KDIIS, OOCD, Brueckner-CCSD(T), CCSD density
   Simone Kossmann        : Meta GGA functionals, TD-DFT gradient, OOMP2, MP2 Hessian
   Martin Krupicka        : AUTO-CI
   Lucas Lang             : DCDCAS
   Dagmar Lenk            : GEPOL surface, SMD
   Dimitrios Liakos       : Extrapolation schemes; Compound Job, initial MDCI parallelization
   Dimitrios Manganas     : Further ROCIS development; embedding schemes
   Dimitrios Pantazis     : SARC Basis sets
   Taras Petrenko         : DFT Hessian,TD-DFT gradient, ASA, ECA, R-Raman, ABS, FL, XAS/XES, NRVS
   Peter Pinski           : DLPNO-MP2, DLPNO-MP2 Gradient
   Christoph Reimann      : Effective Core Potentials
   Marius Retegan         : Local ZFS, SOC
   Christoph Riplinger    : Optimizer, TS searches, QM/MM, DLPNO-CCSD(T), (RO)-DLPNO pert. Triples
   Tobias Risthaus        : Range-separated hybrids, TD-DFT gradient, RPA, STAB
   Michael Roemelt        : Original ROCIS implementation
   Masaaki Saitow         : Open-shell DLPNO-CCSD energy and density
   Barbara Sandhoefer     : DKH picture change effects
   Avijit Sen             : IP-ROCIS
   Kantharuban Sivalingam : CASSCF convergence, NEVPT2, FIC-MRCI
   Bernardo de Souza      : ESD, SOC TD-DFT
   Georgi Stoychev        : AutoAux, RI-MP2 NMR
   Willem Van den Heuvel  : Paramagnetic NMR
   Boris Wezisla          : Elementary symmetry handling
   Frank Wennmohs         : Technical directorship


 We gratefully acknowledge several colleagues who have allowed us to
 interface, adapt or use parts of their codes:
   Stefan Grimme, W. Hujo, H. Kruse,             : VdW corrections, initial TS optimization,
                  C. Bannwarth                     DFT functionals, gCP, sTDA/sTD-DF
   Ed Valeev, F. Pavosevic, A. Kumar             : LibInt (2-el integral package), F12 methods
   Garnet Chan, S. Sharma, J. Yang, R. Olivares  : DMRG
   Ulf Ekstrom                                   : XCFun DFT Library
   Mihaly Kallay                                 : mrcc  (arbitrary order and MRCC methods)
   Andreas Klamt, Michael Diedenhofen            : otool_cosmo (COSMO solvation model)
   Jiri Pittner, Ondrej Demel                    : Mk-CCSD
   Frank Weinhold                                : gennbo (NPA and NBO analysis)
   Christopher J. Cramer and Donald G. Truhlar   : smd solvation model
   Lars Goerigk                                  : TD-DFT with DH, B97 family of functionals
   V. Asgeirsson, H. Jonsson                     : NEB implementation
   FAccTs GmbH                                   : IRC, NEB, NEB-TS, Multilevel, MM, QM/MM, CI optimization
   S Lehtola, MJT Oliveira, MAL Marques          : LibXC Library


 Your calculation uses the libint2 library for the computation of 2-el integrals
 For citations please refer to: http://libint.valeyev.net

 Your ORCA version has been built with support for libXC version: 4.2.3
 For citations please refer to: https://tddft.org/programs/libxc/

 This ORCA versions uses:
   CBLAS   interface :  Fast vector & matrix operations
   LAPACKE interface :  Fast linear algebra routines
   SCALAPACK package :  Parallel linear algebra routines


----- Orbital basis set information -----
Your calculation utilizes the basis: def2-TZVP
   F. Weigend and R. Ahlrichs, Phys. Chem. Chem. Phys. 7, 3297 (2005).

================================================================================
                                        WARNINGS
                       Please study these warnings very carefully!
================================================================================


WARNING: The frozen-core approximation for MP2-gradient calculations is turned on by default.

INFO   : the flag for use of LIBINT has been found!

================================================================================
                                       INPUT FILE
================================================================================
NAME = 12meoh.boyd.etal.mol1,3,5-orca.engrad-mp2.def2tzvp.frozencore.inp
|  1> # 12meoh.boyd.etal.mol1,3,5
|  2> ! MP2 def2-TZVP EnGrad TightSCF
|  3> 
|  4> %pal
|  5>     nprocs 6
|  6> end
|  7> 
|  8> %maxcore 8000
|  9> 
| 10> %scf
| 11>     ConvForced true
| 12> end
| 13> 
| 14> *xyz 0 1
| 15> O   0.666045193  -2.600503172   0.138317521
| 16> H  -0.227115049  -2.712051982  -0.281868004
| 17> C   0.490021232  -1.851247678   1.341189459
| 18> H   1.466500502  -1.466176022   1.645844415
| 19> H   0.097564527  -2.488364683   2.146902740
| 20> H  -0.187588112  -1.000787499   1.200739571
| 21> O  -3.821405976  -2.118091637   0.596795346
| 22> H  -4.342989117  -1.344303030   0.251966383
| 23> C  -3.443883586  -1.809641231   1.934889393
| 24> H  -2.831494349  -2.637429600   2.305201764
| 25> H  -4.325601146  -1.719364371   2.585074667
| 26> H  -2.858527126  -0.882644791   1.996110694
| 27> O  -0.662721750   1.449094618  -1.383082065
| 28> H   0.064188300   2.119867608  -1.465650660
| 29> C  -0.353319239   0.341218776  -2.229326771
| 30> H  -1.072358530  -0.454743281  -2.019906495
| 31> H   0.657636746  -0.044472139  -2.042736771
| 32> H  -0.434616607   0.624733901  -3.287793021
| 33> *
| 34> 
| 35>                          ****END OF INPUT****
================================================================================

                     *******************************
                     * Energy+Gradient Calculation *
                     *******************************

---------------------------------
CARTESIAN COORDINATES (ANGSTROEM)
---------------------------------
  O      0.666045   -2.600503    0.138318
  H     -0.227115   -2.712052   -0.281868
  C      0.490021   -1.851248    1.341189
  H      1.466501   -1.466176    1.645844
  H      0.097565   -2.488365    2.146903
  H     -0.187588   -1.000787    1.200740
  O     -3.821406   -2.118092    0.596795
  H     -4.342989   -1.344303    0.251966
  C     -3.443884   -1.809641    1.934889
  H     -2.831494   -2.637430    2.305202
  H     -4.325601   -1.719364    2.585075
  H     -2.858527   -0.882645    1.996111
  O     -0.662722    1.449095   -1.383082
  H      0.064188    2.119868   -1.465651
  C     -0.353319    0.341219   -2.229327
  H     -1.072359   -0.454743   -2.019906
  H      0.657637   -0.044472   -2.042737
  H     -0.434617    0.624734   -3.287793

----------------------------
CARTESIAN COORDINATES (A.U.)
----------------------------
  NO LB      ZA    FRAG     MASS         X           Y           Z
   0 O     8.0000    0    15.999    1.258643   -4.914239    0.261382
   1 H     1.0000    0     1.008   -0.429185   -5.125036   -0.532653
   2 C     6.0000    0    12.011    0.926006   -3.498351    2.534481
   3 H     1.0000    0     1.008    2.771284   -2.770671    3.110195
   4 H     1.0000    0     1.008    0.184370   -4.702328    4.057058
   5 H     1.0000    0     1.008   -0.354490   -1.891214    2.269069
   6 O     8.0000    0    15.999   -7.221411   -4.002613    1.127780
   7 H     1.0000    0     1.008   -8.207060   -2.540365    0.476147
   8 C     6.0000    0    12.011   -6.507997   -3.419726    3.656411
   9 H     1.0000    0     1.008   -5.350749   -4.984020    4.356200
  10 H     1.0000    0     1.008   -8.174202   -3.249128    4.885083
  11 H     1.0000    0     1.008   -5.401833   -1.667957    3.772103
  12 O     8.0000    0    15.999   -1.252363    2.738392   -2.613646
  13 H     1.0000    0     1.008    0.121298    4.005969   -2.769678
  14 C     6.0000    0    12.011   -0.667677    0.644810   -4.212817
  15 H     1.0000    0     1.008   -2.026464   -0.859340   -3.817070
  16 H     1.0000    0     1.008    1.242753   -0.084040   -3.860213
  17 H     1.0000    0     1.008   -0.821306    1.180576   -6.213028

--------------------------------
INTERNAL COORDINATES (ANGSTROEM)
--------------------------------
 O      0   0   0     0.000000000000     0.00000000     0.00000000
 H      1   0   0     0.993344970452     0.00000000     0.00000000
 C      1   2   0     1.428029806889   107.72168631     0.00000000
 H      3   1   2     1.092980597819   108.03002173   196.92065363
 H      3   1   2     1.099597305626   110.92803308    78.01457186
 H      3   1   2     1.096431990677   112.03981228   316.17366467
 O      2   1   3     3.747501226415   138.19400366   350.23513304
 H      7   2   1     0.994839079963   123.01522724   102.87402814
 C      7   2   1     1.424134995894    90.02164535   352.17365780
 H      9   7   2     1.094251074279   107.60656698   307.28696921
 H      9   7   2     1.099234578054   111.15598505   189.08926241
 H      9   7   2     1.098049467343   112.12012929    66.82613160
 O      6   3   1     3.592187162136   134.65902199   318.72318933
 H     13   6   3     0.992548335239   115.07922189   289.56019498
 C     13   6   3     1.428022723045    82.44294746    36.43157786
 H     15  13   6     1.092899789636   107.99441671    57.47805951
 H     15  13   6     1.098000598188   111.79589191   298.18528578
 H     15  13   6     1.098790649094   110.77151416   176.64472674

---------------------------
INTERNAL COORDINATES (A.U.)
---------------------------
 O      0   0   0     0.000000000000     0.00000000     0.00000000
 H      1   0   0     1.877149950662     0.00000000     0.00000000
 C      1   2   0     2.698585246096   107.72168631     0.00000000
 H      3   1   2     2.065433999568   108.03002173   196.92065363
 H      3   1   2     2.077937765230   110.92803308    78.01457186
 H      3   1   2     2.071956186850   112.03981228   316.17366467
 O      2   1   3     7.081751004458   138.19400366   350.23513304
 H      7   2   1     1.879973408453   123.01522724   102.87402814
 C      7   2   1     2.691225119973    90.02164535   352.17365780
 H      9   7   2     2.067834852136   107.60656698   307.28696921
 H      9   7   2     2.077252309459   111.15598505   189.08926241
 H      9   7   2     2.075012774777   112.12012929    66.82613160
 O      6   3   1     6.788249958225   134.65902199   318.72318933
 H     13   6   3     1.875644528280   115.07922189   289.56019498
 C     13   6   3     2.698571859572    82.44294746    36.43157786
 H     15  13   6     2.065281294231   107.99441671    57.47805951
 H     15  13   6     2.074920425457   111.79589191   298.18528578
 H     15  13   6     2.076413405301   110.77151416   176.64472674

---------------------
BASIS SET INFORMATION
---------------------
There are 3 groups of distinct atoms

 Group   1 Type O   : 11s6p2d1f contracted to 5s3p2d1f pattern {62111/411/11/1}
 Group   2 Type H   : 5s1p contracted to 3s1p pattern {311/1}
 Group   3 Type C   : 11s6p2d1f contracted to 5s3p2d1f pattern {62111/411/11/1}

Atom   0O    basis set group =>   1
Atom   1H    basis set group =>   2
Atom   2C    basis set group =>   3
Atom   3H    basis set group =>   2
Atom   4H    basis set group =>   2
Atom   5H    basis set group =>   2
Atom   6O    basis set group =>   1
Atom   7H    basis set group =>   2
Atom   8C    basis set group =>   3
Atom   9H    basis set group =>   2
Atom  10H    basis set group =>   2
Atom  11H    basis set group =>   2
Atom  12O    basis set group =>   1
Atom  13H    basis set group =>   2
Atom  14C    basis set group =>   3
Atom  15H    basis set group =>   2
Atom  16H    basis set group =>   2
Atom  17H    basis set group =>   2


           ************************************************************
           *        Program running with 6 parallel MPI-processes     *
           *              working on a common directory               *
           ************************************************************
------------------------------------------------------------------------------
                           ORCA GTO INTEGRAL CALCULATION
------------------------------------------------------------------------------

                         BASIS SET STATISTICS AND STARTUP INFO

 # of primitive gaussian shells          ...  192
 # of primitive gaussian functions       ...  372
 # of contracted shells                  ...  114
 # of contracted basis functions         ...  258
 Highest angular momentum                ...    3
 Maximum contraction depth               ...    6
 Integral package used                   ... LIBINT
 Integral threshhold            Thresh   ...  2.500e-11
 Primitive cut-off              TCut     ...  2.500e-12


------------------------------ INTEGRAL EVALUATION ----------------------------


 * One electron integrals 
 Pre-screening matrix                    ... done
 Shell pair data                         ... done (   0.001 sec)



           ************************************************************
           *        Program running with 6 parallel MPI-processes     *
           *              working on a common directory               *
           ************************************************************
-------------------------------------------------------------------------------
                                 ORCA SCF
-------------------------------------------------------------------------------

------------
SCF SETTINGS
------------
Hamiltonian:
 Ab initio Hamiltonian  Method          .... Hartree-Fock(GTOs)


General Settings:
 Integral files         IntName         .... 12meoh.boyd.etal.mol1,3,5-orca.engrad-mp2.def2tzvp.frozencore
 Hartree-Fock type      HFTyp           .... RHF
 Total Charge           Charge          ....    0
 Multiplicity           Mult            ....    1
 Number of Electrons    NEL             ....   54
 Basis Dimension        Dim             ....  258
 Nuclear Repulsion      ENuc            ....    231.5421056034 Eh

Convergence Acceleration:
 DIIS                   CNVDIIS         .... on
   Start iteration      DIISMaxIt       ....    12
   Startup error        DIISStart       ....  0.200000
   # of expansion vecs  DIISMaxEq       ....     5
   Bias factor          DIISBfac        ....   1.050
   Max. coefficient     DIISMaxC        ....  10.000
 Newton-Raphson         CNVNR           .... off
 SOSCF                  CNVSOSCF        .... on
   Start iteration      SOSCFMaxIt      ....   150
   Startup grad/error   SOSCFStart      ....  0.003300
 Level Shifting         CNVShift        .... on
   Level shift para.    LevelShift      ....    0.2500
   Turn off err/grad.   ShiftErr        ....    0.0010
 Zerner damping         CNVZerner       .... off
 Static damping         CNVDamp         .... on
   Fraction old density DampFac         ....    0.7000
   Max. Damping (<1)    DampMax         ....    0.9800
   Min. Damping (>=0)   DampMin         ....    0.0000
   Turn off err/grad.   DampErr         ....    0.1000
 Fernandez-Rico         CNVRico         .... off

SCF Procedure:
 Maximum # iterations   MaxIter         ....   125
 SCF integral mode      SCFMode         .... Direct
   Integral package                     .... LIBINT
 Reset frequency        DirectResetFreq ....    20
 Integral Threshold     Thresh          ....  2.500e-11 Eh
 Primitive CutOff       TCut            ....  2.500e-12 Eh

Convergence Tolerance:
 Convergence Check Mode ConvCheckMode   .... Total+1el-Energy
 Convergence forced     ConvForced      .... 1
 Energy Change          TolE            ....  1.000e-08 Eh
 1-El. energy change                    ....  1.000e-05 Eh
 Orbital Gradient       TolG            ....  1.000e-05
 Orbital Rotation angle TolX            ....  1.000e-05
 DIIS Error             TolErr          ....  5.000e-07


Diagonalization of the overlap matrix:
Smallest eigenvalue                        ... 1.219e-03
Time for diagonalization                   ...    0.010 sec
Threshold for overlap eigenvalues          ... 1.000e-08
Number of eigenvalues below threshold      ... 0
Time for construction of square roots      ...    0.005 sec
Total time needed                          ...    0.015 sec

-------------------
DFT GRID GENERATION
-------------------

General Integration Accuracy     IntAcc      ...  4.340
Radial Grid Type                 RadialGrid  ... Gauss-Chebyshev
Angular Grid (max. acc.)         AngularGrid ... Lebedev-110
Angular grid pruning method      GridPruning ... 3 (G Style)
Weight generation scheme         WeightScheme... Becke
Basis function cutoff            BFCut       ...    1.0000e-11
Integration weight cutoff        WCut        ...    1.0000e-14
Grids for H and He will be reduced by one unit

# of grid points (after initial pruning)     ...  19644 (   0.0 sec)
# of grid points (after weights+screening)   ...  18480 (   0.0 sec)
nearest neighbour list constructed           ...    0.0 sec
Grid point re-assignment to atoms done       ...    0.0 sec
Grid point division into batches done        ...    0.0 sec
Reduced shell lists constructed in    0.0 sec

Total number of grid points                  ...    18480
Total number of batches                      ...      297
Average number of points per batch           ...       62
Average number of grid points per atom       ...     1027
Average number of shells per batch           ...    66.86 (58.65%)
Average number of basis functions per batch  ...   142.59 (55.27%)
Average number of large shells per batch     ...    50.86 (76.07%)
Average number of large basis fcns per batch ...   108.59 (76.16%)
Maximum spatial batch extension              ...  18.21, 19.24, 14.32 au
Average spatial batch extension              ...   0.52,  0.57,  0.49 au

Time for grid setup =    0.057 sec

------------------------------
INITIAL GUESS: MODEL POTENTIAL
------------------------------
Loading Hartree-Fock densities                     ... done
Calculating cut-offs                               ... done
Setting up the integral package                    ... done
Initializing the effective Hamiltonian             ... done
Starting the Coulomb interaction                   ... done (   0.0 sec)
Reading the grid                                   ... done
Mapping shells                                     ... done
Starting the XC term evaluation                    ... done (   0.0 sec)
Transforming the Hamiltonian                       ... done (   0.0 sec)
Diagonalizing the Hamiltonian                      ... done (   0.0 sec)
Back transforming the eigenvectors                 ... done (   0.0 sec)
Now organizing SCF variables                       ... done
                      ------------------
                      INITIAL GUESS DONE (   0.2 sec)
                      ------------------
--------------
SCF ITERATIONS
--------------
ITER       Energy         Delta-E        Max-DP      RMS-DP      [F,P]     Damp
               ***  Starting incremental Fock matrix formation  ***
  0   -344.9154829685   0.000000000000 0.03632992  0.00077155  0.2888849 0.7000
  1   -345.0445565527  -0.129073584191 0.02506930  0.00057224  0.2178809 0.7000
                               ***Turning on DIIS***
  2   -345.1190191017  -0.074462549047 0.01485449  0.00035133  0.1628165 0.7000
  3   -345.9884978514  -0.869478749653 0.00749502  0.00019383  0.1199614 0.7000
  4   -345.8357689013   0.152728950128 0.01648063  0.00046229  0.0845646 0.0000
  5   -345.3004619745   0.535306926775 0.00216758  0.00006261  0.0061839 0.0000
                      *** Initiating the SOSCF procedure ***
                           *** Shutting down DIIS ***
                      *** Re-Reading the Fockian *** 
                      *** Removing any level shift *** 
ITER      Energy       Delta-E        Grad      Rot      Max-DP    RMS-DP
  6   -345.27548671   0.0249752669  0.000512  0.000512  0.000766  0.000032
               *** Restarting incremental Fock matrix formation ***
  7   -345.27039819   0.0050885140  0.000308  0.000359  0.000496  0.000018
  8   -345.27040515  -0.0000069515  0.000118  0.000201  0.000339  0.000013
  9   -345.27040686  -0.0000017103  0.000024  0.000023  0.000061  0.000002
 10   -345.27040691  -0.0000000519  0.000006  0.000011  0.000015  0.000001
                  ***Gradient check signals convergence***
              ***Rediagonalizing the Fockian in SOSCF/NRSCF***

               *****************************************************
               *                     SUCCESS                       *
               *           SCF CONVERGED AFTER  11 CYCLES          *
               *****************************************************


----------------
TOTAL SCF ENERGY
----------------

Total Energy       :         -345.27040691 Eh           -9395.28542 eV

Components:
Nuclear Repulsion  :          231.54210560 Eh            6300.58101 eV
Electronic Energy  :         -576.81251251 Eh          -15695.86643 eV
One Electron Energy:         -932.03034881 Eh          -25361.83516 eV
Two Electron Energy:          355.21783630 Eh            9665.96873 eV

Virial components:
Potential Energy   :         -689.87893612 Eh          -18772.56023 eV
Kinetic Energy     :          344.60852921 Eh            9377.27481 eV
Virial Ratio       :            2.00192067


---------------
SCF CONVERGENCE
---------------

  Last Energy change         ...   -3.7915e-09  Tolerance :   1.0000e-08
  Last MAX-Density change    ...    4.5007e-06  Tolerance :   1.0000e-07
  Last RMS-Density change    ...    1.3233e-07  Tolerance :   5.0000e-09
  Last Orbital Gradient      ...    1.4154e-06  Tolerance :   1.0000e-05
  Last Orbital Rotation      ...    4.1134e-06  Tolerance :   1.0000e-05

             **** THE GBW FILE WAS UPDATED (12meoh.boyd.etal.mol1,3,5-orca.engrad-mp2.def2tzvp.frozencore.gbw) ****
             **** DENSITY FILE WAS UPDATED (12meoh.boyd.etal.mol1,3,5-orca.engrad-mp2.def2tzvp.frozencore.scfp) ****
             **** ENERGY FILE WAS UPDATED (12meoh.boyd.etal.mol1,3,5-orca.engrad-mp2.def2tzvp.frozencore.en.tmp) ****
             **** THE GBW FILE WAS UPDATED (12meoh.boyd.etal.mol1,3,5-orca.engrad-mp2.def2tzvp.frozencore.gbw) ****
             **** DENSITY FILE WAS UPDATED (12meoh.boyd.etal.mol1,3,5-orca.engrad-mp2.def2tzvp.frozencore.scfp) ****
----------------
ORBITAL ENERGIES
----------------

  NO   OCC          E(Eh)            E(eV) 
   0   2.0000     -20.562882      -559.5445 
   1   2.0000     -20.558219      -559.4176 
   2   2.0000     -20.552342      -559.2577 
   3   2.0000     -11.275257      -306.8153 
   4   2.0000     -11.270786      -306.6937 
   5   2.0000     -11.266581      -306.5792 
   6   2.0000      -1.351782       -36.7839 
   7   2.0000      -1.346363       -36.6364 
   8   2.0000      -1.340289       -36.4711 
   9   2.0000      -0.923581       -25.1319 
  10   2.0000      -0.919546       -25.0221 
  11   2.0000      -0.914788       -24.8927 
  12   2.0000      -0.685860       -18.6632 
  13   2.0000      -0.681336       -18.5401 
  14   2.0000      -0.676049       -18.3962 
  15   2.0000      -0.621742       -16.9185 
  16   2.0000      -0.618079       -16.8188 
  17   2.0000      -0.610068       -16.6008 
  18   2.0000      -0.594728       -16.1834 
  19   2.0000      -0.591135       -16.0856 
  20   2.0000      -0.585253       -15.9255 
  21   2.0000      -0.505449       -13.7540 
  22   2.0000      -0.501108       -13.6358 
  23   2.0000      -0.496062       -13.4985 
  24   2.0000      -0.453928       -12.3520 
  25   2.0000      -0.450923       -12.2702 
  26   2.0000      -0.443191       -12.0599 
  27   0.0000       0.113458         3.0874 
  28   0.0000       0.139236         3.7888 
  29   0.0000       0.155005         4.2179 
  30   0.0000       0.158097         4.3020 
  31   0.0000       0.195448         5.3184 
  32   0.0000       0.197085         5.3630 
  33   0.0000       0.200712         5.4617 
  34   0.0000       0.219497         5.9728 
  35   0.0000       0.232826         6.3355 
  36   0.0000       0.239986         6.5304 
  37   0.0000       0.248599         6.7647 
  38   0.0000       0.258121         7.0238 
  39   0.0000       0.265940         7.2366 
  40   0.0000       0.288276         7.8444 
  41   0.0000       0.315573         8.5872 
  42   0.0000       0.323973         8.8157 
  43   0.0000       0.332152         9.0383 
  44   0.0000       0.336340         9.1523 
  45   0.0000       0.345770         9.4089 
  46   0.0000       0.427834        11.6420 
  47   0.0000       0.456509        12.4223 
  48   0.0000       0.471487        12.8298 
  49   0.0000       0.487259        13.2590 
  50   0.0000       0.512157        13.9365 
  51   0.0000       0.514722        14.0063 
  52   0.0000       0.530344        14.4314 
  53   0.0000       0.551885        15.0176 
  54   0.0000       0.572242        15.5715 
  55   0.0000       0.575843        15.6695 
  56   0.0000       0.588850        16.0234 
  57   0.0000       0.600470        16.3396 
  58   0.0000       0.612010        16.6536 
  59   0.0000       0.615255        16.7419 
  60   0.0000       0.625870        17.0308 
  61   0.0000       0.648377        17.6432 
  62   0.0000       0.652809        17.7638 
  63   0.0000       0.655537        17.8381 
  64   0.0000       0.674727        18.3602 
  65   0.0000       0.688099        18.7241 
  66   0.0000       0.702771        19.1234 
  67   0.0000       0.709416        19.3042 
  68   0.0000       0.729166        19.8416 
  69   0.0000       0.742306        20.1992 
  70   0.0000       0.751894        20.4601 
  71   0.0000       0.762935        20.7605 
  72   0.0000       0.773332        21.0434 
  73   0.0000       0.801708        21.8156 
  74   0.0000       0.820660        22.3313 
  75   0.0000       0.874808        23.8047 
  76   0.0000       0.879685        23.9374 
  77   0.0000       0.895800        24.3759 
  78   0.0000       0.913106        24.8469 
  79   0.0000       0.935538        25.4573 
  80   0.0000       0.941380        25.6163 
  81   0.0000       0.952646        25.9228 
  82   0.0000       1.002593        27.2819 
  83   0.0000       1.030710        28.0470 
  84   0.0000       1.099167        29.9099 
  85   0.0000       1.101783        29.9810 
  86   0.0000       1.124904        30.6102 
  87   0.0000       1.140147        31.0250 
  88   0.0000       1.166434        31.7403 
  89   0.0000       1.188838        32.3499 
  90   0.0000       1.240657        33.7600 
  91   0.0000       1.261844        34.3365 
  92   0.0000       1.309898        35.6441 
  93   0.0000       1.542973        41.9864 
  94   0.0000       1.548929        42.1485 
  95   0.0000       1.564595        42.5748 
  96   0.0000       1.656819        45.0843 
  97   0.0000       1.664006        45.2799 
  98   0.0000       1.669014        45.4162 
  99   0.0000       1.702967        46.3401 
 100   0.0000       1.712621        46.6028 
 101   0.0000       1.721282        46.8385 
 102   0.0000       1.777022        48.3552 
 103   0.0000       1.781220        48.4695 
 104   0.0000       1.785785        48.5937 
 105   0.0000       1.789263        48.6883 
 106   0.0000       1.799716        48.9728 
 107   0.0000       1.803868        49.0858 
 108   0.0000       1.816242        49.4225 
 109   0.0000       1.821281        49.5596 
 110   0.0000       1.839302        50.0499 
 111   0.0000       1.844327        50.1867 
 112   0.0000       1.855415        50.4884 
 113   0.0000       1.860214        50.6190 
 114   0.0000       1.865064        50.7510 
 115   0.0000       1.874605        51.0106 
 116   0.0000       1.899127        51.6779 
 117   0.0000       1.963811        53.4380 
 118   0.0000       1.979790        53.8728 
 119   0.0000       2.017360        54.8951 
 120   0.0000       2.139524        58.2194 
 121   0.0000       2.147887        58.4470 
 122   0.0000       2.156649        58.6854 
 123   0.0000       2.210289        60.1450 
 124   0.0000       2.215669        60.2914 
 125   0.0000       2.236031        60.8455 
 126   0.0000       2.249601        61.2148 
 127   0.0000       2.259286        61.4783 
 128   0.0000       2.279817        62.0370 
 129   0.0000       2.288749        62.2800 
 130   0.0000       2.294022        62.4235 
 131   0.0000       2.303643        62.6853 
 132   0.0000       2.309629        62.8482 
 133   0.0000       2.314928        62.9924 
 134   0.0000       2.325581        63.2823 
 135   0.0000       2.440687        66.4145 
 136   0.0000       2.448631        66.6306 
 137   0.0000       2.466164        67.1077 
 138   0.0000       2.538793        69.0841 
 139   0.0000       2.546906        69.3048 
 140   0.0000       2.561596        69.7046 
 141   0.0000       2.567861        69.8751 
 142   0.0000       2.571999        69.9876 
 143   0.0000       2.584575        70.3299 
 144   0.0000       2.603195        70.8365 
 145   0.0000       2.610483        71.0349 
 146   0.0000       2.628261        71.5186 
 147   0.0000       2.638405        71.7947 
 148   0.0000       2.658245        72.3345 
 149   0.0000       2.683193        73.0134 
 150   0.0000       2.703419        73.5638 
 151   0.0000       2.704993        73.6066 
 152   0.0000       2.718566        73.9759 
 153   0.0000       2.777331        75.5750 
 154   0.0000       2.789577        75.9083 
 155   0.0000       2.811990        76.5181 
 156   0.0000       2.841885        77.3316 
 157   0.0000       2.853849        77.6572 
 158   0.0000       2.873051        78.1797 
 159   0.0000       2.906280        79.0839 
 160   0.0000       2.913999        79.2939 
 161   0.0000       2.918150        79.4069 
 162   0.0000       3.031878        82.5016 
 163   0.0000       3.061403        83.3050 
 164   0.0000       3.095928        84.2445 
 165   0.0000       3.107741        84.5659 
 166   0.0000       3.109893        84.6245 
 167   0.0000       3.119453        84.8846 
 168   0.0000       3.146188        85.6121 
 169   0.0000       3.153704        85.8167 
 170   0.0000       3.203892        87.1823 
 171   0.0000       3.262166        88.7681 
 172   0.0000       3.266424        88.8839 
 173   0.0000       3.268736        88.9468 
 174   0.0000       3.357940        91.3742 
 175   0.0000       3.360680        91.4488 
 176   0.0000       3.370719        91.7219 
 177   0.0000       3.417311        92.9898 
 178   0.0000       3.431099        93.3650 
 179   0.0000       3.438871        93.5764 
 180   0.0000       3.528176        96.0065 
 181   0.0000       3.544934        96.4626 
 182   0.0000       3.561006        96.8999 
 183   0.0000       3.638894        99.0194 
 184   0.0000       3.644379        99.1686 
 185   0.0000       3.648308        99.2755 
 186   0.0000       3.666965        99.7832 
 187   0.0000       3.671656        99.9108 
 188   0.0000       3.678973       100.1099 
 189   0.0000       3.718715       101.1914 
 190   0.0000       3.726268       101.3969 
 191   0.0000       3.753875       102.1481 
 192   0.0000       3.857347       104.9637 
 193   0.0000       3.862405       105.1014 
 194   0.0000       3.868172       105.2583 
 195   0.0000       3.885793       105.7378 
 196   0.0000       3.893461       105.9465 
 197   0.0000       3.897012       106.0431 
 198   0.0000       3.907873       106.3386 
 199   0.0000       3.911783       106.4450 
 200   0.0000       3.914752       106.5258 
 201   0.0000       4.249450       115.6334 
 202   0.0000       4.251304       115.6839 
 203   0.0000       4.282836       116.5419 
 204   0.0000       4.500167       122.4558 
 205   0.0000       4.512486       122.7910 
 206   0.0000       4.523276       123.0846 
 207   0.0000       4.538844       123.5082 
 208   0.0000       4.547261       123.7373 
 209   0.0000       4.569783       124.3501 
 210   0.0000       4.712196       128.2254 
 211   0.0000       4.720762       128.4585 
 212   0.0000       4.727699       128.6472 
 213   0.0000       4.860527       132.2617 
 214   0.0000       4.874021       132.6289 
 215   0.0000       4.901439       133.3749 
 216   0.0000       5.689518       154.8197 
 217   0.0000       5.690146       154.8367 
 218   0.0000       5.699450       155.0899 
 219   0.0000       5.763227       156.8254 
 220   0.0000       5.770303       157.0179 
 221   0.0000       5.775453       157.1581 
 222   0.0000       5.870859       159.7542 
 223   0.0000       5.880717       160.0225 
 224   0.0000       5.889572       160.2634 
 225   0.0000       6.151079       167.3794 
 226   0.0000       6.159757       167.6155 
 227   0.0000       6.163238       167.7102 
 228   0.0000       6.167122       167.8159 
 229   0.0000       6.169385       167.8775 
 230   0.0000       6.172640       167.9661 
 231   0.0000       6.312835       171.7810 
 232   0.0000       6.322756       172.0509 
 233   0.0000       6.327522       172.1806 
 234   0.0000       6.655724       181.1114 
 235   0.0000       6.663577       181.3251 
 236   0.0000       6.667048       181.4196 
 237   0.0000       6.944502       188.9695 
 238   0.0000       6.947305       189.0458 
 239   0.0000       6.955922       189.2803 
 240   0.0000       7.149957       194.5602 
 241   0.0000       7.153518       194.6571 
 242   0.0000       7.173986       195.2141 
 243   0.0000       7.216253       196.3642 
 244   0.0000       7.218031       196.4126 
 245   0.0000       7.228778       196.7051 
 246   0.0000       7.452249       202.7860 
 247   0.0000       7.459150       202.9738 
 248   0.0000       7.470933       203.2944 
 249   0.0000       7.585945       206.4240 
 250   0.0000       7.591459       206.5741 
 251   0.0000       7.596940       206.7232 
 252   0.0000      23.361671       635.7034 
 253   0.0000      23.367554       635.8635 
 254   0.0000      23.386841       636.3883 
 255   0.0000      45.150779      1228.6152 
 256   0.0000      45.163539      1228.9624 
 257   0.0000      45.228958      1230.7425 

                    ********************************
                    * MULLIKEN POPULATION ANALYSIS *
                    ********************************

-----------------------
MULLIKEN ATOMIC CHARGES
-----------------------
   0 O :   -0.555779
   1 H :    0.337769
   2 C :   -0.084859
   3 H :    0.108272
   4 H :    0.088677
   5 H :    0.108054
   6 O :   -0.553380
   7 H :    0.334253
   8 C :   -0.084651
   9 H :    0.106489
  10 H :    0.100425
  11 H :    0.097473
  12 O :   -0.557164
  13 H :    0.331180
  14 C :   -0.084343
  15 H :    0.099403
  16 H :    0.112770
  17 H :    0.095410
Sum of atomic charges:   -0.0000000

--------------------------------
MULLIKEN REDUCED ORBITAL CHARGES
--------------------------------
  0 O s       :     3.806523  s :     3.806523
      pz      :     1.453225  p :     4.715195
      px      :     1.489194
      py      :     1.772777
      dz2     :     0.006397  d :     0.032344
      dxz     :     0.007689
      dyz     :     0.006904
      dx2y2   :     0.008497
      dxy     :     0.002857
      f0      :     0.000261  f :     0.001717
      f+1     :     0.000066
      f-1     :     0.000507
      f+2     :     0.000410
      f-2     :     0.000172
      f+3     :     0.000258
      f-3     :     0.000043
  1 H s       :     0.619203  s :     0.619203
      pz      :     0.012619  p :     0.043028
      px      :     0.017277
      py      :     0.013132
  2 C s       :     3.194637  s :     3.194637
      pz      :     0.774858  p :     2.764337
      px      :     1.061580
      py      :     0.927899
      dz2     :     0.031803  d :     0.116951
      dxz     :     0.025430
      dyz     :     0.025641
      dx2y2   :     0.009640
      dxy     :     0.024437
      f0      :     0.001956  f :     0.008933
      f+1     :     0.001072
      f-1     :     0.002104
      f+2     :     0.001232
      f-2     :     0.001424
      f+3     :     0.000585
      f-3     :     0.000560
  3 H s       :     0.870609  s :     0.870609
      pz      :     0.003681  p :     0.021119
      px      :     0.012648
      py      :     0.004790
  4 H s       :     0.891035  s :     0.891035
      pz      :     0.008954  p :     0.020289
      px      :     0.004744
      py      :     0.006591
  5 H s       :     0.871950  s :     0.871950
      pz      :     0.002401  p :     0.019996
      px      :     0.007430
      py      :     0.010165
  6 O s       :     3.808226  s :     3.808226
      pz      :     1.389781  p :     4.710855
      px      :     1.743363
      py      :     1.577711
      dz2     :     0.010649  d :     0.032581
      dxz     :     0.003814
      dyz     :     0.007985
      dx2y2   :     0.002695
      dxy     :     0.007438
      f0      :     0.000396  f :     0.001718
      f+1     :     0.000368
      f-1     :     0.000182
      f+2     :     0.000088
      f-2     :     0.000279
      f+3     :     0.000350
      f-3     :     0.000054
  7 H s       :     0.623179  s :     0.623179
      pz      :     0.011176  p :     0.042568
      px      :     0.015632
      py      :     0.015760
  8 C s       :     3.194488  s :     3.194488
      pz      :     0.706939  p :     2.766084
      px      :     1.023926
      py      :     1.035218
      dz2     :     0.026756  d :     0.115178
      dxz     :     0.035887
      dyz     :     0.025827
      dx2y2   :     0.007572
      dxy     :     0.019137
      f0      :     0.002557  f :     0.008901
      f+1     :     0.002005
      f-1     :     0.001757
      f+2     :     0.000732
      f-2     :     0.000790
      f+3     :     0.001016
      f-3     :     0.000043
  9 H s       :     0.872396  s :     0.872396
      pz      :     0.003915  p :     0.021116
      px      :     0.007198
      py      :     0.010003
 10 H s       :     0.879353  s :     0.879353
      pz      :     0.006552  p :     0.020221
      px      :     0.010239
      py      :     0.003431
 11 H s       :     0.882397  s :     0.882397
      pz      :     0.002126  p :     0.020129
      px      :     0.006729
      py      :     0.011274
 12 O s       :     3.805262  s :     3.805262
      pz      :     1.732583  p :     4.718194
      px      :     1.614115
      py      :     1.371496
      dz2     :     0.005384  d :     0.031982
      dxz     :     0.003660
      dyz     :     0.007575
      dx2y2   :     0.003432
      dxy     :     0.011931
      f0      :     0.000199  f :     0.001725
      f+1     :     0.000162
      f-1     :     0.000327
      f+2     :     0.000277
      f-2     :     0.000190
      f+3     :     0.000219
      f-3     :     0.000352
 13 H s       :     0.625858  s :     0.625858
      pz      :     0.012187  p :     0.042962
      px      :     0.015449
      py      :     0.015326
 14 C s       :     3.195325  s :     3.195325
      pz      :     0.906351  p :     2.766072
      px      :     1.042590
      py      :     0.817131
      dz2     :     0.039691  d :     0.114100
      dxz     :     0.006837
      dyz     :     0.017812
      dx2y2   :     0.017357
      dxy     :     0.032404
      f0      :     0.001284  f :     0.008845
      f+1     :     0.000398
      f-1     :     0.002525
      f+2     :     0.001021
      f-2     :     0.001272
      f+3     :     0.001197
      f-3     :     0.001149
 15 H s       :     0.879358  s :     0.879358
      pz      :     0.003390  p :     0.021238
      px      :     0.008508
      py      :     0.009340
 16 H s       :     0.867063  s :     0.867063
      pz      :     0.003149  p :     0.020168
      px      :     0.012767
      py      :     0.004251
 17 H s       :     0.884368  s :     0.884368
      pz      :     0.013733  p :     0.020222
      px      :     0.003457
      py      :     0.003032


                     *******************************
                     * LOEWDIN POPULATION ANALYSIS *
                     *******************************

----------------------
LOEWDIN ATOMIC CHARGES
----------------------
   0 O :   -0.132937
   1 H :    0.190498
   2 C :   -0.333430
   3 H :    0.099237
   4 H :    0.087786
   5 H :    0.090737
   6 O :   -0.132778
   7 H :    0.192205
   8 C :   -0.338238
   9 H :    0.100298
  10 H :    0.089857
  11 H :    0.089093
  12 O :   -0.136934
  13 H :    0.188301
  14 C :   -0.333822
  15 H :    0.098383
  16 H :    0.092988
  17 H :    0.088753

-------------------------------
LOEWDIN REDUCED ORBITAL CHARGES
-------------------------------
  0 O s       :     3.395492  s :     3.395492
      pz      :     1.469580  p :     4.666013
      px      :     1.483613
      py      :     1.712820
      dz2     :     0.015283  d :     0.067383
      dxz     :     0.019309
      dyz     :     0.014942
      dx2y2   :     0.012266
      dxy     :     0.005584
      f0      :     0.000887  f :     0.004048
      f+1     :     0.000393
      f-1     :     0.000851
      f+2     :     0.000842
      f-2     :     0.000459
      f+3     :     0.000526
      f-3     :     0.000091
  1 H s       :     0.664203  s :     0.664203
      pz      :     0.035443  p :     0.145299
      px      :     0.073402
      py      :     0.036454
  2 C s       :     2.862012  s :     2.862012
      pz      :     0.890451  p :     2.994327
      px      :     1.094739
      py      :     1.009136
      dz2     :     0.118708  d :     0.420399
      dxz     :     0.079814
      dyz     :     0.110941
      dx2y2   :     0.034672
      dxy     :     0.076264
      f0      :     0.013533  f :     0.056692
      f+1     :     0.008306
      f-1     :     0.011940
      f+2     :     0.009733
      f-2     :     0.007383
      f+3     :     0.002612
      f-3     :     0.003184
  3 H s       :     0.842000  s :     0.842000
      pz      :     0.010715  p :     0.058763
      px      :     0.033633
      py      :     0.014415
  4 H s       :     0.853964  s :     0.853964
      pz      :     0.023647  p :     0.058249
      px      :     0.015387
      py      :     0.019215
  5 H s       :     0.849796  s :     0.849796
      pz      :     0.008986  p :     0.059468
      px      :     0.022216
      py      :     0.028266
  6 O s       :     3.396073  s :     3.396073
      pz      :     1.436584  p :     4.664176
      px      :     1.667354
      py      :     1.560237
      dz2     :     0.021053  d :     0.068413
      dxz     :     0.014052
      dyz     :     0.019205
      dx2y2   :     0.002776
      dxy     :     0.011327
      f0      :     0.001056  f :     0.004117
      f+1     :     0.000874
      f-1     :     0.000833
      f+2     :     0.000302
      f-2     :     0.000488
      f+3     :     0.000540
      f-3     :     0.000024
  7 H s       :     0.663872  s :     0.663872
      pz      :     0.030283  p :     0.143923
      px      :     0.049347
      py      :     0.064293
  8 C s       :     2.862543  s :     2.862543
      pz      :     0.843281  p :     2.995315
      px      :     1.068558
      py      :     1.083476
      dz2     :     0.119260  d :     0.423062
      dxz     :     0.127620
      dyz     :     0.088740
      dx2y2   :     0.020860
      dxy     :     0.066580
      f0      :     0.016869  f :     0.057318
      f+1     :     0.011201
      f-1     :     0.014151
      f+2     :     0.006960
      f-2     :     0.004542
      f+3     :     0.002999
      f-3     :     0.000596
  9 H s       :     0.841000  s :     0.841000
      pz      :     0.010896  p :     0.058702
      px      :     0.020324
      py      :     0.027482
 10 H s       :     0.851671  s :     0.851671
      pz      :     0.018103  p :     0.058472
      px      :     0.028288
      py      :     0.012081
 11 H s       :     0.851968  s :     0.851968
      pz      :     0.007928  p :     0.058938
      px      :     0.020108
      py      :     0.030903
 12 O s       :     3.395149  s :     3.395149
      pz      :     1.698177  p :     4.670122
      px      :     1.589634
      py      :     1.382311
      dz2     :     0.013678  d :     0.067621
      dxz     :     0.005486
      dyz     :     0.015069
      dx2y2   :     0.008581
      dxy     :     0.024807
      f0      :     0.000348  f :     0.004042
      f+1     :     0.000352
      f-1     :     0.000811
      f+2     :     0.000612
      f-2     :     0.000610
      f+3     :     0.000434
      f-3     :     0.000875
 13 H s       :     0.666476  s :     0.666476
      pz      :     0.035745  p :     0.145223
      px      :     0.061724
      py      :     0.047754
 14 C s       :     2.863416  s :     2.863416
      pz      :     0.992141  p :     2.995002
      px      :     1.085064
      py      :     0.917797
      dz2     :     0.139624  d :     0.418705
      dxz     :     0.025039
      dyz     :     0.083454
      dx2y2   :     0.057663
      dxy     :     0.112925
      f0      :     0.004809  f :     0.056699
      f+1     :     0.003214
      f-1     :     0.015023
      f+2     :     0.010006
      f-2     :     0.010672
      f+3     :     0.007200
      f-3     :     0.005775
 15 H s       :     0.842812  s :     0.842812
      pz      :     0.011392  p :     0.058805
      px      :     0.023710
      py      :     0.023702
 16 H s       :     0.847642  s :     0.847642
      pz      :     0.011036  p :     0.059370
      px      :     0.034845
      py      :     0.013489
 17 H s       :     0.852793  s :     0.852793
      pz      :     0.035683  p :     0.058454
      px      :     0.012183
      py      :     0.010588


                      *****************************
                      * MAYER POPULATION ANALYSIS *
                      *****************************

  NA   - Mulliken gross atomic population
  ZA   - Total nuclear charge
  QA   - Mulliken gross atomic charge
  VA   - Mayer's total valence
  BVA  - Mayer's bonded valence
  FA   - Mayer's free valence

  ATOM       NA         ZA         QA         VA         BVA        FA
  0 O      8.5558     8.0000    -0.5558     1.7917     1.7917     0.0000
  1 H      0.6622     1.0000     0.3378     0.8951     0.8951     0.0000
  2 C      6.0849     6.0000    -0.0849     3.8948     3.8948    -0.0000
  3 H      0.8917     1.0000     0.1083     0.9621     0.9621    -0.0000
  4 H      0.9113     1.0000     0.0887     0.9625     0.9625     0.0000
  5 H      0.8919     1.0000     0.1081     0.9562     0.9562     0.0000
  6 O      8.5534     8.0000    -0.5534     1.7873     1.7873    -0.0000
  7 H      0.6657     1.0000     0.3343     0.8954     0.8954     0.0000
  8 C      6.0847     6.0000    -0.0847     3.8905     3.8905    -0.0000
  9 H      0.8935     1.0000     0.1065     0.9613     0.9613    -0.0000
 10 H      0.8996     1.0000     0.1004     0.9624     0.9624    -0.0000
 11 H      0.9025     1.0000     0.0975     0.9613     0.9613    -0.0000
 12 O      8.5572     8.0000    -0.5572     1.7807     1.7807    -0.0000
 13 H      0.6688     1.0000     0.3312     0.8979     0.8979    -0.0000
 14 C      6.0843     6.0000    -0.0843     3.8824     3.8824     0.0000
 15 H      0.9006     1.0000     0.0994     0.9684     0.9684    -0.0000
 16 H      0.8872     1.0000     0.1128     0.9638     0.9638     0.0000
 17 H      0.9046     1.0000     0.0954     0.9615     0.9615     0.0000

  Mayer bond orders larger than 0.100000
B(  0-O ,  1-H ) :   0.8833 B(  0-O ,  2-C ) :   0.9284 B(  2-C ,  3-H ) :   0.9838 
B(  2-C ,  4-H ) :   0.9892 B(  2-C ,  5-H ) :   0.9871 B(  6-O ,  7-H ) :   0.8848 
B(  6-O ,  8-C ) :   0.9268 B(  8-C ,  9-H ) :   0.9835 B(  8-C , 10-H ) :   0.9867 
B(  8-C , 11-H ) :   0.9875 B( 12-O , 13-H ) :   0.8869 B( 12-O , 14-C ) :   0.9187 
B( 14-C , 15-H ) :   0.9853 B( 14-C , 16-H ) :   0.9876 B( 14-C , 17-H ) :   0.9848 


-------
TIMINGS
-------

Total SCF time: 0 days 0 hours 0 min 14 sec 

Total time                  ....      14.562 sec
Sum of individual times     ....      14.334 sec  ( 98.4%)

Fock matrix formation       ....      13.979 sec  ( 96.0%)
Diagonalization             ....       0.075 sec  (  0.5%)
Density matrix formation    ....       0.010 sec  (  0.1%)
Population analysis         ....       0.008 sec  (  0.1%)
Initial guess               ....       0.145 sec  (  1.0%)
Orbital Transformation      ....       0.000 sec  (  0.0%)
Orbital Orthonormalization  ....       0.000 sec  (  0.0%)
DIIS solution               ....       0.026 sec  (  0.2%)
SOSCF solution              ....       0.033 sec  (  0.2%)


           ************************************************************
           *        Program running with 6 parallel MPI-processes     *
           *              working on a common directory               *
           ************************************************************

------------------------------------------------------------------------------
                                ORCA  MP2 
------------------------------------------------------------------------------

Freezing NCore=12 chemical core electrons
MP2 will be done in the AO integral direct mode
The Q1-step will be done using symmetric double matrices
Dimension of the basis                    ...  258
Memory devoted for MP2                    ... 8000 MB   
Memory needed for all in one shot         ...  264 MB
Number of MOs that can be treated together...  120      
MP2 density construction                  ... relaxed
The MP2 gradient is requested => amplitudes will be stored on disk
Total number of MOs              ...   21
Number of MOs treated per batch  ...    4 
Number of batches necessary      ...    1 
OPERATORS   0/  0 PASS   0
-----------------------------------------------
 MP2 CORRELATION ENERGY   :     -1.254369707 Eh
-----------------------------------------------


---------------------
MP2 DENSITY FORMATION
---------------------

Completing the external part of the density      ... done
Storing the unrelaxed density                    ... done

Calculating G(D)                                 ... done
Completing the Lagrangian                        ... done
Solving the Z-vector equations                   ... 

------------------------------------------------------------------------------
                           ORCA CP-SCF CALCULATION
------------------------------------------------------------------------------

Input orbitals are from        ... 12meoh.boyd.etal.mol1,3,5-orca.engrad-mp2.def2tzvp.frozencore.gbw
Input Perturbation             ... 12meoh.boyd.etal.mol1,3,5-orca.engrad-mp2.def2tzvp.frozencore.pin.tmp
Wavefunction output            ... 12meoh.boyd.etal.mol1,3,5-orca.engrad-mp2.def2tzvp.frozencore.pout.tmp
Perturbation mode              ... Real perturbation (singlet)
Solver                         ... POPLE
Max. number of iterations      ... 128
Convergence tolerance          ... 1.000e-08
Integral handling              ... Direct
Number of perturbations        ... 1
Number of operators            ... 1
Orbital ranges used for CP-SCF:
 Operator 0:  Orbitals   0... 26  to  27...257
Variables per vector in CP-SCF ... 6237
Number of vectors sought       ... 1
     CP-SCF ITERATION   0: 
     CP-SCF ITERATION   1:      0.000370490872
     CP-SCF ITERATION   2:      0.000019142742
     CP-SCF ITERATION   3:      0.000003145004
     CP-SCF ITERATION   4:      0.000000164826
     CP-SCF ITERATION   5:      0.000000004949
                                                 ... done
Finalizing the relaxed density                   ... done
Transforming P to the AO basis                   ... done
Storing the relaxed density                      ... done

------------------------------------
ENERGY WEIGHTED DENSITY FINALIZATION
------------------------------------

Gathering the parts of the W-matrix              ...                                                      done
Forming the Z-density                            ... done
Transforming Z to the AO basis                   ... done
Calculating G(Z)                                 ... done
Finalizing the W-matrix                          ...                                                      done
Transforming W to the AO basis and storing       ... done

                *********************************************
                * UNRELAXED MP2 DENSITY POPULATION ANALYSIS *
                *********************************************

------------------------------------------------------------------------------
                           ORCA POPULATION ANALYSIS
------------------------------------------------------------------------------
Input electron density              ... 12meoh.boyd.etal.mol1,3,5-orca.engrad-mp2.def2tzvp.frozencore.pmp2ur
BaseName (.gbw .S,...)              ... 12meoh.boyd.etal.mol1,3,5-orca.engrad-mp2.def2tzvp.frozencore

                    ********************************
                    * MULLIKEN POPULATION ANALYSIS *
                    ********************************

-----------------------
MULLIKEN ATOMIC CHARGES
-----------------------
   0 O :   -0.544324
   1 H :    0.335011
   2 C :   -0.100904
   3 H :    0.111160
   4 H :    0.091181
   5 H :    0.110172
   6 O :   -0.542089
   7 H :    0.331553
   8 C :   -0.100820
   9 H :    0.109269
  10 H :    0.102961
  11 H :    0.099809
  12 O :   -0.546045
  13 H :    0.328535
  14 C :   -0.100370
  15 H :    0.102013
  16 H :    0.114994
  17 H :    0.097895
Sum of atomic charges:   -0.0000000

--------------------------------
MULLIKEN REDUCED ORBITAL CHARGES
--------------------------------
  0 O s       :     3.801289  s :     3.801289
      pz      :     1.441645  p :     4.678992
      px      :     1.478140
      py      :     1.759207
      dz2     :     0.011912  d :     0.059673
      dxz     :     0.013060
      dyz     :     0.012384
      dx2y2   :     0.013830
      dxy     :     0.008486
      f0      :     0.000646  f :     0.004370
      f+1     :     0.000457
      f-1     :     0.000876
      f+2     :     0.000786
      f-2     :     0.000552
      f+3     :     0.000630
      f-3     :     0.000423
  1 H s       :     0.620271  s :     0.620271
      pz      :     0.013253  p :     0.044718
      px      :     0.017425
      py      :     0.014040
  2 C s       :     3.192704  s :     3.192704
      pz      :     0.775805  p :     2.758170
      px      :     1.056870
      py      :     0.925495
      dz2     :     0.035525  d :     0.137775
      dxz     :     0.030168
      dyz     :     0.028779
      dx2y2   :     0.014768
      dxy     :     0.028534
      f0      :     0.002460  f :     0.012255
      f+1     :     0.001570
      f-1     :     0.002461
      f+2     :     0.001694
      f-2     :     0.001932
      f+3     :     0.001080
      f-3     :     0.001059
  3 H s       :     0.864613  s :     0.864613
      pz      :     0.004816  p :     0.024227
      px      :     0.013522
      py      :     0.005890
  4 H s       :     0.885303  s :     0.885303
      pz      :     0.009990  p :     0.023517
      px      :     0.005880
      py      :     0.007646
  5 H s       :     0.866651  s :     0.866651
      pz      :     0.003572  p :     0.023177
      px      :     0.008479
      py      :     0.011127
  6 O s       :     3.802941  s :     3.802941
      pz      :     1.378253  p :     4.674913
      px      :     1.730817
      py      :     1.565843
      dz2     :     0.015933  d :     0.059861
      dxz     :     0.009441
      dyz     :     0.013335
      dx2y2   :     0.008311
      dxy     :     0.012842
      f0      :     0.000784  f :     0.004374
      f+1     :     0.000748
      f-1     :     0.000578
      f+2     :     0.000464
      f-2     :     0.000654
      f+3     :     0.000714
      f-3     :     0.000431
  7 H s       :     0.624173  s :     0.624173
      pz      :     0.011863  p :     0.044274
      px      :     0.016277
      py      :     0.016133
  8 C s       :     3.192578  s :     3.192578
      pz      :     0.709270  p :     2.760084
      px      :     1.020111
      py      :     1.030702
      dz2     :     0.029758  d :     0.135927
      dxz     :     0.039476
      dyz     :     0.030467
      dx2y2   :     0.012764
      dxy     :     0.023462
      f0      :     0.002960  f :     0.012231
      f+1     :     0.002476
      f-1     :     0.002209
      f+2     :     0.001203
      f-2     :     0.001330
      f+3     :     0.001453
      f-3     :     0.000601
  9 H s       :     0.866506  s :     0.866506
      pz      :     0.005043  p :     0.024225
      px      :     0.008238
      py      :     0.010945
 10 H s       :     0.873642  s :     0.873642
      pz      :     0.007616  p :     0.023396
      px      :     0.011195
      py      :     0.004585
 11 H s       :     0.876876  s :     0.876876
      pz      :     0.003306  p :     0.023315
      px      :     0.007789
      py      :     0.012220
 12 O s       :     3.800023  s :     3.800023
      pz      :     1.718931  p :     4.682331
      px      :     1.602046
      py      :     1.361354
      dz2     :     0.010953  d :     0.059312
      dxz     :     0.009182
      dyz     :     0.013019
      dx2y2   :     0.009000
      dxy     :     0.017158
      f0      :     0.000577  f :     0.004379
      f+1     :     0.000535
      f-1     :     0.000708
      f+2     :     0.000650
      f-2     :     0.000578
      f+3     :     0.000601
      f-3     :     0.000729
 13 H s       :     0.626795  s :     0.626795
      pz      :     0.013108  p :     0.044670
      px      :     0.015895
      py      :     0.015667
 14 C s       :     3.193284  s :     3.193284
      pz      :     0.904640  p :     2.760109
      px      :     1.037995
      py      :     0.817474
      dz2     :     0.043313  d :     0.134811
      dxz     :     0.012093
      dyz     :     0.021321
      dx2y2   :     0.021653
      dxy     :     0.036431
      f0      :     0.001770  f :     0.012166
      f+1     :     0.000908
      f-1     :     0.002992
      f+2     :     0.001427
      f-2     :     0.001747
      f+3     :     0.001698
      f-3     :     0.001623
 15 H s       :     0.873636  s :     0.873636
      pz      :     0.004516  p :     0.024352
      px      :     0.009500
      py      :     0.010336
 16 H s       :     0.861695  s :     0.861695
      pz      :     0.004297  p :     0.023311
      px      :     0.013662
      py      :     0.005353
 17 H s       :     0.878691  s :     0.878691
      pz      :     0.014622  p :     0.023413
      px      :     0.004612
      py      :     0.004180


                     *******************************
                     * LOEWDIN POPULATION ANALYSIS *
                     *******************************

----------------------
LOEWDIN ATOMIC CHARGES
----------------------
   0 O :   -0.124799
   1 H :    0.188597
   2 C :   -0.344173
   3 H :    0.100987
   4 H :    0.089247
   5 H :    0.092180
   6 O :   -0.124847
   7 H :    0.190355
   8 C :   -0.348945
   9 H :    0.102042
  10 H :    0.091343
  11 H :    0.090548
  12 O :   -0.129101
  13 H :    0.186500
  14 C :   -0.344646
  15 H :    0.100058
  16 H :    0.094430
  17 H :    0.090225

-------------------------------
LOEWDIN REDUCED ORBITAL CHARGES
-------------------------------
  0 O s       :     3.392036  s :     3.392036
      pz      :     1.457453  p :     4.629660
      px      :     1.472701
      py      :     1.699506
      dz2     :     0.021025  d :     0.096149
      dxz     :     0.024770
      dyz     :     0.021159
      dx2y2   :     0.018106
      dxy     :     0.011088
      f0      :     0.001304  f :     0.006954
      f+1     :     0.000798
      f-1     :     0.001302
      f+2     :     0.001283
      f-2     :     0.000860
      f+3     :     0.000929
      f-3     :     0.000478
  1 H s       :     0.662586  s :     0.662586
      pz      :     0.036378  p :     0.148817
      px      :     0.075125
      py      :     0.037314
  2 C s       :     2.860893  s :     2.860893
      pz      :     0.888088  p :     2.980361
      px      :     1.087998
      py      :     1.004275
      dz2     :     0.122291  d :     0.441345
      dxz     :     0.083877
      dyz     :     0.114664
      dx2y2   :     0.039774
      dxy     :     0.080740
      f0      :     0.014067  f :     0.061574
      f+1     :     0.008925
      f-1     :     0.012957
      f+2     :     0.010337
      f-2     :     0.008106
      f+3     :     0.003326
      f-3     :     0.003856
  3 H s       :     0.835190  s :     0.835190
      pz      :     0.012154  p :     0.063824
      px      :     0.035822
      py      :     0.015847
  4 H s       :     0.847227  s :     0.847227
      pz      :     0.025808  p :     0.063526
      px      :     0.016832
      py      :     0.020886
  5 H s       :     0.843120  s :     0.843120
      pz      :     0.010360  p :     0.064701
      px      :     0.023984
      py      :     0.030357
  6 O s       :     3.392601  s :     3.392601
      pz      :     1.424273  p :     4.628097
      px      :     1.655222
      py      :     1.548601
      dz2     :     0.027104  d :     0.097124
      dxz     :     0.019793
      dyz     :     0.024637
      dx2y2   :     0.008405
      dxy     :     0.017184
      f0      :     0.001515  f :     0.007025
      f+1     :     0.001300
      f-1     :     0.001264
      f+2     :     0.000690
      f-2     :     0.000904
      f+3     :     0.000947
      f-3     :     0.000406
  7 H s       :     0.662179  s :     0.662179
      pz      :     0.031168  p :     0.147466
      px      :     0.050460
      py      :     0.065838
  8 C s       :     2.861414  s :     2.861414
      pz      :     0.841866  p :     2.981416
      px      :     1.062550
      py      :     1.077000
      dz2     :     0.122771  d :     0.443912
      dxz     :     0.130976
      dyz     :     0.092607
      dx2y2   :     0.026110
      dxy     :     0.071448
      f0      :     0.017616  f :     0.062204
      f+1     :     0.011971
      f-1     :     0.014777
      f+2     :     0.007572
      f-2     :     0.005264
      f+3     :     0.003781
      f-3     :     0.001223
  9 H s       :     0.834203  s :     0.834203
      pz      :     0.012405  p :     0.063755
      px      :     0.021967
      py      :     0.029383
 10 H s       :     0.844957  s :     0.844957
      pz      :     0.020012  p :     0.063700
      px      :     0.030342
      py      :     0.013346
 11 H s       :     0.845278  s :     0.845278
      pz      :     0.009327  p :     0.064174
      px      :     0.021745
      py      :     0.033102
 12 O s       :     3.391704  s :     3.391704
      pz      :     1.684719  p :     4.634101
      px      :     1.577818
      py      :     1.371564
      dz2     :     0.019337  d :     0.096350
      dxz     :     0.011084
      dyz     :     0.021208
      dx2y2   :     0.014151
      dxy     :     0.030569
      f0      :     0.000750  f :     0.006946
      f+1     :     0.000746
      f-1     :     0.001236
      f+2     :     0.001030
      f-2     :     0.001025
      f+3     :     0.000858
      f-3     :     0.001301
 13 H s       :     0.664727  s :     0.664727
      pz      :     0.036623  p :     0.148773
      px      :     0.063206
      py      :     0.048944
 14 C s       :     2.862278  s :     2.862278
      pz      :     0.987766  p :     2.981246
      px      :     1.078609
      py      :     0.914871
      dz2     :     0.143189  d :     0.439553
      dxz     :     0.029995
      dyz     :     0.087504
      dx2y2   :     0.061943
      dxy     :     0.116922
      f0      :     0.005684  f :     0.061569
      f+1     :     0.003870
      f-1     :     0.015669
      f+2     :     0.010638
      f-2     :     0.011250
      f+3     :     0.007924
      f-3     :     0.006535
 15 H s       :     0.836081  s :     0.836081
      pz      :     0.012695  p :     0.063861
      px      :     0.025449
      py      :     0.025717
 16 H s       :     0.841038  s :     0.841038
      pz      :     0.012351  p :     0.064532
      px      :     0.037181
      py      :     0.015000
 17 H s       :     0.846082  s :     0.846082
      pz      :     0.038270  p :     0.063693
      px      :     0.013437
      py      :     0.011986


                      *****************************
                      * MAYER POPULATION ANALYSIS *
                      *****************************

  NA   - Mulliken gross atomic population
  ZA   - Total nuclear charge
  QA   - Mulliken gross atomic charge
  VA   - Mayer's total valence
  BVA  - Mayer's bonded valence
  FA   - Mayer's free valence

  ATOM       NA         ZA         QA         VA         BVA        FA
  0 O      8.5443     8.0000    -0.5443     2.0926     1.6856     0.4071
  1 H      0.6650     1.0000     0.3350     0.9016     0.8492     0.0524
  2 C      6.1009     6.0000    -0.1009     4.0014     3.7208     0.2806
  3 H      0.8888     1.0000     0.1112     0.9710     0.9241     0.0469
  4 H      0.9088     1.0000     0.0912     0.9725     0.9230     0.0495
  5 H      0.8898     1.0000     0.1102     0.9662     0.9171     0.0491
  6 O      8.5421     8.0000    -0.5421     2.0873     1.6813     0.4060
  7 H      0.6684     1.0000     0.3316     0.9018     0.8492     0.0526
  8 C      6.1008     6.0000    -0.1008     3.9972     3.7170     0.2802
  9 H      0.8907     1.0000     0.1093     0.9704     0.9231     0.0473
 10 H      0.8970     1.0000     0.1030     0.9718     0.9233     0.0485
 11 H      0.9002     1.0000     0.0998     0.9711     0.9220     0.0491
 12 O      8.5460     8.0000    -0.5460     2.0817     1.6754     0.4063
 13 H      0.6715     1.0000     0.3285     0.9044     0.8518     0.0526
 14 C      6.1004     6.0000    -0.1004     3.9891     3.7096     0.2795
 15 H      0.8980     1.0000     0.1020     0.9780     0.9301     0.0479
 16 H      0.8850     1.0000     0.1150     0.9732     0.9249     0.0483
 17 H      0.9021     1.0000     0.0979     0.9712     0.9223     0.0489

  Mayer bond orders larger than 0.100000
B(  0-O ,  1-H ) :   0.8384 B(  0-O ,  2-C ) :   0.8691 B(  2-C ,  3-H ) :   0.9464 
B(  2-C ,  4-H ) :   0.9507 B(  2-C ,  5-H ) :   0.9489 B(  6-O ,  7-H ) :   0.8395 
B(  6-O ,  8-C ) :   0.8678 B(  8-C ,  9-H ) :   0.9458 B(  8-C , 10-H ) :   0.9487 
B(  8-C , 11-H ) :   0.9493 B( 12-O , 13-H ) :   0.8417 B( 12-O , 14-C ) :   0.8602 
B( 14-C , 15-H ) :   0.9476 B( 14-C , 16-H ) :   0.9497 B( 14-C , 17-H ) :   0.9466 



                *******************************************
                * RELAXED MP2 DENSITY POPULATION ANALYSIS *
                *******************************************

------------------------------------------------------------------------------
                           ORCA POPULATION ANALYSIS
------------------------------------------------------------------------------
Input electron density              ... 12meoh.boyd.etal.mol1,3,5-orca.engrad-mp2.def2tzvp.frozencore.pmp2re
BaseName (.gbw .S,...)              ... 12meoh.boyd.etal.mol1,3,5-orca.engrad-mp2.def2tzvp.frozencore

                    ********************************
                    * MULLIKEN POPULATION ANALYSIS *
                    ********************************

-----------------------
MULLIKEN ATOMIC CHARGES
-----------------------
   0 O :   -0.504271
   1 H :    0.328500
   2 C :   -0.183121
   3 H :    0.128545
   4 H :    0.107440
   5 H :    0.126165
   6 O :   -0.503340
   7 H :    0.326280
   8 C :   -0.182934
   9 H :    0.127810
  10 H :    0.118214
  11 H :    0.115364
  12 O :   -0.508194
  13 H :    0.323275
  14 C :   -0.181905
  15 H :    0.118700
  16 H :    0.130044
  17 H :    0.113428
Sum of atomic charges:   -0.0000000

--------------------------------
MULLIKEN REDUCED ORBITAL CHARGES
--------------------------------
  0 O s       :     3.802800  s :     3.802800
      pz      :     1.432255  p :     4.639596
      px      :     1.460405
      py      :     1.746936
      dz2     :     0.011489  d :     0.057562
      dxz     :     0.012725
      dyz     :     0.011677
      dx2y2   :     0.013018
      dxy     :     0.008654
      f0      :     0.000645  f :     0.004313
      f+1     :     0.000458
      f-1     :     0.000849
      f+2     :     0.000768
      f-2     :     0.000554
      f+3     :     0.000617
      f-3     :     0.000422
  1 H s       :     0.626171  s :     0.626171
      pz      :     0.013462  p :     0.045329
      px      :     0.016771
      py      :     0.015096
  2 C s       :     3.215370  s :     3.215370
      pz      :     0.794436  p :     2.827174
      px      :     1.083659
      py      :     0.949079
      dz2     :     0.034053  d :     0.128862
      dxz     :     0.030319
      dyz     :     0.025855
      dx2y2   :     0.013989
      dxy     :     0.024647
      f0      :     0.002348  f :     0.011715
      f+1     :     0.001527
      f-1     :     0.002319
      f+2     :     0.001615
      f-2     :     0.001873
      f+3     :     0.001034
      f-3     :     0.000999
  3 H s       :     0.848357  s :     0.848357
      pz      :     0.004894  p :     0.023098
      px      :     0.012317
      py      :     0.005887
  4 H s       :     0.870103  s :     0.870103
      pz      :     0.009269  p :     0.022457
      px      :     0.005899
      py      :     0.007289
  5 H s       :     0.851766  s :     0.851766
      pz      :     0.003822  p :     0.022069
      px      :     0.008036
      py      :     0.010211
  6 O s       :     3.804533  s :     3.804533
      pz      :     1.370147  p :     4.636753
      px      :     1.717755
      py      :     1.548851
      dz2     :     0.014672  d :     0.057737
      dxz     :     0.009532
      dyz     :     0.013069
      dx2y2   :     0.008266
      dxy     :     0.012198
      f0      :     0.000766  f :     0.004318
      f+1     :     0.000742
      f-1     :     0.000570
      f+2     :     0.000466
      f-2     :     0.000646
      f+3     :     0.000698
      f-3     :     0.000431
  7 H s       :     0.628888  s :     0.628888
      pz      :     0.012156  p :     0.044832
      px      :     0.016788
      py      :     0.015888
  8 C s       :     3.215183  s :     3.215183
      pz      :     0.725669  p :     2.830058
      px      :     1.046228
      py      :     1.058161
      dz2     :     0.026901  d :     0.126031
      dxz     :     0.036359
      dyz     :     0.032031
      dx2y2   :     0.011601
      dxy     :     0.019139
      f0      :     0.002795  f :     0.011662
      f+1     :     0.002363
      f-1     :     0.002150
      f+2     :     0.001110
      f-2     :     0.001300
      f+3     :     0.001353
      f-3     :     0.000591
  9 H s       :     0.849106  s :     0.849106
      pz      :     0.005022  p :     0.023084
      px      :     0.007914
      py      :     0.010149
 10 H s       :     0.859498  s :     0.859498
      pz      :     0.007181  p :     0.022288
      px      :     0.010287
      py      :     0.004820
 11 H s       :     0.862431  s :     0.862431
      pz      :     0.003558  p :     0.022205
      px      :     0.007471
      py      :     0.011176
 12 O s       :     3.801791  s :     3.801791
      pz      :     1.705215  p :     4.644829
      px      :     1.585772
      py      :     1.353842
      dz2     :     0.010982  d :     0.057250
      dxz     :     0.009256
      dyz     :     0.012073
      dx2y2   :     0.008833
      dxy     :     0.016106
      f0      :     0.000573  f :     0.004324
      f+1     :     0.000529
      f-1     :     0.000704
      f+2     :     0.000636
      f-2     :     0.000574
      f+3     :     0.000593
      f-3     :     0.000716
 13 H s       :     0.631485  s :     0.631485
      pz      :     0.014058  p :     0.045241
      px      :     0.015816
      py      :     0.015367
 14 C s       :     3.214813  s :     3.214813
      pz      :     0.928626  p :     2.830450
      px      :     1.064795
      py      :     0.837029
      dz2     :     0.038961  d :     0.125045
      dxz     :     0.013131
      dyz     :     0.019327
      dx2y2   :     0.019764
      dxy     :     0.033863
      f0      :     0.001686  f :     0.011597
      f+1     :     0.000873
      f-1     :     0.002853
      f+2     :     0.001336
      f-2     :     0.001712
      f+3     :     0.001621
      f-3     :     0.001516
 15 H s       :     0.858074  s :     0.858074
      pz      :     0.004692  p :     0.023226
      px      :     0.008974
      py      :     0.009560
 16 H s       :     0.847786  s :     0.847786
      pz      :     0.004517  p :     0.022170
      px      :     0.012351
      py      :     0.005301
 17 H s       :     0.864251  s :     0.864251
      pz      :     0.013153  p :     0.022321
      px      :     0.004845
      py      :     0.004323


                     *******************************
                     * LOEWDIN POPULATION ANALYSIS *
                     *******************************

----------------------
LOEWDIN ATOMIC CHARGES
----------------------
   0 O :   -0.110754
   1 H :    0.190844
   2 C :   -0.378877
   3 H :    0.108134
   4 H :    0.095132
   5 H :    0.098267
   6 O :   -0.111611
   7 H :    0.193045
   8 C :   -0.383669
   9 H :    0.109344
  10 H :    0.097316
  11 H :    0.096442
  12 O :   -0.115937
  13 H :    0.189258
  14 C :   -0.380018
  15 H :    0.106765
  16 H :    0.100174
  17 H :    0.096145

-------------------------------
LOEWDIN REDUCED ORBITAL CHARGES
-------------------------------
  0 O s       :     3.395063  s :     3.395063
      pz      :     1.453332  p :     4.612966
      px      :     1.469492
      py      :     1.690142
      dz2     :     0.021038  d :     0.095662
      dxz     :     0.024700
      dyz     :     0.020895
      dx2y2   :     0.017806
      dxy     :     0.011224
      f0      :     0.001331  f :     0.007063
      f+1     :     0.000806
      f-1     :     0.001332
      f+2     :     0.001310
      f-2     :     0.000872
      f+3     :     0.000929
      f-3     :     0.000483
  1 H s       :     0.659748  s :     0.659748
      pz      :     0.036324  p :     0.149409
      px      :     0.074932
      py      :     0.038152
  2 C s       :     2.867031  s :     2.867031
      pz      :     0.898818  p :     3.020074
      px      :     1.102952
      py      :     1.018304
      dz2     :     0.121727  d :     0.431754
      dxz     :     0.083476
      dyz     :     0.111124
      dx2y2   :     0.038491
      dxy     :     0.076937
      f0      :     0.013569  f :     0.060019
      f+1     :     0.008712
      f-1     :     0.012751
      f+2     :     0.010093
      f-2     :     0.007892
      f+3     :     0.003229
      f-3     :     0.003773
  3 H s       :     0.827609  s :     0.827609
      pz      :     0.012572  p :     0.064257
      px      :     0.035449
      py      :     0.016236
  4 H s       :     0.840577  s :     0.840577
      pz      :     0.026049  p :     0.064292
      px      :     0.017233
      py      :     0.021010
  5 H s       :     0.836304  s :     0.836304
      pz      :     0.010956  p :     0.065429
      px      :     0.024107
      py      :     0.030366
  6 O s       :     3.395572  s :     3.395572
      pz      :     1.420075  p :     4.612277
      px      :     1.649103
      py      :     1.543099
      dz2     :     0.026528  d :     0.096627
      dxz     :     0.020033
      dyz     :     0.024715
      dx2y2   :     0.008500
      dxy     :     0.016852
      f0      :     0.001554  f :     0.007136
      f+1     :     0.001327
      f-1     :     0.001281
      f+2     :     0.000701
      f-2     :     0.000916
      f+3     :     0.000951
      f-3     :     0.000407
  7 H s       :     0.658936  s :     0.658936
      pz      :     0.031134  p :     0.148019
      px      :     0.050866
      py      :     0.066019
  8 C s       :     2.867489  s :     2.867489
      pz      :     0.851410  p :     3.021261
      px      :     1.077709
      py      :     1.092142
      dz2     :     0.119815  d :     0.434262
      dxz     :     0.129163
      dyz     :     0.092947
      dx2y2   :     0.024209
      dxy     :     0.068128
      f0      :     0.017130  f :     0.060658
      f+1     :     0.011562
      f-1     :     0.014595
      f+2     :     0.007478
      f-2     :     0.005028
      f+3     :     0.003661
      f-3     :     0.001204
  9 H s       :     0.826510  s :     0.826510
      pz      :     0.012768  p :     0.064146
      px      :     0.022156
      py      :     0.029223
 10 H s       :     0.838231  s :     0.838231
      pz      :     0.020440  p :     0.064453
      px      :     0.030185
      py      :     0.013829
 11 H s       :     0.838652  s :     0.838652
      pz      :     0.009978  p :     0.064906
      px      :     0.021984
      py      :     0.032944
 12 O s       :     3.394675  s :     3.394675
      pz      :     1.674988  p :     4.618321
      px      :     1.572006
      py      :     1.371326
      dz2     :     0.019513  d :     0.095885
      dxz     :     0.011358
      dyz     :     0.020792
      dx2y2   :     0.014170
      dxy     :     0.030053
      f0      :     0.000759  f :     0.007056
      f+1     :     0.000751
      f-1     :     0.001265
      f+2     :     0.001053
      f-2     :     0.001039
      f+3     :     0.000874
      f-3     :     0.001315
 13 H s       :     0.661389  s :     0.661389
      pz      :     0.037494  p :     0.149353
      px      :     0.063514
      py      :     0.048345
 14 C s       :     2.868389  s :     2.868389
      pz      :     1.001362  p :     3.021732
      px      :     1.093834
      py      :     0.926537
      dz2     :     0.142274  d :     0.429861
      dxz     :     0.029684
      dyz     :     0.084115
      dx2y2   :     0.058748
      dxy     :     0.115040
      f0      :     0.005420  f :     0.060035
      f+1     :     0.003797
      f-1     :     0.015178
      f+2     :     0.010476
      f-2     :     0.011116
      f+3     :     0.007701
      f-3     :     0.006348
 15 H s       :     0.828990  s :     0.828990
      pz      :     0.013142  p :     0.064246
      px      :     0.025453
      py      :     0.025651
 16 H s       :     0.834606  s :     0.834606
      pz      :     0.012841  p :     0.065220
      px      :     0.036857
      py      :     0.015521
 17 H s       :     0.839405  s :     0.839405
      pz      :     0.038065  p :     0.064450
      px      :     0.013909
      py      :     0.012475


                      *****************************
                      * MAYER POPULATION ANALYSIS *
                      *****************************

  NA   - Mulliken gross atomic population
  ZA   - Total nuclear charge
  QA   - Mulliken gross atomic charge
  VA   - Mayer's total valence
  BVA  - Mayer's bonded valence
  FA   - Mayer's free valence

  ATOM       NA         ZA         QA         VA         BVA        FA
  0 O      8.5043     8.0000    -0.5043     2.1504     1.7503     0.4000
  1 H      0.6715     1.0000     0.3285     0.9058     0.8533     0.0525
  2 C      6.1831     6.0000    -0.1831     4.0231     3.7448     0.2783
  3 H      0.8715     1.0000     0.1285     0.9620     0.9157     0.0463
  4 H      0.8926     1.0000     0.1074     0.9646     0.9158     0.0488
  5 H      0.8738     1.0000     0.1262     0.9617     0.9135     0.0483
  6 O      8.5033     8.0000    -0.5033     2.1434     1.7442     0.3992
  7 H      0.6737     1.0000     0.3263     0.9042     0.8515     0.0528
  8 C      6.1829     6.0000    -0.1829     4.0176     3.7397     0.2779
  9 H      0.8722     1.0000     0.1278     0.9623     0.9156     0.0467
 10 H      0.8818     1.0000     0.1182     0.9638     0.9158     0.0479
 11 H      0.8846     1.0000     0.1154     0.9650     0.9165     0.0485
 12 O      8.5082     8.0000    -0.5082     2.1360     1.7364     0.3996
 13 H      0.6767     1.0000     0.3233     0.9068     0.8541     0.0527
 14 C      6.1819     6.0000    -0.1819     4.0095     3.7322     0.2773
 15 H      0.8813     1.0000     0.1187     0.9723     0.9253     0.0471
 16 H      0.8700     1.0000     0.1300     0.9684     0.9208     0.0476
 17 H      0.8866     1.0000     0.1134     0.9632     0.9149     0.0482

  Mayer bond orders larger than 0.100000
B(  0-O ,  1-H ) :   0.8390 B(  0-O ,  2-C ) :   0.9217 B(  2-C ,  3-H ) :   0.9376 
B(  2-C ,  4-H ) :   0.9399 B(  2-C ,  5-H ) :   0.9389 B(  6-O ,  7-H ) :   0.8397 
B(  6-O ,  8-C ) :   0.9199 B(  8-C ,  9-H ) :   0.9375 B(  8-C , 10-H ) :   0.9372 
B(  8-C , 11-H ) :   0.9384 B( 12-O , 13-H ) :   0.8419 B( 12-O , 14-C ) :   0.9107 
B( 14-C , 15-H ) :   0.9397 B( 14-C , 16-H ) :   0.9395 B( 14-C , 17-H ) :   0.9352 



----------------------------------
MP2 DERIVATIVE INTEGRAL GENERATION
----------------------------------


Input Wavefunction Amplitudes       ... 12meoh.boyd.etal.mol1,3,5-orca.engrad-mp2.def2tzvp.frozencore.mp2tsaa.tmp
Input Correlated Electron Density   ... 12meoh.boyd.etal.mol1,3,5-orca.engrad-mp2.def2tzvp.frozencore.pmp2re
Input Energy Weighted Density       ... 12meoh.boyd.etal.mol1,3,5-orca.engrad-mp2.def2tzvp.frozencore.wmp2.tmp
Input SCF Electron Density          ... 12meoh.boyd.etal.mol1,3,5-orca.engrad-mp2.def2tzvp.frozencore.scfp

One-Electron Terms    ...
                        ... One-Electron Terms done
Prescreening matrices              ... done

Batch handling in the gradient evaluation:
Memory available                      ... 8000.0 MB
Memory per occupied orbital in Q2     ...   10.7 MB
Memory per occupied orbital in Q3     ...    0.1 MB
Total memory requirement per |i>      ...   10.8 MB
Max. Number of orbitals possible      ...    743
Number of orbitals treated per batch  ...     21
Number of batches to be done          ...      1
Batch   0: i=    6 ...    26

---------------------------------------
MP2 TOTAL ENERGY:     -346.524776618 Eh
---------------------------------------

The final MP2 gradient
  0:   0.02136336  -0.00121326   0.00971011
  1:  -0.02302423  -0.00283835  -0.01346194
  2:   0.00402434   0.00214726  -0.00036412
  3:   0.00197402   0.00254540   0.00246833
  4:  -0.00137822  -0.00290294   0.00205298
  5:  -0.00214347   0.00153768   0.00013245
  6:   0.01105667  -0.02078248   0.00912820
  7:  -0.01483367   0.02173085  -0.01008223
  8:   0.00260065  -0.00115097  -0.00312156
  9:   0.00222270  -0.00268632   0.00312279
 10:  -0.00358153  -0.00022603   0.00120280
 11:   0.00142511   0.00296102   0.00009078
 12:  -0.01614748  -0.01324853  -0.00004047
 13:   0.01885919   0.01976090  -0.00022619
 14:  -0.00533770  -0.00389672   0.00276821
 15:  -0.00107152  -0.00433091  -0.00074518
 16:   0.00386719   0.00000566   0.00012578
 17:   0.00012459   0.00258772  -0.00276073

-----------------------------------
NORM OF THE MP2 GRADIENT:  0.064112
-----------------------------------

-------------------------   --------------------
FINAL SINGLE POINT ENERGY      -346.524776618106
-------------------------   --------------------


                            ***************************************
                            *     ORCA property calculations      *
                            ***************************************

                                    ---------------------
                                    Active property flags
                                    ---------------------
   (+) Dipole Moment


------------------------------------------------------------------------------
                       ORCA ELECTRIC PROPERTIES CALCULATION
------------------------------------------------------------------------------

Dipole Moment Calculation                       ... on
Quadrupole Moment Calculation                   ... off
Polarizability Calculation                      ... off
GBWName                                         ... 12meoh.boyd.etal.mol1,3,5-orca.engrad-mp2.def2tzvp.frozencore.gbw
Electron density file                           ... 12meoh.boyd.etal.mol1,3,5-orca.engrad-mp2.def2tzvp.frozencore.scfp
The origin for moment calculation is the CENTER OF MASS  = (-2.259085, -2.050085  0.103481)

-------------
DIPOLE MOMENT
-------------
                                X             Y             Z
Electronic contribution:     -0.55110      -0.10936      -2.03264
Nuclear contribution   :      0.32594       0.94974       2.21782
                        -----------------------------------------
Total Dipole Moment    :     -0.22516       0.84038       0.18518
                        -----------------------------------------
Magnitude (a.u.)       :      0.88951
Magnitude (Debye)      :      2.26096



--------------------
Rotational spectrum 
--------------------
 
Rotational constants in cm-1:     0.057735     0.033846     0.024334 
Rotational constants in MHz :  1730.854889  1014.682772   729.500193 

 Dipole components along the rotational axes: 
x,y,z [a.u.] :     0.194721    -0.572514     0.652335 
x,y,z [Debye]:     0.494940    -1.455215     1.658105 

 

                         *** MP2 UNRELAXED DENSITY ***

------------------------------------------------------------------------------
                       ORCA ELECTRIC PROPERTIES CALCULATION
------------------------------------------------------------------------------

Dipole Moment Calculation                       ... on
Quadrupole Moment Calculation                   ... off
Polarizability Calculation                      ... off
GBWName                                         ... 12meoh.boyd.etal.mol1,3,5-orca.engrad-mp2.def2tzvp.frozencore.gbw
Electron density file                           ... 12meoh.boyd.etal.mol1,3,5-orca.engrad-mp2.def2tzvp.frozencore.pmp2ur
The origin for moment calculation is the CENTER OF MASS  = (-2.259085, -2.050085  0.103481)

-------------
DIPOLE MOMENT
-------------
                                X             Y             Z
Electronic contribution:     -0.54939      -0.12341      -2.04161
Nuclear contribution   :      0.32594       0.94974       2.21782
                        -----------------------------------------
Total Dipole Moment    :     -0.22345       0.82633       0.17621
                        -----------------------------------------
Magnitude (a.u.)       :      0.87396
Magnitude (Debye)      :      2.22143



--------------------
Rotational spectrum 
--------------------
 
Rotational constants in cm-1:     0.057735     0.033846     0.024334 
Rotational constants in MHz :  1730.854889  1014.682772   729.500193 

 Dipole components along the rotational axes: 
x,y,z [a.u.] :     0.193694    -0.566408     0.636764 
x,y,z [Debye]:     0.492330    -1.439695     1.618525 

 

                           *** MP2 RELAXED DENSITY ***

------------------------------------------------------------------------------
                       ORCA ELECTRIC PROPERTIES CALCULATION
------------------------------------------------------------------------------

Dipole Moment Calculation                       ... on
Quadrupole Moment Calculation                   ... off
Polarizability Calculation                      ... off
GBWName                                         ... 12meoh.boyd.etal.mol1,3,5-orca.engrad-mp2.def2tzvp.frozencore.gbw
Electron density file                           ... 12meoh.boyd.etal.mol1,3,5-orca.engrad-mp2.def2tzvp.frozencore.pmp2re
The origin for moment calculation is the CENTER OF MASS  = (-2.259085, -2.050085  0.103481)

-------------
DIPOLE MOMENT
-------------
                                X             Y             Z
Electronic contribution:     -0.55014      -0.13838      -2.05686
Nuclear contribution   :      0.32594       0.94974       2.21782
                        -----------------------------------------
Total Dipole Moment    :     -0.22420       0.81136       0.16095
                        -----------------------------------------
Magnitude (a.u.)       :      0.85701
Magnitude (Debye)      :      2.17836



--------------------
Rotational spectrum 
--------------------
 
Rotational constants in cm-1:     0.057735     0.033846     0.024334 
Rotational constants in MHz :  1730.854889  1014.682772   729.500193 

 Dipole components along the rotational axes: 
x,y,z [a.u.] :     0.194405    -0.563709     0.615559 
x,y,z [Debye]:     0.494138    -1.432835     1.564627 

 

Timings for individual modules:

Sum of individual times         ...       72.461 sec (=   1.208 min)
GTO integral calculation        ...        1.000 sec (=   0.017 min)   1.4 %
SCF iterations                  ...       15.317 sec (=   0.255 min)  21.1 %
MP2 module                      ...       56.144 sec (=   0.936 min)  77.5 %
                             ****ORCA TERMINATED NORMALLY****
TOTAL RUN TIME: 0 days 0 hours 1 minutes 13 seconds 373 msec
