
                                 *****************
                                 * O   R   C   A *
                                 *****************

           --- An Ab Initio, DFT and Semiempirical electronic structure package ---

                  #######################################################
                  #                        -***-                        #
                  #  Department of molecular theory and spectroscopy    #
                  #              Directorship: Frank Neese              #
                  # Max Planck Institute for Chemical Energy Conversion #
                  #                  D-45470 Muelheim/Ruhr              #
                  #                       Germany                       #
                  #                                                     #
                  #                  All rights reserved                #
                  #                        -***-                        #
                  #######################################################


                         Program Version 3.0.3 - RELEASE   -


 With contributions from (in alphabetic order):
   Ute Becker             : Parallelization
   Dmytro Bykov           : SCF Hessian
   Dmitry Ganyushin       : Spin-Orbit,Spin-Spin,Magnetic field MRCI
   Andreas Hansen         : Spin unrestricted coupled pair/coupled cluster methods
   Dimitrios Liakos       : Extrapolation schemes; parallel MDCI
   Robert Izsak           : Overlap fitted RIJCOSX, COSX-SCS-MP3
   Christian Kollmar      : KDIIS, OOCD, Brueckner-CCSD(T), CCSD density
   Simone Kossmann        : Meta GGA functionals, TD-DFT gradient, OOMP2, MP2 Hessian
   Taras Petrenko         : DFT Hessian,TD-DFT gradient, ASA and ECA modules, normal mode analysis, Resonance Raman, ABS, FL, XAS/XES, NRVS
   Christoph Reimann      : Effective Core Potentials
   Michael Roemelt        : Restricted open shell CIS
   Christoph Riplinger    : Improved optimizer, TS searches, QM/MM, DLPNO-CCSD
   Barbara Sandhoefer     : DKH picture change effects
   Igor Schapiro          : Molecular dynamics
   Kantharuban Sivalingam : CASSCF convergence, NEVPT2
   Boris Wezisla          : Elementary symmetry handling
   Frank Wennmohs         : Technical directorship


 We gratefully acknowledge several colleagues who have allowed us to
 interface, adapt or use parts of their codes:
   Stefan Grimme, W. Hujo, H. Kruse, T. Risthaus : VdW corrections, initial TS optimization,
                                                   DFT functionals, gCP
   Ed Valeev                                     : LibInt (2-el integral package), F12 methods
   Garnet Chan, S. Sharma, R. Olivares           : DMRG
   Ulf Ekstrom                                   : XCFun DFT Library
   Mihaly Kallay                                 : mrcc  (arbitrary order and MRCC methods)
   Andreas Klamt, Michael Diedenhofen            : otool_cosmo (COSMO solvation model)
   Frank Weinhold                                : gennbo (NPA and NBO analysis)
   Christopher J. Cramer and Donald G. Truhlar   : smd solvation model


 Your calculation uses the libint2 library for the computation of 2-el integrals
 For citations please refer to: http://libint.valeyev.net

 This ORCA versions uses:
   CBLAS   interface :  Fast vector & matrix operations
   LAPACKE interface :  Fast linear algebra routines
   SCALAPACK package :  Parallel linear algebra routines


Your calculation utilizes the basis: Ahlrichs-TZV
Cite in your paper:
H - Kr: A. Schaefer, H. Horn and R. Ahlrichs, J. Chem. Phys. 97, 2571 (1992).

The def2-TZV basis will be loaded
Cite in your paper:
 	F. Weigend, R. Ahlrichs, Phys. Chem. Chem. Phys. 2005, 7, 3297.

Your calculation utilizes the atom-pairwise dispersion correction
with the Becke-Johnson damping scheme (D3BJ)
Cite in your paper:
S.Grimme, S.Ehrlich, L.Goerigk, J Comput Chem, (2011), 32, 1456–1465 
S.Grimme, J.Antony, S.Ehrlich and H.Krieg, J.Chem.Phys., 132, (2010), 154104 
   

================================================================================
                                        WARNINGS
                       Please study these warnings very carefully!
================================================================================
Now building the actual basis set


INFO   : the flag for use of LIBINT has been found!

================================================================================
                                       INPUT FILE
================================================================================
NAME = 2_B3LYP_SMD_onBP86_SMD_4_waters.inp
|  1> ! B3LYP Def2-TZVP def2-TZVP/J RIJCOSX TightSCF Grid4 D3BJ COSMO
|  2> 
|  3> %pal nprocs 12 end
|  4> 
|  5> %scf
|  6>         maxiter 400
|  7> end
|  8> 
|  9> %cosmo
| 10>         SMD true
| 11>         solvent "WATER"
| 12> end
| 13> 
| 14> * xyz  0  1
| 15> O  -1.647887	-0.576136	-0.741123
| 16> H  -0.701617	-0.639005	-1.109727
| 17> H  -2.034505	0.162893	-1.252800
| 18> O  -0.882715	0.521451	1.551480
| 19> H  -1.196613	1.446576	1.503566
| 20> H  -1.257097	0.106761	0.702144
| 21> O  1.605041	0.700100	0.645924
| 22> H  2.129610	0.062261	1.170281
| 23> H  0.682625	0.641213	1.069940
| 24> O  0.887557	-0.671956	-1.505431
| 25> H  1.250814	-0.142425	-0.715994
| 26> H  1.157877	-1.589067	-1.298696
| 27> **                         ****END OF INPUT****
================================================================================

                       ****************************
                       * Single Point Calculation *
                       ****************************

---------------------------------
CARTESIAN COORDINATES (ANGSTROEM)
---------------------------------
  O     -1.647887   -0.576136   -0.741123
  H     -0.701617   -0.639005   -1.109727
  H     -2.034505    0.162893   -1.252800
  O     -0.882715    0.521451    1.551480
  H     -1.196613    1.446576    1.503566
  H     -1.257097    0.106761    0.702144
  O      1.605041    0.700100    0.645924
  H      2.129610    0.062261    1.170281
  H      0.682625    0.641213    1.069940
  O      0.887557   -0.671956   -1.505431
  H      1.250814   -0.142425   -0.715994
  H      1.157877   -1.589067   -1.298696

----------------------------
CARTESIAN COORDINATES (A.U.)
----------------------------
  NO LB      ZA    FRAG    MASS        X           Y           Z
   0 O     8.0000    0    15.999         -3.114055129649090         -1.088739255892854         -1.400519501550120
   1 H     1.0000    0     1.008         -1.325863980903427         -1.207544448206350         -2.097080113418029
   2 H     1.0000    0     1.008         -3.844657268093456          0.307823159132834         -2.367448900576544
   3 O     8.0000    0    15.999         -1.668089604304298          0.985399582259371          2.931872302256143
   4 H     1.0000    0     1.008         -2.261270858289910          2.733632471903269          2.841327964275441
   5 H     1.0000    0     1.008         -2.375569053774004          0.201749051783567          1.326859866576003
   6 O     8.0000    0    15.999          3.033087923715100          1.322997266358268          1.220619463326951
   7 H     1.0000    0     1.008          4.024379672060037          0.117656238824071          2.211510589731496
   8 H     1.0000    0     1.008          1.289974302167995          1.211716963510048          2.021893579727704
   9 O     8.0000    0    15.999          1.677239658244744         -1.269812814045189         -2.844852303515204
  10 H     1.0000    0     1.008          2.363695904474576         -0.269144244623734         -1.353032573530813
  11 H     1.0000    0     1.008          2.188070426766337         -3.002901438451842         -2.454179771218994

--------------------------------
INTERNAL COORDINATES (ANGSTROEM)
--------------------------------
 O      0   0   0   0.000000     0.000     0.000
 H      1   0   0   1.017472     0.000     0.000
 H      1   2   0   0.978494   102.985     0.000
 O      1   2   3   2.654471    94.034   253.931
 H      4   1   2   0.978102   104.849   109.454
 H      4   1   2   1.016613     4.873   179.041
 O      4   1   2   2.653465    90.192     6.217
 H      7   4   1   0.978244   106.017   248.838
 H      7   4   1   1.016911     4.707   198.024
 O      2   1   3   1.638030   172.325   112.366
 H     10   2   1   1.017629    98.537   346.307
 H     10   2   1   0.978215   103.645    92.022

---------------------------
INTERNAL COORDINATES (A.U.)
---------------------------
 O      0   0   0   0.000000     0.000     0.000
 H      1   0   0   1.922743     0.000     0.000
 H      1   2   0   1.849086   102.985     0.000
 O      1   2   3   5.016222    94.034   253.931
 H      4   1   2   1.848345   104.849   109.454
 H      4   1   2   1.921120     4.873   179.041
 O      4   1   2   5.014322    90.192     6.217
 H      7   4   1   1.848613   106.017   248.838
 H      7   4   1   1.921684     4.707   198.024
 O      2   1   3   3.095428   172.325   112.366
 H     10   2   1   1.923041    98.537   346.307
 H     10   2   1   1.848559   103.645    92.022

---------------------
BASIS SET INFORMATION
---------------------
There are 2 groups of distinct atoms

 Group   1 Type O   : 11s6p2d1f contracted to 5s3p2d1f pattern {62111/411/11/1}
 Group   2 Type H   : 5s1p contracted to 3s1p pattern {311/1}

Atom   0O    basis set group =>   1
Atom   1H    basis set group =>   2
Atom   2H    basis set group =>   2
Atom   3O    basis set group =>   1
Atom   4H    basis set group =>   2
Atom   5H    basis set group =>   2
Atom   6O    basis set group =>   1
Atom   7H    basis set group =>   2
Atom   8H    basis set group =>   2
Atom   9O    basis set group =>   1
Atom  10H    basis set group =>   2
Atom  11H    basis set group =>   2
-------------------------------
AUXILIARY BASIS SET INFORMATION
-------------------------------
There are 2 groups of distinct atoms

 Group   1 Type O   : 12s5p4d2f1g contracted to 6s4p3d1f1g pattern {711111/2111/211/2/1}
 Group   2 Type H   : 5s2p1d contracted to 3s1p1d pattern {311/2/1}

Atom   0O    basis set group =>   1
Atom   1H    basis set group =>   2
Atom   2H    basis set group =>   2
Atom   3O    basis set group =>   1
Atom   4H    basis set group =>   2
Atom   5H    basis set group =>   2
Atom   6O    basis set group =>   1
Atom   7H    basis set group =>   2
Atom   8H    basis set group =>   2
Atom   9O    basis set group =>   1
Atom  10H    basis set group =>   2
Atom  11H    basis set group =>   2
smp-n66.crc.pitt.edu.354009hfi_wait_for_device: The /dev/hfi1_0 device failed to appear after 15.0 seconds: Connection timed out
smp-n66.crc.pitt.edu.354010hfi_wait_for_device: The /dev/hfi1_0 device failed to appear after 15.0 seconds: Connection timed out
smp-n66.crc.pitt.edu.354011hfi_wait_for_device: The /dev/hfi1_0 device failed to appear after 15.0 seconds: Connection timed out
smp-n66.crc.pitt.edu.354012hfi_wait_for_device: The /dev/hfi1_0 device failed to appear after 15.0 seconds: Connection timed out
smp-n66.crc.pitt.edu.354013hfi_wait_for_device: The /dev/hfi1_0 device failed to appear after 15.0 seconds: Connection timed out
smp-n66.crc.pitt.edu.354014hfi_wait_for_device: The /dev/hfi1_0 device failed to appear after 15.0 seconds: Connection timed out
smp-n66.crc.pitt.edu.354016hfi_wait_for_device: The /dev/hfi1_0 device failed to appear after 15.0 seconds: Connection timed out
smp-n66.crc.pitt.edu.354020hfi_wait_for_device: The /dev/hfi1_0 device failed to appear after 15.0 seconds: Connection timed out
smp-n66.crc.pitt.edu.354024hfi_wait_for_device: The /dev/hfi1_0 device failed to appear after 15.0 seconds: Connection timed out
smp-n66.crc.pitt.edu.354027hfi_wait_for_device: The /dev/hfi1_0 device failed to appear after 15.0 seconds: Connection timed out
smp-n66.crc.pitt.edu.354019hfi_wait_for_device: The /dev/hfi1_0 device failed to appear after 15.0 seconds: Connection timed out
smp-n66.crc.pitt.edu.354023hfi_wait_for_device: The /dev/hfi1_0 device failed to appear after 15.0 seconds: Connection timed out


           ************************************************************
           *        Program running with 12 parallel MPI-processes    *
           *              working on a common directory               *
           ************************************************************
------------------------------------------------------------------------------
                           ORCA GTO INTEGRAL CALCULATION
                           -- RI-GTO INTEGRALS CHOSEN --
------------------------------------------------------------------------------

                         BASIS SET STATISTICS AND STARTUP INFO

Gaussian basis set:
 # of primitive gaussian shells          ...  128
 # of primitive gaussian functions       ...  248
 # of contracted shells                  ...   76
 # of contracted basis functions         ...  172
 Highest angular momentum                ...    3
 Maximum contraction depth               ...    6
Auxiliary gaussian basis set:
 # of primitive gaussian shells          ...  160
 # of primitive gaussian functions       ...  408
 # of contracted shells                  ...  100
 # of contracted aux-basis functions     ...  284
 Highest angular momentum                ...    4
 Maximum contraction depth               ...    7
Ratio of auxiliary to basis functions    ...  1.65
Integral package used                  ... LIBINT
 One Electron integrals                  ... done
 Ordering auxiliary basis shells         ... done
 Integral threshhold             Thresh  ...  2.500e-11
 Primitive cut-off               TCut    ...  2.500e-12
 Pre-screening matrix                    ... done
 Shell pair data                         ... 
 Ordering of the shell pairs             ... done (   0.000 sec) 2705 of 2926 pairs
 Determination of significant pairs      ... done (   0.000 sec)
 Creation of shell pair data             ... done (   0.000 sec)
 Storage of shell pair data              ... done (   0.000 sec)
 Shell pair data done in (   0.001 sec)
 Computing two index integrals           ... done
 Cholesky decomposition of the V-matrix  ... done


Timings:
 Total evaluation time                   ...   0.127 sec (  0.002 min)
 One electron matrix time                ...   0.012 sec (  0.000 min) =  9.8%
 Schwartz matrix evaluation time         ...   0.091 sec (  0.002 min) = 71.7%
 Two index repulsion integral time       ...   0.007 sec (  0.000 min) =  5.5%
 Cholesky decomposition of V             ...   0.001 sec (  0.000 min) =  1.0%
 Three index repulsion integral time     ...   0.000 sec (  0.000 min) =  0.0%

           ************************************************************
           *              Shut down parallel processing               *
           ************************************************************
smp-n66.crc.pitt.edu.354036hfi_wait_for_device: The /dev/hfi1_0 device failed to appear after 15.0 seconds: Connection timed out
smp-n66.crc.pitt.edu.354038hfi_wait_for_device: The /dev/hfi1_0 device failed to appear after 15.0 seconds: Connection timed out
smp-n66.crc.pitt.edu.354040hfi_wait_for_device: The /dev/hfi1_0 device failed to appear after 15.0 seconds: Connection timed out
smp-n66.crc.pitt.edu.354043hfi_wait_for_device: The /dev/hfi1_0 device failed to appear after 15.0 seconds: Connection timed out
smp-n66.crc.pitt.edu.354047hfi_wait_for_device: The /dev/hfi1_0 device failed to appear after 15.0 seconds: Connection timed out
smp-n66.crc.pitt.edu.354051hfi_wait_for_device: The /dev/hfi1_0 device failed to appear after 15.0 seconds: Connection timed out
smp-n66.crc.pitt.edu.354037hfi_wait_for_device: The /dev/hfi1_0 device failed to appear after 15.0 seconds: Connection timed out
smp-n66.crc.pitt.edu.354039hfi_wait_for_device: The /dev/hfi1_0 device failed to appear after 15.0 seconds: Connection timed out
smp-n66.crc.pitt.edu.354041hfi_wait_for_device: The /dev/hfi1_0 device failed to appear after 15.0 seconds: Connection timed out
smp-n66.crc.pitt.edu.354050hfi_wait_for_device: The /dev/hfi1_0 device failed to appear after 15.0 seconds: Connection timed out
smp-n66.crc.pitt.edu.354054hfi_wait_for_device: The /dev/hfi1_0 device failed to appear after 15.0 seconds: Connection timed out
smp-n66.crc.pitt.edu.354046hfi_wait_for_device: The /dev/hfi1_0 device failed to appear after 15.0 seconds: Connection timed out


           ************************************************************
           *        Program running with 12 parallel MPI-processes    *
           *              working on a common directory               *
           ************************************************************
-------------------------------------------------------------------------------
                                 ORCA SCF
-------------------------------------------------------------------------------

------------
SCF SETTINGS
------------
Hamiltonian:
 Density Functional     Method          .... DFT(GTOs)
 Exchange Functional    Exchange        .... B88
   X-Alpha parameter    XAlpha          ....  0.666667
   Becke's b parameter  XBeta           ....  0.004200
 Correlation Functional Correlation     .... LYP
 LDA part of GGA corr.  LDAOpt          .... VWN-5
 Gradients option       PostSCFGGA      .... off
 Hybrid DFT is turned on
   Fraction HF Exchange ScalHFX         ....  0.200000
   Scaling of DF-GGA-X  ScalDFX         ....  0.720000
   Scaling of DF-GGA-C  ScalDFC         ....  0.810000
   Scaling of DF-LDA-C  ScalLDAC        ....  1.000000
   Perturbative correction              ....  0.000000
   NL short-range parameter             ....  4.800000
 RI-approximation to the Coulomb term is turned on
   Number of auxiliary basis functions  .... 284
   RIJ-COSX (HFX calculated with COS-X)).... on


General Settings:
 Integral files         IntName         .... 2_B3LYP_SMD_onBP86_SMD_4_waters
 Hartree-Fock type      HFTyp           .... RHF
 Total Charge           Charge          ....    0
 Multiplicity           Mult            ....    1
 Number of Electrons    NEL             ....   40
 Basis Dimension        Dim             ....  172
 Nuclear Repulsion      ENuc            ....    145.5713029165 Eh

Convergence Acceleration:
 DIIS                   CNVDIIS         .... on
   Start iteration      DIISMaxIt       ....    12
   Startup error        DIISStart       ....  0.200000
   # of expansion vecs  DIISMaxEq       ....     5
   Bias factor          DIISBfac        ....   1.050
   Max. coefficient     DIISMaxC        ....  10.000
 Newton-Raphson         CNVNR           .... off
 SOSCF                  CNVSOSCF        .... on
   Start iteration      SOSCFMaxIt      ....   150
   Startup grad/error   SOSCFStart      ....  0.003300
 Level Shifting         CNVShift        .... on
   Level shift para.    LevelShift      ....    0.2500
   Turn off err/grad.   ShiftErr        ....    0.0010
 Zerner damping         CNVZerner       .... off
 Static damping         CNVDamp         .... on
   Fraction old density DampFac         ....    0.7000
   Max. Damping (<1)    DampMax         ....    0.9800
   Min. Damping (>=0)   DampMin         ....    0.0000
   Turn off err/grad.   DampErr         ....    0.1000
 Fernandez-Rico         CNVRico         .... off

SCF Procedure:
 Maximum # iterations   MaxIter         ....   400
 SCF integral mode      SCFMode         .... Direct
   Integral package                     .... LIBINT
 Reset frequeny         DirectResetFreq ....    20
 Integral Threshold     Thresh          ....  2.500e-11 Eh
 Primitive CutOff       TCut            ....  2.500e-12 Eh

Convergence Tolerance:
 Convergence Check Mode ConvCheckMode   .... Total+1el-Energy
 Energy Change          TolE            ....  1.000e-08 Eh
 1-El. energy change                    ....  1.000e-05 Eh
 Orbital Gradient       TolG            ....  1.000e-05
 Orbital Rotation angle TolX            ....  1.000e-05
 DIIS Error             TolErr          ....  5.000e-07


Diagonalization of the overlap matrix:
Smallest eigenvalue                        ... 3.528e-03
Time for diagonalization                   ...    0.005 sec
Threshold for overlap eigenvalues          ... 1.000e-08
Number of eigenvalues below threshold      ... 0
Time for construction of square roots      ...    0.002 sec
Total time needed                          ...    0.006 sec

-------------------
DFT GRID GENERATION
-------------------

General Integration Accuracy     IntAcc      ...  4.670
Radial Grid Type                 RadialGrid  ... Gauss-Chebyshev
Angular Grid (max. acc.)         AngularGrid ... Lebedev-302
Angular grid pruning method      GridPruning ... 3 (G Style)
Weight generation scheme         WeightScheme... Becke
Basis function cutoff            BFCut       ...    1.0000e-11
Integration weight cutoff        WCut        ...    1.0000e-14
Grids for H and He will be reduced by one unit

# of grid points (after initial pruning)     ...  52000 (   0.0 sec)
# of grid points (after weights+screening)   ...  48868 (   0.0 sec)
nearest neighbour list constructed           ...    0.0 sec
Grid point re-assignment to atoms done       ...    0.0 sec
Grid point division into batches done        ...    0.1 sec
Reduced shell lists constructed in    0.1 sec

Total number of grid points                  ...    48868
Total number of batches                      ...      768
Average number of points per batch           ...       63
Average number of grid points per atom       ...     4072
Average number of shells per batch           ...    48.11 (63.30%)
Average number of basis functions per batch  ...   103.31 (60.06%)
Average number of large shells per batch     ...    36.65 (76.18%)
Average number of large basis fcns per batch ...    73.60 (71.24%)
Maximum spatial batch extension              ...  12.34, 12.68, 13.32 au
Average spatial batch extension              ...   0.16,  0.17,  0.18 au

Time for grid setup =    0.176 sec

------------------------------
INITIAL GUESS: MODEL POTENTIAL
------------------------------
Loading Hartree-Fock densities                     ... done
Calculating cut-offs                               ... done
Setting up the integral package                    ... done
Initializing the effective Hamiltonian             ... done
Starting the Coulomb interaction                   ... done (   0.0 sec)
Reading the grid                                   ... done
Mapping shells                                     ... done
Starting the XC term evaluation                    ... done (   0.0 sec)
  promolecular density results
     # of electrons  =     39.995914566
     EX              =    -35.143790349
     EC              =     -1.370482191
     EX+EC           =    -36.514272540
Transforming the Hamiltonian                       ... done (   0.0 sec)
Diagonalizing the Hamiltonian                      ... done (   0.0 sec)
Back transforming the eigenvectors                 ... done (   0.0 sec)
Now organizing SCF variables                       ... done
                      ------------------
                      INITIAL GUESS DONE (   0.3 sec)
                      ------------------
--------------------
COSX GRID GENERATION
--------------------

General Integration Accuracy     IntAcc      ...  3.340
Radial Grid Type                 RadialGrid  ... Gauss-Chebyshev
Angular Grid (max. acc.)         AngularGrid ... Lebedev-50
Angular grid pruning method      GridPruning ... 3 (G Style)
Weight generation scheme         WeightScheme... Becke
Basis function cutoff            BFCut       ...    1.0000e-11
Integration weight cutoff        WCut        ...    1.0000e-14
Grids for H and He will be reduced by one unit

# of grid points (after initial pruning)     ...   4880 (   0.0 sec)
# of grid points (after weights+screening)   ...   4642 (   0.0 sec)
nearest neighbour list constructed           ...    0.0 sec
Grid point re-assignment to atoms done       ...    0.0 sec
Grid point division into batches done        ...    0.0 sec
Reduced shell lists constructed in    0.0 sec

Total number of grid points                  ...     4642
Total number of batches                      ...       81
Average number of points per batch           ...       57
Average number of grid points per atom       ...      387
Average number of shells per batch           ...    49.75 (65.46%)
Average number of basis functions per batch  ...   110.00 (63.95%)
Average number of large shells per batch     ...    36.75 (73.87%)
Average number of large basis fcns per batch ...    74.75 (67.95%)
Maximum spatial batch extension              ...  10.52,  9.26, 13.24 au
Average spatial batch extension              ...   0.33,  0.38,  0.41 au

Overlap Fitting                  UseSFitting ... on
Constructing numerical overlap ... done (      0.0 sec)
Inverting numerical overlap    ... done (      0.0 sec)
Obtaining analytic overlap     ... done (      0.0 sec)
Final contraction and storage  ... done (      0.0 sec)


General Integration Accuracy     IntAcc      ...  3.670
Radial Grid Type                 RadialGrid  ... Gauss-Chebyshev
Angular Grid (max. acc.)         AngularGrid ... Lebedev-50
Angular grid pruning method      GridPruning ... 3 (G Style)
Weight generation scheme         WeightScheme... Becke
Basis function cutoff            BFCut       ...    1.0000e-11
Integration weight cutoff        WCut        ...    1.0000e-14
Grids for H and He will be reduced by one unit

# of grid points (after initial pruning)     ...   6408 (   0.0 sec)
# of grid points (after weights+screening)   ...   6091 (   0.0 sec)
nearest neighbour list constructed           ...    0.0 sec
Grid point re-assignment to atoms done       ...    0.0 sec
Grid point division into batches done        ...    0.0 sec
Reduced shell lists constructed in    0.0 sec

Total number of grid points                  ...     6091
Total number of batches                      ...      100
Average number of points per batch           ...       60
Average number of grid points per atom       ...      508
Average number of shells per batch           ...    50.40 (66.32%)
Average number of basis functions per batch  ...   111.80 (65.00%)
Average number of large shells per batch     ...    37.90 (75.20%)
Average number of large basis fcns per batch ...    77.50 (69.32%)
Maximum spatial batch extension              ...  11.41, 10.06, 17.52 au
Average spatial batch extension              ...   0.29,  0.30,  0.38 au

Overlap Fitting                  UseSFitting ... on
Constructing numerical overlap ... done (      0.0 sec)
Inverting numerical overlap    ... done (      0.0 sec)
Obtaining analytic overlap     ... done (      0.0 sec)
Final contraction and storage  ... done (      0.0 sec)


General Integration Accuracy     IntAcc      ...  4.010
Radial Grid Type                 RadialGrid  ... Gauss-Chebyshev
Angular Grid (max. acc.)         AngularGrid ... Lebedev-110
Angular grid pruning method      GridPruning ... 3 (G Style)
Weight generation scheme         WeightScheme... Becke
Basis function cutoff            BFCut       ...    1.0000e-11
Integration weight cutoff        WCut        ...    1.0000e-14
Grids for H and He will be reduced by one unit

# of grid points (after initial pruning)     ...  11032 (   0.0 sec)
# of grid points (after weights+screening)   ...  10502 (   0.0 sec)
nearest neighbour list constructed           ...    0.0 sec
Grid point re-assignment to atoms done       ...    0.0 sec
Grid point division into batches done        ...    0.0 sec
Reduced shell lists constructed in    0.0 sec

Total number of grid points                  ...    10502
Total number of batches                      ...      170
Average number of points per batch           ...       61
Average number of grid points per atom       ...      875
Average number of shells per batch           ...    50.62 (66.61%)
Average number of basis functions per batch  ...   110.50 (64.24%)
Average number of large shells per batch     ...    37.94 (74.94%)
Average number of large basis fcns per batch ...    76.94 (69.63%)
Maximum spatial batch extension              ...  14.80, 13.46, 16.18 au
Average spatial batch extension              ...   0.28,  0.29,  0.32 au

Overlap Fitting                  UseSFitting ... on
Constructing numerical overlap ... done (      0.0 sec)
Inverting numerical overlap    ... done (      0.0 sec)
Obtaining analytic overlap     ... done (      0.0 sec)
Final contraction and storage  ... done (      0.0 sec)

Time for X-Grid setup             =    0.107 sec

--------------------
COSMO INITIALIZATION
--------------------

Epsilon                                      ...   78.3550
Refractive Index                             ...    1.3300
Potential Evaluation                         ...  ANALYTIC
Technical COSMO parameters:
  rsolv                                      ...    1.3000
  routf                                      ...    0.8500
  disex                                      ...   10.0000
  nppa                                       ... 1082   
  nspa                                       ...   92   
Solvent:                                     ... WATER
Solvent:                                     ... WATER
SMD-CDS solvent descriptors:
  Soln                                       ...    1.3328
  Soln25                                     ...    1.3323
  Sola                                       ...    0.0000
  Solb                                       ...    0.0000
  Solg                                       ...    0.0000
  Solc                                       ...    0.0000
  Solh                                       ...    0.0000
Radii:
 Radius for O  used is    2.8724 Bohr (=   1.5200 Ang.)
 Radius for H  used is    2.2677 Bohr (=   1.2000 Ang.)
Initializing COSMO package            ... done
Setting COSMO radii                   ... done
Setting atoms and making cavity       ...  USING 1082 GRID
done
Cholesky decomposition of A           ... done
--------------
SCF ITERATIONS
--------------
ITER       Energy         Delta-E        Max-DP      RMS-DP      [F,P]     Damp
               ***  Starting incremental Fock matrix formation  ***
  0   -305.4618043749   0.000000000000 0.04861575  0.00178571  0.3131888 0.7000
  1   -305.6182056274  -0.156401252557 0.02985128  0.00108266  0.1309020 0.7000
                               ***Turning on DIIS***
  2   -305.6690925287  -0.050886901226 0.03170944  0.00127311  0.0299972 0.0000
  3   -305.7584141526  -0.089321623938 0.01904775  0.00066467  0.0743993 0.0000
  4   -305.7755990002  -0.017184847617 0.00501285  0.00019802  0.0145040 0.0000
                      *** Initiating the SOSCF procedure ***
                           *** Shutting down DIIS ***
                      *** Re-Reading the Fockian *** 
                      *** Removing any level shift *** 
ITER      Energy       Delta-E        Grad      Rot      Max-DP    RMS-DP
  5   -305.77635377  -0.0007547682  0.000621  0.000621  0.001450  0.000063
               *** Restarting incremental Fock matrix formation ***
  6   -305.77638602  -0.0000322513  0.000264  0.000557  0.000823  0.000037
  7   -305.77638732  -0.0000013022  0.000228  0.000126  0.000263  0.000009
  8   -305.77638898  -0.0000016586  0.000040  0.000067  0.000118  0.000005
  9   -305.77638903  -0.0000000498  0.000004  0.000011  0.000019  0.000001
                 **** Energy Check signals convergence ****
              ***Rediagonalizing the Fockian in SOSCF/NRSCF***

               *****************************************************
               *                     SUCCESS                       *
               *           SCF CONVERGED AFTER  10 CYCLES          *
               *****************************************************

Setting up the final grid:

General Integration Accuracy     IntAcc      ...  5.010
Radial Grid Type                 RadialGrid  ... Gauss-Chebyshev
Angular Grid (max. acc.)         AngularGrid ... Lebedev-434
Angular grid pruning method      GridPruning ... 3 (G Style)
Weight generation scheme         WeightScheme... Becke
Basis function cutoff            BFCut       ...    1.0000e-11
Integration weight cutoff        WCut        ...    1.0000e-14
Grids for H and He will be reduced by one unit

# of grid points (after initial pruning)     ...  96904 (   0.0 sec)
# of grid points (after weights+screening)   ...  90894 (   0.0 sec)
nearest neighbour list constructed           ...    0.0 sec
Grid point re-assignment to atoms done       ...    0.0 sec
Grid point division into batches done        ...    0.4 sec
Reduced shell lists constructed in    0.5 sec

Total number of grid points                  ...    90894
Total number of batches                      ...     1425
Average number of points per batch           ...       63
Average number of grid points per atom       ...     7574
Average number of shells per batch           ...    46.50 (61.18%)
Average number of basis functions per batch  ...    98.48 (57.26%)
Average number of large shells per batch     ...    35.97 (77.35%)
Average number of large basis fcns per batch ...    71.58 (72.69%)
Maximum spatial batch extension              ...  12.06, 12.28, 13.00 au
Average spatial batch extension              ...   0.14,  0.14,  0.15 au

Final grid set up in    0.5 sec
Final integration                            ... done (   0.1 sec)
Change in XC energy                          ...    -0.000035772
Integrated number of electrons               ...    40.000050260
Previous integrated no of electrons          ...    39.999877447
Old exchange energy                            =     -7.135298411 Eh
New exchange energy                            =     -7.134987129 Eh
Exchange energy change after final integration =      0.000311283 Eh
Total energy after final integration           =   -305.776113523 Eh
Final COS-X integration done in                =     0.308 sec
  -1.06208637637068       -1.72429339288681       6.446719043603026E-002
  1.772722987623023E-003  0.214664271108431       8.258118495776984E-003
Total Energy after outlying charge correction =   -305.779604468 Eh

SMD CDS free energy correction energy :                 3.59200     Kcal/mol
Total Energy after SMD CDS correction =              -305.770389307 Eh

----------------
TOTAL SCF ENERGY
----------------

Total Energy       :         -305.77038931 Eh           -8320.43530 eV
Total Energy       :         -305.77038931 Eh           -8320.43530 eV
COSMO(ediel)       :           -0.03924274 Eh              -1.06785 eV
SMD CDS (Gcds)     :            0.00572422 Eh               0.15576 eV

Components:
Nuclear Repulsion  :          145.57130292 Eh            3961.19654 eV
Electronic Energy  :         -451.34169222 Eh          -12281.63183 eV

One Electron Energy:         -710.06913792 Eh          -19321.96355 eV
Two Electron Energy:          258.72744569 Eh            7040.33172 eV

Virial components:
Potential Energy   :         -610.19644010 Eh          -16604.28928 eV
Kinetic Energy     :          304.42605079 Eh            8283.85398 eV
Virial Ratio       :            2.00441598


DFT components:
N(Alpha)           :       20.000025129935 electrons
N(Beta)            :       20.000025129935 electrons
N(Total)           :       40.000050259871 electrons
E(X)               :      -28.443612171469 Eh       
E(C)               :       -1.628924400151 Eh       
E(XC)              :      -30.072536571620 Eh       

---------------
SCF CONVERGENCE
---------------

  Last Energy change         ...   -3.4962e-09  Tolerance :   1.0000e-08
  Last MAX-Density change    ...    3.4972e-15  Tolerance :   1.0000e-07
  Last RMS-Density change    ...    1.3086e-16  Tolerance :   5.0000e-09
  Last Orbital Gradient      ...    3.6931e-06  Tolerance :   1.0000e-05
  Last Orbital Rotation      ...    3.8909e-06  Tolerance :   1.0000e-05

             **** THE GBW FILE WAS UPDATED (2_B3LYP_SMD_onBP86_SMD_4_waters.gbw) ****
             **** DENSITY FILE WAS UPDATED (2_B3LYP_SMD_onBP86_SMD_4_waters.scfp.tmp) ****
             **** ENERGY FILE WAS UPDATED (2_B3LYP_SMD_onBP86_SMD_4_waters.en.tmp) ****
----------------
ORBITAL ENERGIES
----------------

  NO   OCC          E(Eh)            E(eV) 
   0   2.0000     -19.126094      -520.4475 
   1   2.0000     -19.125900      -520.4422 
   2   2.0000     -19.125866      -520.4413 
   3   2.0000     -19.125766      -520.4386 
   4   2.0000      -1.022319       -27.8187 
   5   2.0000      -1.002534       -27.2803 
   6   2.0000      -1.002214       -27.2716 
   7   2.0000      -0.982758       -26.7422 
   8   2.0000      -0.528665       -14.3857 
   9   2.0000      -0.520720       -14.1695 
  10   2.0000      -0.515479       -14.0269 
  11   2.0000      -0.514783       -14.0080 
  12   2.0000      -0.430412       -11.7121 
  13   2.0000      -0.411647       -11.2015 
  14   2.0000      -0.398673       -10.8484 
  15   2.0000      -0.387010       -10.5311 
  16   2.0000      -0.322827        -8.7846 
  17   2.0000      -0.319680        -8.6989 
  18   2.0000      -0.318532        -8.6677 
  19   2.0000      -0.313065        -8.5189 
  20   0.0000       0.020609         0.5608 
  21   0.0000       0.062373         1.6973 
  22   0.0000       0.072964         1.9855 
  23   0.0000       0.102332         2.7846 
  24   0.0000       0.178176         4.8484 
  25   0.0000       0.179507         4.8846 
  26   0.0000       0.217030         5.9057 
  27   0.0000       0.223631         6.0853 
  28   0.0000       0.288391         7.8475 
  29   0.0000       0.321427         8.7465 
  30   0.0000       0.327487         8.9114 
  31   0.0000       0.348252         9.4764 
  32   0.0000       0.358241         9.7482 
  33   0.0000       0.367509        10.0004 
  34   0.0000       0.388046        10.5593 
  35   0.0000       0.418915        11.3992 
  36   0.0000       0.420266        11.4360 
  37   0.0000       0.433782        11.8038 
  38   0.0000       0.466909        12.7052 
  39   0.0000       0.496985        13.5236 
  40   0.0000       0.542883        14.7726 
  41   0.0000       0.544579        14.8187 
  42   0.0000       0.574523        15.6336 
  43   0.0000       0.588694        16.0192 
  44   0.0000       0.612697        16.6723 
  45   0.0000       0.636482        17.3196 
  46   0.0000       0.711779        19.3685 
  47   0.0000       0.720150        19.5963 
  48   0.0000       0.833308        22.6755 
  49   0.0000       0.843728        22.9590 
  50   0.0000       0.869957        23.6727 
  51   0.0000       0.896163        24.3858 
  52   0.0000       1.079142        29.3650 
  53   0.0000       1.102082        29.9892 
  54   0.0000       1.179414        32.0935 
  55   0.0000       1.188299        32.3353 
  56   0.0000       1.196099        32.5475 
  57   0.0000       1.205023        32.7903 
  58   0.0000       1.235167        33.6106 
  59   0.0000       1.322084        35.9757 
  60   0.0000       1.338169        36.4134 
  61   0.0000       1.349008        36.7084 
  62   0.0000       1.354293        36.8522 
  63   0.0000       1.382623        37.6231 
  64   0.0000       1.545201        42.0471 
  65   0.0000       1.551223        42.2109 
  66   0.0000       1.593369        43.3578 
  67   0.0000       1.601566        43.5808 
  68   0.0000       1.652281        44.9608 
  69   0.0000       1.716111        46.6978 
  70   0.0000       1.733265        47.1645 
  71   0.0000       1.772068        48.2204 
  72   0.0000       1.794356        48.8269 
  73   0.0000       1.835161        49.9373 
  74   0.0000       1.847535        50.2740 
  75   0.0000       1.863266        50.7021 
  76   0.0000       2.015066        54.8327 
  77   0.0000       2.044831        55.6427 
  78   0.0000       2.051291        55.8185 
  79   0.0000       2.064763        56.1851 
  80   0.0000       2.090135        56.8755 
  81   0.0000       2.104752        57.2732 
  82   0.0000       2.130420        57.9717 
  83   0.0000       2.164741        58.9056 
  84   0.0000       2.213962        60.2450 
  85   0.0000       2.264479        61.6196 
  86   0.0000       2.292784        62.3898 
  87   0.0000       2.295320        62.4588 
  88   0.0000       2.322655        63.2027 
  89   0.0000       2.338415        63.6315 
  90   0.0000       2.353547        64.0433 
  91   0.0000       2.357107        64.1402 
  92   0.0000       2.359758        64.2123 
  93   0.0000       2.395853        65.1945 
  94   0.0000       2.412735        65.6539 
  95   0.0000       2.417949        65.7957 
  96   0.0000       2.500088        68.0308 
  97   0.0000       2.522535        68.6417 
  98   0.0000       2.524998        68.7087 
  99   0.0000       2.536086        69.0104 
 100   0.0000       2.600250        70.7564 
 101   0.0000       2.608729        70.9871 
 102   0.0000       2.614610        71.1471 
 103   0.0000       2.696074        73.3639 
 104   0.0000       2.852111        77.6099 
 105   0.0000       2.879852        78.3647 
 106   0.0000       2.913875        79.2906 
 107   0.0000       3.022284        82.2405 
 108   0.0000       3.054522        83.1178 
 109   0.0000       3.109433        84.6120 
 110   0.0000       3.117046        84.8191 
 111   0.0000       3.142865        85.5217 
 112   0.0000       3.690086       100.4123 
 113   0.0000       3.717810       101.1668 
 114   0.0000       3.746392       101.9445 
 115   0.0000       3.804201       103.5176 
 116   0.0000       3.881752       105.6278 
 117   0.0000       3.932120       106.9984 
 118   0.0000       3.960085       107.7594 
 119   0.0000       3.984615       108.4269 
 120   0.0000       5.086488       138.4104 
 121   0.0000       5.087428       138.4360 
 122   0.0000       5.088245       138.4582 
 123   0.0000       5.090349       138.5154 
 124   0.0000       5.211025       141.7992 
 125   0.0000       5.222053       142.0993 
 126   0.0000       5.229391       142.2990 
 127   0.0000       5.231563       142.3581 
 128   0.0000       5.326086       144.9302 
 129   0.0000       5.329928       145.0347 
 130   0.0000       5.347548       145.5142 
 131   0.0000       5.359163       145.8302 
 132   0.0000       5.377030       146.3164 
 133   0.0000       5.379820       146.3923 
 134   0.0000       5.386387       146.5710 
 135   0.0000       5.413260       147.3023 
 136   0.0000       5.413567       147.3107 
 137   0.0000       5.426057       147.6505 
 138   0.0000       5.432330       147.8212 
 139   0.0000       5.437993       147.9753 
 140   0.0000       5.949080       161.8827 
 141   0.0000       5.951733       161.9549 
 142   0.0000       5.953917       162.0143 
 143   0.0000       5.954382       162.0270 
 144   0.0000       6.134606       166.9311 
 145   0.0000       6.211630       169.0271 
 146   0.0000       6.219809       169.2496 
 147   0.0000       6.226438       169.4300 
 148   0.0000       6.317444       171.9064 
 149   0.0000       6.340404       172.5312 
 150   0.0000       6.362940       173.1444 
 151   0.0000       6.381977       173.6624 
 152   0.0000       6.388385       173.8368 
 153   0.0000       6.423543       174.7935 
 154   0.0000       6.443925       175.3481 
 155   0.0000       6.477401       176.2590 
 156   0.0000       6.509925       177.1441 
 157   0.0000       6.523433       177.5116 
 158   0.0000       6.543723       178.0638 
 159   0.0000       6.654337       181.0737 
 160   0.0000       6.870543       186.9570 
 161   0.0000       6.970920       189.6884 
 162   0.0000       6.982405       190.0009 
 163   0.0000       6.985373       190.0817 
 164   0.0000       7.043276       191.6573 
 165   0.0000       7.076495       192.5612 
 166   0.0000       7.103620       193.2993 
 167   0.0000       7.120057       193.7466 
 168   0.0000      43.379647      1180.4202 
 169   0.0000      43.451243      1182.3684 
 170   0.0000      43.462471      1182.6740 
 171   0.0000      43.510643      1183.9848 

                    ********************************
                    * MULLIKEN POPULATION ANALYSIS *
                    ********************************

-----------------------
MULLIKEN ATOMIC CHARGES
-----------------------
   0 O :   -0.755167
   1 H :    0.371853
   2 H :    0.381471
   3 O :   -0.752532
   4 H :    0.381489
   5 H :    0.373998
   6 O :   -0.752332
   7 H :    0.381451
   8 H :    0.367580
   9 O :   -0.753977
  10 H :    0.375872
  11 H :    0.380295
Sum of atomic charges:    0.0000000

--------------------------------
MULLIKEN REDUCED ORBITAL CHARGES
--------------------------------
  0 O s       :     3.806903  s :     3.806903
      pz      :     1.713867  p :     4.928042
      px      :     1.522333
      py      :     1.691842
      dz2     :     0.001421  d :     0.019214
      dxz     :     0.004293
      dyz     :     0.005813
      dx2y2   :     0.006198
      dxy     :     0.001488
      f0      :     0.000189  f :     0.001009
      f+1     :     0.000023
      f-1     :     0.000053
      f+2     :     0.000224
      f-2     :     0.000198
      f+3     :     0.000289
      f-3     :     0.000033
  1 H s       :     0.571175  s :     0.571175
      pz      :     0.012969  p :     0.056972
      px      :     0.034206
      py      :     0.009797
  2 H s       :     0.575771  s :     0.575771
      pz      :     0.014319  p :     0.042758
      px      :     0.011578
      py      :     0.016861
  3 O s       :     3.804285  s :     3.804285
      pz      :     1.704196  p :     4.927857
      px      :     1.781985
      py      :     1.441675
      dz2     :     0.005843  d :     0.019377
      dxz     :     0.003941
      dyz     :     0.002468
      dx2y2   :     0.004019
      dxy     :     0.003106
      f0      :     0.000003  f :     0.001013
      f+1     :     0.000178
      f-1     :     0.000309
      f+2     :     0.000029
      f-2     :     0.000093
      f+3     :     0.000261
      f-3     :     0.000140
  4 H s       :     0.575665  s :     0.575665
      pz      :     0.010857  p :     0.042846
      px      :     0.013312
      py      :     0.018677
  5 H s       :     0.569286  s :     0.569286
      pz      :     0.029881  p :     0.056716
      px      :     0.013643
      py      :     0.013192
  6 O s       :     3.806256  s :     3.806256
      pz      :     1.695049  p :     4.925837
      px      :     1.463164
      py      :     1.767624
      dz2     :     0.001126  d :     0.019231
      dxz     :     0.005625
      dyz     :     0.005559
      dx2y2   :     0.003940
      dxy     :     0.002982
      f0      :     0.000173  f :     0.001009
      f+1     :     0.000005
      f-1     :     0.000054
      f+2     :     0.000173
      f-2     :     0.000280
      f+3     :     0.000255
      f-3     :     0.000069
  7 H s       :     0.575783  s :     0.575783
      pz      :     0.014274  p :     0.042766
      px      :     0.012619
      py      :     0.015872
  8 H s       :     0.575631  s :     0.575631
      pz      :     0.013823  p :     0.056789
      px      :     0.032714
      py      :     0.010253
  9 O s       :     3.804950  s :     3.804950
      pz      :     1.734554  p :     4.928690
      px      :     1.797120
      py      :     1.397016
      dz2     :     0.004263  d :     0.019325
      dxz     :     0.003734
      dyz     :     0.005290
      dx2y2   :     0.003649
      dxy     :     0.002388
      f0      :     0.000031  f :     0.001012
      f+1     :     0.000127
      f-1     :     0.000234
      f+2     :     0.000083
      f-2     :     0.000147
      f+3     :     0.000212
      f-3     :     0.000179
 10 H s       :     0.567430  s :     0.567430
      pz      :     0.027390  p :     0.056698
      px      :     0.013444
      py      :     0.015864
 11 H s       :     0.576787  s :     0.576787
      pz      :     0.011392  p :     0.042918
      px      :     0.013186
      py      :     0.018339


                     *******************************
                     * LOEWDIN POPULATION ANALYSIS *
                     *******************************

----------------------
LOEWDIN ATOMIC CHARGES
----------------------
   0 O :   -0.332577
   1 H :    0.146854
   2 H :    0.184126
   3 O :   -0.330274
   4 H :    0.184100
   5 H :    0.146583
   6 O :   -0.330992
   7 H :    0.184232
   8 H :    0.146919
   9 O :   -0.329973
  10 H :    0.147215
  11 H :    0.183786

-------------------------------
LOEWDIN REDUCED ORBITAL CHARGES
-------------------------------
  0 O s       :     3.478312  s :     3.478312
      pz      :     1.679038  p :     4.824154
      px      :     1.485429
      py      :     1.659686
      dz2     :     0.002365  d :     0.028124
      dxz     :     0.006315
      dyz     :     0.007669
      dx2y2   :     0.009186
      dxy     :     0.002589
      f0      :     0.000322  f :     0.001987
      f+1     :     0.000050
      f-1     :     0.000091
      f+2     :     0.000575
      f-2     :     0.000414
      f+3     :     0.000519
      f-3     :     0.000016
  1 H s       :     0.655423  s :     0.655423
      pz      :     0.043859  p :     0.197723
      px      :     0.124367
      py      :     0.029497
  2 H s       :     0.659061  s :     0.659061
      pz      :     0.052704  p :     0.156813
      px      :     0.037521
      py      :     0.066587
  3 O s       :     3.477332  s :     3.477332
      pz      :     1.656946  p :     4.822796
      px      :     1.730021
      py      :     1.435829
      dz2     :     0.008323  d :     0.028157
      dxz     :     0.004350
      dyz     :     0.003806
      dx2y2   :     0.007143
      dxy     :     0.004535
      f0      :     0.000058  f :     0.001989
      f+1     :     0.000360
      f-1     :     0.000600
      f+2     :     0.000030
      f-2     :     0.000212
      f+3     :     0.000527
      f-3     :     0.000203
  4 H s       :     0.658959  s :     0.658959
      pz      :     0.034546  p :     0.156941
      px      :     0.045002
      py      :     0.077393
  5 H s       :     0.656506  s :     0.656506
      pz      :     0.109313  p :     0.196911
      px      :     0.046270
      py      :     0.041328
  6 O s       :     3.477949  s :     3.477949
      pz      :     1.666291  p :     4.822860
      px      :     1.432106
      py      :     1.724462
      dz2     :     0.001574  d :     0.028189
      dxz     :     0.008841
      dyz     :     0.006996
      dx2y2   :     0.006174
      dxy     :     0.004605
      f0      :     0.000311  f :     0.001994
      f+1     :     0.000033
      f-1     :     0.000102
      f+2     :     0.000435
      f-2     :     0.000628
      f+3     :     0.000422
      f-3     :     0.000065
  7 H s       :     0.658899  s :     0.658899
      pz      :     0.052940  p :     0.156869
      px      :     0.043151
      py      :     0.060777
  8 H s       :     0.655930  s :     0.655930
      pz      :     0.047522  p :     0.197151
      px      :     0.118087
      py      :     0.031543
  9 O s       :     3.477437  s :     3.477437
      pz      :     1.690872  p :     4.822375
      px      :     1.740112
      py      :     1.391390
      dz2     :     0.005704  d :     0.028169
      dxz     :     0.003649
      dyz     :     0.007901
      dx2y2   :     0.007066
      dxy     :     0.003849
      f0      :     0.000110  f :     0.001992
      f+1     :     0.000227
      f-1     :     0.000495
      f+2     :     0.000141
      f-2     :     0.000348
      f+3     :     0.000417
      f-3     :     0.000252
 10 H s       :     0.655686  s :     0.655686
      pz      :     0.100007  p :     0.197099
      px      :     0.045583
      py      :     0.051510
 11 H s       :     0.659316  s :     0.659316
      pz      :     0.037970  p :     0.156898
      px      :     0.043847
      py      :     0.075081


                      *****************************
                      * MAYER POPULATION ANALYSIS *
                      *****************************

  NA   - Mulliken gross atomic population
  ZA   - Total nuclear charge
  QA   - Mulliken gross atomic charge
  VA   - Mayer's total valence
  BVA  - Mayer's bonded valence
  FA   - Mayer's free valence

  ATOM       NA         ZA         QA         VA         BVA        FA
  0 O      8.7552     8.0000    -0.7552     1.7581     1.7581    -0.0000
  1 H      0.6281     1.0000     0.3719     0.9252     0.9252    -0.0000
  2 H      0.6185     1.0000     0.3815     0.8690     0.8690    -0.0000
  3 O      8.7525     8.0000    -0.7525     1.7615     1.7615     0.0000
  4 H      0.6185     1.0000     0.3815     0.8686     0.8686     0.0000
  5 H      0.6260     1.0000     0.3740     0.9269     0.9269     0.0000
  6 O      8.7523     8.0000    -0.7523     1.7595     1.7595     0.0000
  7 H      0.6185     1.0000     0.3815     0.8689     0.8689    -0.0000
  8 H      0.6324     1.0000     0.3676     0.9296     0.9296    -0.0000
  9 O      8.7540     8.0000    -0.7540     1.7624     1.7624    -0.0000
 10 H      0.6241     1.0000     0.3759     0.9258     0.9258     0.0000
 11 H      0.6197     1.0000     0.3803     0.8700     0.8700    -0.0000

  Mayer bond orders larger than 0.1
B(  0-O ,  1-H ) :   0.7575 B(  0-O ,  2-H ) :   0.8587 B(  0-O ,  5-H ) :   0.1593 
B(  1-H ,  9-O ) :   0.1640 B(  3-O ,  4-H ) :   0.8592 B(  3-O ,  5-H ) :   0.7581 
B(  3-O ,  8-H ) :   0.1647 B(  6-O ,  7-H ) :   0.8589 B(  6-O ,  8-H ) :   0.7589 
B(  6-O , 10-H ) :   0.1604 B(  9-O , 10-H ) :   0.7560 B(  9-O , 11-H ) :   0.8598 


-------
TIMINGS
-------

Total SCF time: 0 days 0 hours 0 min 6 sec 

Total time                  ....       6.259 sec
Sum of individual times     ....       7.615 sec  (121.7%)

Fock matrix formation       ....       4.593 sec  ( 73.4%)
  Coulomb formation         ....       3.986 sec  ( 86.8% of F)
  Split-RI-J                ....       0.794 sec  ( 17.3% of F)
  Chain of spheres X        ....       2.017 sec  ( 43.9% of F)
  COS-X 1 center corr.      ....       0.000 sec  (  0.0% of F)
  XC integration            ....       0.599 sec  ( 13.0% of F)
    Basis function eval.    ....       0.143 sec  ( 23.9% of XC)
    Density eval.           ....       0.087 sec  ( 14.4% of XC)
    XC-Functional eval.     ....       0.033 sec  (  5.5% of XC)
    XC-Potential eval.      ....       0.178 sec  ( 29.7% of XC)
Diagonalization             ....       0.041 sec  (  0.7%)
Density matrix formation    ....       0.026 sec  (  0.4%)
Population analysis         ....       0.016 sec  (  0.3%)
Initial guess               ....       0.301 sec  (  4.8%)
Orbital Transformation      ....       0.000 sec  (  0.0%)
Orbital Orthonormalization  ....       0.000 sec  (  0.0%)
DIIS solution               ....       0.009 sec  (  0.1%)
SOSCF solution              ....       0.068 sec  (  1.1%)
Grid generation             ....       0.823 sec  ( 13.2%)
COSMO(total)                ....       1.737 sec  ( 27.8%)
   Initialization           ....       0.272 sec  ( 15.7% of COSMO)
   Potential evaluation     ....       0.731 sec  ( 42.1% of COSMO)
   Charge calculation       ....       0.131 sec  (  7.5% of COSMO)
   Fock-Matrix contrib.     ....       0.672 sec  ( 38.7% of COSMO)
   Outer-lying charge       ....       0.099 sec  (  5.7% of COSMO)
           ************************************************************
           *              Shut down parallel processing               *
           ************************************************************

Entering the calculation of the dispersion correction...

Checking the input atom types...

Done


-------------------------------------------------------------------------------
                          DFT DISPERSION CORRECTION                            
                                                                               
                                DFTD3 V2.1  Rev 6                               
                          USING Becke-Johnson damping                          
-------------------------------------------------------------------------------
The B3LYP functional is recognized
Active option DFTDOPT                   ...         4   

molecular C6(AA) [au] = 712.099083 


            DFT-D V3
 parameters
 s6 scaling factor         :     1.0000 
 a1 scaling factor         :     0.3981 
 s8 scaling factor         :     1.9889 
 a2 scaling factor         :     4.4211 
 ad hoc parameters k1-k3   :    16.0000     1.3333    -4.0000 

 Edisp/kcal,au: -5.282032722717  -0.008417454043 
 E6   /kcal   :  -2.849709031 
 E8   /kcal   :  -2.432323692 
 % E8         :  46.049008397 

-------------------------   ----------------
Dispersion correction           -0.008417454
-------------------------   ----------------


-------------------------   --------------------
FINAL SINGLE POINT ENERGY      -305.778806760946
-------------------------   --------------------


                            ***************************************
                            *     ORCA property calculations      *
                            ***************************************

                                    ---------------------
                                    Active property flags
                                    ---------------------
   (+) Dipole Moment


------------------------------------------------------------------------------
                       ORCA ELECTRIC PROPERTIES CALCULATION
------------------------------------------------------------------------------

Dipole Moment Calculation                       ... on
Quadrupole Moment Calculation                   ... off
Polarizability Calculation                      ... off
GBWName                                         ... 2_B3LYP_SMD_onBP86_SMD_4_waters.gbw
Electron density file                           ... 2_B3LYP_SMD_onBP86_SMD_4_waters.scfp.tmp

-------------
DIPOLE MOMENT
-------------
                                X             Y             Z
Electronic contribution:      0.00172      -0.00027       0.00105
Nuclear contribution   :      0.08915       0.08514       0.13902
                        -----------------------------------------
Total Dipole Moment    :      0.09087       0.08487       0.14006
                        -----------------------------------------
Magnitude (a.u.)       :      0.18729
Magnitude (Debye)      :      0.47606

smp-n66.crc.pitt.edu.354078hfi_wait_for_device: The /dev/hfi1_0 device failed to appear after 15.0 seconds: Connection timed out
smp-n66.crc.pitt.edu.354080hfi_wait_for_device: The /dev/hfi1_0 device failed to appear after 15.0 seconds: Connection timed out
smp-n66.crc.pitt.edu.354082hfi_wait_for_device: The /dev/hfi1_0 device failed to appear after 15.0 seconds: Connection timed out
smp-n66.crc.pitt.edu.354085hfi_wait_for_device: The /dev/hfi1_0 device failed to appear after 15.0 seconds: Connection timed out
smp-n66.crc.pitt.edu.354083hfi_wait_for_device: The /dev/hfi1_0 device failed to appear after 15.0 seconds: Connection timed out
smp-n66.crc.pitt.edu.354089hfi_wait_for_device: The /dev/hfi1_0 device failed to appear after 15.0 seconds: Connection timed out
smp-n66.crc.pitt.edu.354079hfi_wait_for_device: The /dev/hfi1_0 device failed to appear after 15.0 seconds: Connection timed out
smp-n66.crc.pitt.edu.354093hfi_wait_for_device: The /dev/hfi1_0 device failed to appear after 15.0 seconds: Connection timed out
smp-n66.crc.pitt.edu.354088hfi_wait_for_device: The /dev/hfi1_0 device failed to appear after 15.0 seconds: Connection timed out
smp-n66.crc.pitt.edu.354092hfi_wait_for_device: The /dev/hfi1_0 device failed to appear after 15.0 seconds: Connection timed out
smp-n66.crc.pitt.edu.354081hfi_wait_for_device: The /dev/hfi1_0 device failed to appear after 15.0 seconds: Connection timed out
smp-n66.crc.pitt.edu.354096hfi_wait_for_device: The /dev/hfi1_0 device failed to appear after 15.0 seconds: Connection timed out

Timings for individual modules:

Sum of individual times         ...       37.404 sec (=   0.623 min)
GTO integral calculation        ...       15.511 sec (=   0.259 min)  41.5 %
SCF iterations                  ...       21.893 sec (=   0.365 min)  58.5 %
                             ****ORCA TERMINATED NORMALLY****
TOTAL RUN TIME: 0 days 0 hours 0 minutes 52 seconds 885 msec
cp: cannot stat ‘/scratch/slurm-1328841/*.{prop}’: No such file or directory
