72
Energy:   -316.87266911
C    0.27222285  -1.47397911  -4.19543252
H   -0.40142235  -1.15685890  -4.96389664
H   -0.26846705  -2.01786651  -3.44928239
H    1.02616165  -2.10371046  -4.61959501
C    0.93485054  -0.24125930  -3.55283902
N    1.42820697   0.67655664  -3.07439895
C   -1.75866919   1.89921493   2.79540222
H   -2.33057681   1.62798790   1.93269847
H   -2.32624432   2.57358839   3.40201413
H   -1.52663978   1.02054347   3.36020121
C   -0.45261242   2.58361674   2.35109391
N    0.51980622   3.09318499   2.02028618
C   -0.17614295  -3.07715502   3.46953860
H    0.64512446  -3.20019010   2.79479243
H   -0.58035863  -4.03619952   3.71801883
H    0.16382642  -2.59169701   4.36040921
C   -1.26568936  -2.21846443   2.80085400
N   -2.07690619  -1.57913026   2.30298791
C    0.20062140   0.00385517   0.01502442
H   -0.14159792  -0.42406915  -0.90403319
H    0.62474838   0.96739677  -0.17629459
H   -0.62333237   0.10452776   0.69020166
C    1.26861498  -0.91192823   0.64138733
N    2.06378474  -1.59377059   1.10774298
C   -1.15610803   3.09427721  -3.23083409
H   -1.39333793   4.10093112  -3.50518799
H   -1.67591522   2.41691033  -3.87571678
H   -0.10175596   2.93802970  -3.32478892
C   -1.58402011   2.84522923  -1.77259325
N   -1.90262011   2.65980169  -0.68686666
C    3.18255846   0.96572198   3.33965257
H    3.54497287   0.27813072   2.60427905
H    3.89670172   1.04973502   4.13201632
H    3.03523724   1.92498344   2.88908292
C    1.84515022   0.45380312   3.90611375
N    0.84938899   0.07265626   4.32786985
C    0.99039338  -4.75753854  -0.21459094
H    1.43827399  -5.23309112  -1.06202996
H    0.57586619  -5.50092356   0.43382636
H    1.73317167  -4.19733713   0.31394845
C   -0.12665808  -3.80944914  -0.68885093
N   -0.95835367  -3.10355349  -1.04195904
C   -3.44418942  -0.58250755  -0.71248025
H   -3.32228708   0.30348327  -0.12506194
H   -2.86902087  -1.37650881  -0.28394527
H   -4.47752369  -0.85967884  -0.72966912
C   -2.96022065  -0.31598381  -2.14995698
N   -2.59988391  -0.11754476  -3.22022374
C   -3.88850566  -4.19037110   0.60233664
H   -3.61226424  -3.93884992  -0.40032380
H   -4.07083415  -3.29406011   1.15756814
H   -4.77586901  -4.78811262   0.58853633
C   -2.74652816  -4.98209184   1.26616317
N   -1.89627400  -5.57156392   1.76041219
C    4.33177627  -1.06163572  -1.55001548
H    4.00050456  -0.12658043  -1.95105269
H    5.34288168  -1.24060970  -1.85090289
H    4.27766456  -1.03081140  -0.48182969
C    3.43120272  -2.19419358  -2.07715869
N    2.76068478  -3.03743440  -2.46964077
C   -1.14194343   5.88604993   0.88126189
H   -1.80836724   5.05331541   0.96689318
H   -1.67529346   6.79176696   1.08154543
H   -0.34429335   5.77849447   1.58630462
C   -0.56318480   5.93580922  -0.54497879
N   -0.13227270   5.97285727  -1.60687980
C    2.13504816   3.47670174  -1.09459465
H    1.15222677   3.37545083  -0.68385074
H    2.10965848   3.25078779  -2.14016499
H    2.47836758   4.48043989  -0.95480699
C    3.09199681   2.50294022  -0.38210760
N    3.80448857   1.77793050   0.14837139
