72
Energy:   -318.01981951
C    0.65612241   0.44965636   1.09445799
H    0.60133465   1.51800850   1.11730946
H    1.67580522   0.14250726   1.19840746
H    0.07810903   0.04558496   1.89914795
C    0.09930103  -0.06434714  -0.24619496
N   -0.31527780  -0.44704611  -1.24437203
C    4.27932313   1.51730697   2.15387079
H    5.29804330   1.83704272   2.22371665
H    4.22941267   0.60403875   1.59857880
H    3.88698978   1.35904550   3.13668662
C    3.44962664   2.59933017   1.43802897
N    2.83187988   3.40494563   0.90505220
C   -0.28544110  -2.37111188  -5.16725156
H    0.06513371  -1.39888727  -5.44433781
H   -0.25041863  -3.01880810  -6.01822873
H    0.33663948  -2.76698240  -4.39187979
C   -1.73574649  -2.26843239  -4.65963835
N   -2.81556479  -2.19198284  -4.28169724
C    1.46217391   3.29691899  -2.16008931
H    1.82789150   4.30200358  -2.19100531
H    1.28934762   2.94942984  -3.15722594
H    2.18557796   2.66864286  -1.68379656
C    0.14339125   3.25472103  -1.36596615
N   -0.83850239   3.22330274  -0.77470535
C   -1.98926326  -3.40673166  -1.18019395
H   -2.50776736  -4.14121014  -1.76036206
H   -1.49938675  -3.88328593  -0.35689807
H   -1.26175379  -2.91668783  -1.79296316
C   -2.99513253  -2.36904471  -0.64818565
N   -3.74404792  -1.59643962  -0.25208129
C    2.23164413  -2.97631738   0.45168052
H    1.35594226  -2.74763922   1.02242803
H    2.90932208  -2.14922994   0.49140539
H    2.70537328  -3.84540703   0.85808298
C    1.83483399  -3.24499167  -1.01186170
N    1.53939081  -3.44503189  -2.10153541
C   -3.34358329   1.55891377   0.59273098
H   -4.32559239   1.13401536   0.59716369
H   -2.74990103   1.07718564  -0.15585334
H   -3.40858530   2.60507864   0.37775915
C   -2.69112748   1.35808251   1.97315418
N   -2.20534447   1.20855451   3.00094200
C    0.59430439  -0.81974611   4.90232841
H   -0.11474802  -0.24480975   4.34412322
H    0.90086372  -0.26713811   5.76577781
H    0.14409281  -1.74053857   5.20949267
C    1.82156386  -1.11731484   4.02091646
N    2.73531433  -1.33886828   3.36466519
C   -3.42662070  -1.97956973   3.27223601
H   -4.08411279  -1.66194492   2.49011145
H   -3.34844818  -1.20687593   4.00826076
H   -3.81531051  -2.86692310   3.72657434
C   -2.03340836  -2.27168845   2.68467665
N   -0.99609843  -2.48918412   2.24721199
C   -2.69656982   1.05177405  -3.16660838
H   -2.68694614   0.18027903  -2.54587977
H   -3.50165214   0.98130831  -3.86787590
H   -2.82888843   1.92176548  -2.55791652
C   -1.36126178   1.15535624  -3.92675518
N   -0.36706424   1.23247790  -4.49271902
C    2.46110910  -0.41753366  -3.46530254
H    2.57706467   0.42971510  -4.10843862
H    1.42180957  -0.65359234  -3.37026644
H    2.98048881  -1.25520151  -3.88178351
C    3.04251670  -0.09157441  -2.07702455
N    3.47540109   0.15111708  -1.04338849
C   -0.10516882   4.08550395   2.78797406
H    0.09466307   5.07811185   3.13394651
H   -1.14412410   3.86496689   2.91772163
H    0.14840153   4.01138014   1.75110047
C    0.73759131   3.08098016   3.59561712
N    1.36506454   2.33306654   4.19694409
