72
Energy:   -317.52985242
C    0.72455831  -0.42243748   0.68021849
H    1.57209029   0.18345720   0.43633046
H    0.85076279  -1.39816015   0.25957996
H    0.63656998  -0.50115494   1.74368486
C   -0.55025912   0.22313384   0.10604240
N   -1.49941865   0.70379102  -0.32145780
C    3.04794526   2.78277653   2.48581428
H    3.17321919   3.84115506   2.58090117
H    3.28692508   2.48367289   1.48665226
H    3.69869979   2.28343816   3.17289421
C    1.58708949   2.40866159   2.79812572
N    0.49941597   2.13011601   3.03065579
C    2.34714685  -3.23022959  -2.10258950
H    2.98954264  -3.23727436  -1.24691537
H    2.85209756  -3.68079275  -2.93139388
H    1.45670635  -3.78205647  -1.88464018
C    1.97739360  -1.77739545  -2.45494656
N    1.70209549  -0.69569440  -2.71729242
C    0.30862712   2.41193315  -2.96417684
H    0.08367195   3.34156770  -3.44383814
H   -0.60257707   1.90811964  -2.71764499
H    0.88680507   1.80038503  -3.62494779
C    1.11170468   2.67924180  -1.67762621
N    1.70963243   2.87826524  -0.71973079
C   -1.08853674  -4.39847265   1.50040810
H   -1.66264528  -3.63637914   1.01614264
H   -1.29529250  -4.38792508   2.55018898
H   -1.34975819  -5.35362910   1.09502112
C    0.41129044  -4.13578650   1.26994246
N    1.52797996  -3.94020472   1.09835031
C    4.61393587  -2.96147067   1.81026577
H    4.49362206  -3.30460927   0.80394541
H    3.99112206  -3.53909107   2.46092446
H    5.63666791  -3.07172239   2.10482105
C    4.21151378  -1.47758332   1.89821346
N    3.91189224  -0.37276174   1.96369451
C   -4.44794967   2.30214108  -1.62943931
H   -5.25418187   1.75193231  -2.06780003
H   -3.51628698   1.91123842  -1.98171597
H   -4.52885072   3.33312203  -1.90408890
C   -4.51203887   2.17279593  -0.09621969
N   -4.55975620   2.07649258   1.04533201
C   -2.55054817   0.96965134   3.56331959
H   -3.59612579   0.96061809   3.79044516
H   -2.37752565   1.58321342   2.70395711
H   -2.00776232   1.36282236   4.39740541
C   -2.07592615  -0.46629318   3.27280753
N   -1.72254847  -1.53541915   3.05650810
C   -4.05049884  -1.57566723   0.49199577
H   -4.34762717  -0.77385484   1.13520010
H   -2.98484875  -1.67050509   0.50916429
H   -4.49527365  -2.48805063   0.83056778
C   -4.51645327  -1.28003151  -0.94574064
N   -4.86337752  -1.05991728  -2.01620075
C   -1.78506792  -0.98778185  -3.43287308
H   -2.16718635  -0.11093781  -2.95325843
H   -2.51799348  -1.37113274  -4.11166710
H   -0.89462234  -0.74008445  -3.97199436
C   -1.46181354  -2.05454408  -2.37027017
N   -1.22113597  -2.84879705  -1.57911399
C    4.50056284   0.96702746  -1.30524721
H    5.35115302   1.61562791  -1.33196780
H    3.94782996   1.14055917  -0.40565163
H    3.87563161   1.16332529  -2.15131294
C    4.97130564  -0.49875301  -1.34383258
N    5.32179506  -1.59009319  -1.37256115
C   -1.34568769   4.06586485   0.94190056
H   -0.31225047   4.27865788   1.11973987
H   -1.53997652   3.03594176   1.15732890
H   -1.95061052   4.68258719   1.57326497
C   -1.68279801   4.35430267  -0.53280628
N   -1.93379197   4.56905773  -1.63079255
