72
Energy:   -317.14568891
C    0.11472760  -0.13732598   1.16672656
H   -0.66135322   0.16166591   1.83992979
H    1.01267175   0.39670801   1.39781765
H    0.28885226  -1.18825902   1.26732192
C   -0.31127461   0.17629803  -0.27956598
N   -0.62845262   0.40980535  -1.35639651
C    3.75247986  -0.43194708   3.36166408
H    4.69386817  -0.90593873   3.17721854
H    3.78214299   0.06318584   4.30974771
H    3.55675447   0.28428449   2.59120773
C    2.63658794  -1.49321468   3.37147729
N    1.80575568  -2.28337665   3.37878367
C    3.62027187  -3.36906384   0.39718036
H    4.12094417  -2.52558053   0.82468863
H    4.16918058  -4.26015668   0.61978287
H    2.63518312  -3.44498339   0.80795461
C    3.52745104  -3.19127400  -1.12970374
N    3.45834171  -3.05890139  -2.26653836
C    2.23779675   3.28285503   1.31611996
H    1.37710897   3.44507861   1.93077453
H    2.96692220   4.03993190   1.51639425
H    2.65391495   2.32096300   1.53177815
C    1.82824829   3.34415518  -0.16715760
N    1.52332084   3.38979592  -1.27152518
C   -0.03525028  -2.80521375  -3.03322257
H    0.87201818  -3.07396168  -3.53276103
H   -0.22392941  -1.76136610  -3.17351282
H   -0.84710036  -3.37206650  -3.43877960
C    0.09897572  -3.10493427  -1.52864589
N    0.19891307  -3.32808981  -0.40842016
C   -1.41192687  -3.71685535   2.48212451
H   -1.83343894  -3.88167194   1.51255592
H   -1.69341201  -4.51717956   3.13415701
H   -0.34540260  -3.67762291   2.40540495
C   -1.93513503  -2.38423710   3.04955894
N   -2.32468728  -1.39204224   3.47203966
C   -3.34693322  -0.82780577  -3.38790633
H   -3.07827428  -0.85753903  -4.42320266
H   -4.23261826  -1.40771831  -3.23246327
H   -2.54874891  -1.23133012  -2.80056571
C   -3.60766608   0.63040448  -2.96690602
N   -3.80179354   1.71610829  -2.65345216
C   -1.27119849   1.46091215   4.80547836
H   -1.53812025   2.30327060   5.40887309
H   -1.42210288   0.56041764   5.36336418
H   -1.88241324   1.44315231   3.92741218
C    0.20985378   1.57014571   4.39786066
N    1.31256452   1.65147506   4.09437074
C   -3.86306775   0.41604715   0.88846696
H   -3.77016494   1.17441114   0.13936530
H   -3.17549628   0.61436407   1.68396363
H   -4.86181804   0.41439538   1.27238652
C   -3.54891292  -0.95848336   0.26913454
N   -3.31501038  -1.98188380  -0.19198659
C   -0.46306676   2.46081842  -4.19443858
H   -1.47022370   2.81329611  -4.11510024
H    0.09061377   3.10632709  -4.84378865
H   -0.00962759   2.45559538  -3.22528187
C   -0.46301319   1.03197882  -4.76890999
N   -0.46297331  -0.03185721  -5.19663006
C    2.63095284   0.27424559  -2.72533442
H    1.66328895  -0.16440355  -2.85227424
H    3.34596022  -0.26308305  -3.31265160
H    2.60397281   1.29568135  -3.04288781
C    3.03342114   0.20881995  -1.24029612
N    3.33307708   0.16010758  -0.13461760
C   -1.88403543   3.83184462  -0.85851617
H   -1.64707161   3.05864725  -1.55916884
H   -1.27102936   4.68750883  -1.05076965
H   -2.91456951   4.10136636  -0.95979125
C   -1.62415753   3.32524327   0.57236417
N   -1.43066661   2.94805554   1.63771963
