72
Energy:   -317.89862070
C    2.64573591  -0.36294241   5.24932920
H    1.82031483   0.20149159   5.63011060
H    3.16912352   0.21868756   4.51948603
H    3.30942548  -0.60969340   6.05153192
C    2.12522054  -1.65728317   4.59714384
N    1.73767319  -2.62097870   4.11156219
C   -3.38769157  -1.53372018  -0.91893241
H   -3.38246131  -1.92346384  -1.91541257
H   -4.27403803  -1.85698572  -0.41416670
H   -2.52718594  -1.88993427  -0.39211110
C   -3.35802767   0.00516480  -0.96946013
N   -3.33594155   1.15093462  -1.00708031
C    2.00335497   3.22001148   2.95443860
H    2.29485767   2.21716189   3.18728846
H    0.95914813   3.34311187   3.15287614
H    2.56397417   3.90349800   3.55730789
C    2.27981419   3.50248353   1.46602339
N    2.48565064   3.71279682   0.35783061
C    1.30059577  -0.77785925  -5.44013263
H    1.44396125  -0.71598801  -6.49867808
H    0.46153673  -1.40773927  -5.23006080
H    2.17757558  -1.18834560  -4.98482344
C    1.03967863   0.63044481  -4.87426875
N    0.84541396   1.67899119  -4.45295736
C    2.77175756  -2.51149323   0.72006748
H    1.90922932  -2.51059423   0.08686578
H    2.61743748  -3.19106686   1.53201827
H    3.62786946  -2.81806915   0.15616792
C    3.00309828  -1.09346644   1.27439724
N    3.17534196  -0.03768104   1.68712095
C   -2.56888283   1.21749766  -4.31689122
H   -3.57624530   1.43196392  -4.02684768
H   -2.36099149   1.68525495  -5.25650998
H   -1.89623788   1.59367964  -3.57464128
C   -2.38634761  -0.30581779  -4.45027380
N   -2.25044185  -1.43999539  -4.54958319
C    0.16798825  -3.15743105  -2.47066097
H   -0.12784540  -3.76412224  -1.64041496
H    1.19331197  -3.35175713  -2.70698225
H   -0.44338218  -3.38932931  -3.31762525
C   -0.00201603  -1.67080221  -2.10647254
N   -0.12859195  -0.56393946  -1.83531770
C   -1.52081228  -3.04923438   3.51130630
H   -2.57930623  -3.20359840   3.53704529
H   -1.29355753  -2.07286844   3.88542384
H   -1.03811026  -3.78548133   4.11944960
C   -1.01917840  -3.17265764   2.06053749
N   -0.64568917  -3.26455187   0.98037417
C   -0.18476573   0.34071122   1.26404788
H   -1.13036735   0.58284368   0.82574475
H    0.06108741  -0.67676892   1.04226084
H    0.56952412   0.98534447   0.86355579
C   -0.26326464   0.52884265   2.79049620
N   -0.32171065   0.66891504   3.92700636
C   -0.53248668   3.23523825  -1.48837621
H   -0.50583354   2.18569843  -1.69490939
H    0.42668700   3.66335414  -1.69234121
H   -1.27022666   3.70188814  -2.10714652
C   -0.88954694   3.45799756  -0.00699636
N   -1.15539453   3.62385199   1.09595828
C    2.98894261   1.20948555  -1.71214768
H    3.66248614   1.43369877  -0.91154308
H    1.98121741   1.34535388  -1.37908793
H    3.18363333   1.86400064  -2.53592229
C    3.18970567  -0.25077776  -2.15815807
N    3.33918290  -1.33801017  -2.49023307
C   -3.70542280   1.96146487   2.59994455
H   -2.83705181   2.29017483   3.13171685
H   -4.58405776   2.25802532   3.13375312
H   -3.71466999   2.40217149   1.62496186
C   -3.67734123   0.42725209   2.46955069
N   -3.65643323  -0.71503907   2.37246654
