72
Energy:   -319.52282809
C    0.52296135   0.32698421   1.03965724
H    0.59113178   1.38905582   1.15036793
H    1.41073906  -0.12948336   1.42486781
H   -0.32704579  -0.03411478   1.58002237
C    0.37048525  -0.02492092  -0.45182317
N    0.25695986  -0.28693028  -1.56229814
C    3.31445445   1.37153188   3.47876121
H    4.23071666   1.63141547   3.96643350
H    3.45992813   0.48727558   2.89410123
H    2.55754159   1.19271882   4.21361351
C    2.87573638   2.52752106   2.56071139
N    2.54909084   3.38820754   1.87718156
C    0.48811975  -2.19605316  -4.45127037
H    0.45507949  -3.12560506  -4.98017659
H    0.86349003  -2.36117041  -3.46297257
H    1.13118418  -1.51445745  -4.96779192
C   -0.93011417  -1.60153514  -4.36904576
N   -1.98605378  -1.15888946  -4.30782581
C    2.31252657   3.21949571  -1.38784222
H    2.73150239   4.12609399  -1.00386434
H    2.57052678   3.11697608  -2.42119827
H    2.70042500   2.38685681  -0.83907419
C    0.77990063   3.26060122  -1.24303860
N   -0.36120904   3.29120614  -1.13522572
C   -1.86421768  -3.05604944  -1.20062796
H   -2.44409954  -2.24360722  -1.58608203
H   -2.40924223  -3.96957000  -1.31607281
H   -0.94085549  -3.12136157  -1.73731753
C   -1.57414413  -2.81657113   0.29272648
N   -1.35817119  -2.63826864   1.40459674
C    2.25738115  -3.16873126   1.44694022
H    2.89546313  -3.96131790   1.77793566
H    1.32997586  -3.21169550   1.97889191
H    2.73177720  -2.22778213   1.63258023
C    1.99101426  -3.32042622  -0.06224411
N    1.79269201  -3.43337001  -1.18590044
C   -3.16249926   0.90663498  -1.37864517
H   -3.00451314   1.87760993  -1.79953495
H   -4.15758080   0.58031078  -1.59824555
H   -2.46020793   0.21724893  -1.79868429
C   -2.96848178   0.97102046   0.14772691
N   -2.82402694   1.01895837   1.28418030
C   -1.28948004  -0.91990395   4.39462949
H   -1.68211895  -0.50780889   3.48858726
H   -1.44914646  -0.23155754   5.19811251
H   -1.78609789  -1.84255149   4.61140431
C    0.22018792  -1.17579476   4.23024413
N    1.34420434  -1.36631709   4.10785176
C   -4.60613297  -1.72477730   2.60009229
H   -5.51397946  -2.01512701   3.08631443
H   -4.36081515  -0.71977412   2.87338131
H   -3.81514274  -2.37945333   2.90114517
C   -4.79102191  -1.81110010   1.07367018
N   -4.92868012  -1.87537136  -0.06282046
C   -0.67870391   1.97334547  -4.29282879
H   -1.10559016   1.52695584  -3.41909851
H   -1.20358122   1.63192784  -5.16049053
H   -0.75774236   3.03821207  -4.22419108
C    0.80488309   1.57458641  -4.40035012
N    1.90948105   1.27769217  -4.48040464
C    3.70778665  -0.80498542  -2.47440870
H    4.22005579  -0.08151747  -3.07363706
H    2.68543158  -0.86528965  -2.78433227
H    4.17355378  -1.76090602  -2.59347124
C    3.77157269  -0.38363363  -0.99454587
N    3.81906429  -0.06991807   0.10727928
C   -0.99346952   3.98358460   2.19508064
H   -1.60076376   3.49107753   1.46464880
H   -0.12335468   4.38794203   1.72148342
H   -1.55271676   4.77484682   2.64900324
C   -0.56683601   2.97162630   3.27467511
N   -0.24918796   2.21817734   4.07848227
