72
Energy:   -317.58440756
C    0.51287378   0.46883107   0.88071021
H    0.50102947   1.53663562   0.94818853
H    1.51476287   0.11463485   1.00585967
H   -0.10965405   0.05610808   1.64688116
C   -0.01607683   0.03578029  -0.49924569
N   -0.40990460  -0.28664569  -1.52668558
C    4.41257011   1.46146589   2.19450086
H    5.38283532   1.82388540   1.92591622
H    4.21095024   0.55468275   1.66347085
H    4.38113421   1.27279990   3.24726675
C    3.35153771   2.51648244   1.83015166
N    2.56155087   3.30199021   1.55887713
C   -0.69136991  -2.19708989  -4.40783126
H   -0.13831341  -1.48007693  -4.97784977
H   -0.73976074  -3.12030548  -4.94656160
H   -0.20513268  -2.35746412  -3.46828214
C   -2.11753190  -1.66949228  -4.16430969
N   -3.17937432  -1.27667187  -3.98299681
C    2.08332530   3.34594256  -1.89985708
H    2.46373223   4.33448021  -2.05146207
H    2.12057288   2.80415773  -2.82180117
H    2.67861672   2.84327887  -1.16647012
C    0.62543781   3.42641259  -1.41027703
N   -0.46002570   3.48632618  -1.04576243
C   -2.04614102  -3.26953543  -0.60633988
H   -2.20988624  -2.36121968  -1.14768098
H   -2.98846110  -3.70822583  -0.35240545
H   -1.48758051  -3.95087540  -1.21353431
C   -1.25814201  -2.96482408   0.68121927
N   -0.67144093  -2.73795263   1.63986557
C    2.72298524  -2.92984328   0.68313036
H    2.07938081  -3.17428687   1.50222793
H    2.99633861  -1.89692783   0.74025038
H    3.60418580  -3.53505464   0.72899840
C    1.98759862  -3.19360186  -0.64398604
N    1.44006986  -3.38998212  -1.63208452
C   -3.98535838   0.28018323  -0.94344924
H   -4.64741054  -0.48494398  -0.59535805
H   -3.22910535  -0.15664785  -1.56163938
H   -4.53835567   0.99935519  -1.51079814
C   -3.32503333   0.97503590   0.26185180
N   -2.83339131   1.49238529   1.15925322
C    0.43652790  -1.72693361   4.90263230
H   -0.23733020  -2.30633003   4.30671684
H   -0.06861989  -0.85785828   5.26928319
H    0.77880296  -2.31538507   5.72814533
C    1.64079694  -1.29692373   4.04447872
N    2.53742999  -0.97676183   3.40554437
C   -2.97785181  -0.76607215   3.63531660
H   -3.42063526   0.19219123   3.81017168
H   -1.96769026  -0.63760668   3.30672971
H   -2.98851224  -1.33464090   4.54169127
C   -3.77911053  -1.51183670   2.55207162
N   -4.37568407  -2.06709230   1.74554648
C   -1.99665005   2.04069281  -3.68289576
H   -2.74754039   1.49256329  -4.21262958
H   -2.17400454   3.08975178  -3.79656093
H   -2.03273698   1.78326677  -2.64495132
C   -0.60873076   1.69022932  -4.25074729
N    0.42463825   1.42929331  -4.67353856
C    2.70133699  -0.66462599  -3.37255374
H    3.02462019   0.01146432  -4.13628801
H    1.63271581  -0.71891578  -3.37325810
H    3.10795081  -1.63627188  -3.56088472
C    3.18884741  -0.16110930  -2.00127531
N    3.55182108   0.21378176  -0.98029619
C   -0.72054853   3.76929826   2.65205070
H   -0.99626145   3.47636713   1.66054986
H    0.20554947   4.30436737   2.62134830
H   -1.48240840   4.39826490   3.06298816
C   -0.56010787   2.51555657   3.53181804
N   -0.44065250   1.58208890   4.18684481
