72
Energy:   -318.67025306
C    2.86092337   0.95172497   2.01605639
H    3.32431986   0.68305563   2.94232885
H    1.82478554   1.16025305   2.18289024
H    3.33990557   1.82115682   1.61660251
C    2.99586668  -0.21305059   1.01771366
N    3.09633811  -1.08027893   0.27440212
C   -0.56936591   2.94398854   3.53494269
H   -0.26011936   3.19096300   4.52906057
H   -0.50795093   3.81442687   2.91569767
H    0.06944771   2.18087236   3.14191603
C   -2.02225808   2.43406534   3.56107063
N   -3.10400234   2.05440434   3.58052407
C    2.26780634  -2.66901008  -2.88289292
H    2.88782211  -3.24293675  -3.53946644
H    1.25344879  -2.99762862  -2.97226691
H    2.59809276  -2.80162620  -1.87382259
C    2.35999832  -1.17914890  -3.26159376
N    2.42863944  -0.06987954  -3.54355376
C    1.67961796   3.37850070  -2.08989796
H    1.98591581   2.41989733  -2.45343804
H    2.52204772   4.03787567  -2.06902132
H    0.92743720   3.78116590  -2.73564090
C    1.10888589   3.22962876  -0.66732914
N    0.68394992   3.11878684   0.39183801
C   -2.76854223  -3.26129292  -1.62068872
H   -1.85885504  -3.36188093  -2.17499139
H   -3.55547905  -3.77722892  -2.13004085
H   -2.63991851  -3.68110002  -0.64492388
C   -3.13033367  -1.76974818  -1.49419268
N   -3.39970384  -0.65922533  -1.40001063
C    0.77835081  -3.10867920   2.27328966
H    1.02726038  -2.07447764   2.38892423
H    1.59418536  -3.71201248   2.61285119
H   -0.09471911  -3.33206094   2.85013332
C    0.50248275  -3.40730523   0.78792125
N    0.29708644  -3.62964588  -0.31800304
C   -0.05636256  -0.11707480  -1.02059540
H    0.92937923   0.28509264  -1.12771523
H   -0.74157862   0.45681434  -1.60883794
H   -0.06490789  -1.13382886  -1.35381792
C   -0.47659679  -0.05850076   0.45980059
N   -0.78948028  -0.01488972   1.56202269
C   -1.44102620  -1.01392076   4.86480069
H   -2.04664418  -0.48144271   4.16152680
H   -1.80650376  -0.83846904   5.85502386
H   -1.48210352  -2.06129538   4.64981661
C    0.01574869  -0.52537304   4.76122441
N    1.10038382  -0.16162707   4.68410715
C   -4.22237034  -0.72939393   1.90061239
H   -4.99567688  -0.87256890   1.17507941
H   -3.57992018   0.06590277   1.58492259
H   -4.66054153  -0.48060608   2.84454549
C   -3.40339454  -2.02603256   2.04063703
N   -2.79362983  -2.99143896   2.14489175
C   -0.85308528   0.86436547  -4.81746082
H   -0.10864380   1.34943872  -4.22129724
H   -1.80693720   1.31170143  -4.63049521
H   -0.60593653   0.97106091  -5.85304407
C   -0.90740031  -0.63117113  -4.45411503
N   -0.94784032  -1.74466610  -4.18358757
C    5.53547920   0.14460725  -2.09256242
H    5.27230722   0.18996972  -3.12870089
H    5.12128808  -0.74101988  -1.65781030
H    6.60090269   0.12478847  -1.99571677
C    4.97696130   1.38248666  -1.36639967
N    4.56111934   2.30414414  -0.82573849
C   -3.05162666   2.58745746  -0.05867862
H   -3.81239211   1.84624596  -0.18806800
H   -3.49783940   3.50312834   0.26894942
H   -2.34748014   2.25176514   0.67370614
C   -2.32792364   2.81951281  -1.39808306
N   -1.78909384   2.99228856  -2.39533055
