72
Energy:   -316.80844857
C    3.48799596  -3.12818409   1.56055297
H    2.82982559  -2.80226029   2.33868254
H    3.97452504  -2.27987932   1.12630931
H    4.22262446  -3.79038989   1.96884641
C    2.67771378  -3.86511545   0.47797504
N    2.07442186  -4.41379434  -0.32805343
C    2.02804277   3.71873392   1.60972661
H    1.80344736   3.18777229   0.70831836
H    2.81559921   3.21717560   2.13230980
H    2.33706157   4.71457860   1.36951870
C    0.77304140   3.77151898   2.50067291
N   -0.16136416   3.81081986   3.16402293
C   -1.54679558   0.45942163  -3.51161155
H   -0.87810266   0.20196569  -2.71696296
H   -0.99170233   0.88619899  -4.32070466
H   -2.05279852  -0.42015191  -3.85103830
C   -2.57986873   1.48165556  -3.00230057
N   -3.34903864   2.24275518  -2.62309539
C   -0.36268579   4.35568736  -3.02758049
H   -0.16516988   3.39836551  -3.46280747
H   -0.48582663   5.08181040  -3.80377682
H   -1.25707457   4.30382455  -2.44253514
C    0.81752305   4.76308520  -2.12606284
N    1.69624219   5.06641142  -1.45484197
C    1.95440627  -2.29234221  -3.26356626
H    1.16918249  -1.57115181  -3.35416540
H    1.55329719  -3.21131843  -2.89007825
H    2.39695252  -2.46022694  -4.22318422
C    3.02490487  -1.76604903  -2.28958053
N    3.82193975  -1.37419983  -1.56440387
C    3.63722296   2.05064041  -1.43060886
H    3.48704855   1.58278324  -0.48010504
H    3.63723652   3.11369077  -1.30885907
H    4.57621991   1.73823473  -1.83753206
C    2.50188661   1.64363705  -2.38818896
N    1.65657710   1.34060454  -3.10115087
C   -2.74083764   3.26497481   0.88211242
H   -2.47671911   4.20781060   1.31362401
H   -3.07521197   2.60147402   1.65208618
H   -3.52500736   3.40668444   0.16804286
C   -1.51110141   2.65898422   0.18059676
N   -0.59550690   2.20779668  -0.34171353
C   -2.37732483  -3.23827579   3.68718839
H   -2.28846272  -3.44244410   4.73376329
H   -2.87343373  -4.05475386   3.20538073
H   -2.94492878  -2.34236766   3.54550755
C   -0.97426598  -3.05874566   3.07825917
N    0.07037511  -2.92507732   2.62488368
C   -3.60857771  -0.42259599  -0.21344401
H   -2.59177075  -0.23718021  -0.49025581
H   -3.90827761   0.28054627   0.53533502
H   -4.23703540  -0.31779735  -1.07307025
C   -3.73616679  -1.85228959   0.34449618
N   -3.83116266  -2.91676145   0.75990801
C   -1.21948580  -4.76223494  -0.50460353
H   -2.21648886  -5.06657781  -0.26323142
H   -0.69308924  -4.51942989   0.39475817
H   -0.71521170  -5.56003616  -1.00870664
C   -1.26794204  -3.52542692  -1.42087746
N   -1.30401992  -2.60456712  -2.10308504
C    0.54329535  -0.79384952   0.06219086
H    0.57845356  -0.31179321  -0.89242204
H   -0.43737642  -0.69118769   0.47769358
H    0.77461985  -1.83208619  -0.05379484
C    1.57119557  -0.14112068   1.00504090
N    2.33651401   0.34486562   1.70703562
C    0.10178267   0.53427830   4.30083971
H    0.56634798  -0.41838035   4.44753925
H   -0.23649419   0.91483383   5.24192704
H    0.80945064   1.21434901   3.87468370
C   -1.09849333   0.37888539   3.34858419
N   -1.99215336   0.26318830   2.63958667
