72
Energy:   -318.11628470
C    2.54553120   3.08480351  -0.50482616
H    3.37265944   3.76359472  -0.50358407
H    2.04628020   3.12920045   0.44051846
H    1.86227132   3.35657321  -1.28212679
C    3.05701744   1.65280542  -0.74847201
N    3.43784219   0.58661775  -0.92987742
C    0.34696562   2.78204702   4.38179115
H    1.18494168   2.18998977   4.68537727
H    0.17385647   3.55208543   5.10426825
H    0.54994564   3.22559864   3.42944659
C   -0.90208742   1.88750283   4.27569122
N   -1.83206418   1.22147402   4.19669500
C    2.45613868   0.66634602  -4.18121343
H    2.09552312  -0.04950417  -3.47240096
H    3.49636547   0.84724213  -4.00770865
H    2.32063740   0.28641423  -5.17226858
C    1.67302569   1.98310009  -4.02471182
N    1.08996248   2.96348336  -3.90818927
C    0.06448669   0.42880900   1.22833494
H    0.80453673  -0.28825203   1.51651821
H   -0.87744502   0.16259690   1.66053264
H    0.35416765   1.39902408   1.57426371
C   -0.06187887   0.44760284  -0.30635674
N   -0.15596377   0.46159571  -1.44900445
C   -0.90371268  -5.28750014   1.38669316
H   -1.70979501  -4.67765899   1.73772767
H    0.00934934  -4.97075414   1.84591946
H   -1.09387750  -6.30981825   1.63888779
C   -0.78398808  -5.14971891  -0.14245116
N   -0.69484767  -5.04713451  -1.28096861
C    1.76380465  -2.53060187  -1.82644573
H    2.70973506  -2.08570992  -2.05489050
H    0.97796573  -1.91697689  -2.21480210
H    1.71014159  -3.50248827  -2.27080616
C    1.61062702  -2.65528528  -0.29916362
N    1.49657930  -2.74811775   0.83796734
C   -1.45642161   3.83662991  -1.78964531
H   -1.17341784   2.92264694  -2.26864863
H   -0.90622544   4.64863429  -2.21723408
H   -2.50413734   4.00298430  -1.92934881
C   -1.14767870   3.74397673  -0.28375913
N   -0.91780556   3.67499222   0.83744159
C    3.93456857  -0.78835909   2.41250697
H    4.11648080  -1.01950562   1.38373129
H    3.19373065  -1.45483314   2.80221275
H    4.84188483  -0.89903534   2.96876865
C    3.43314570   0.66283722   2.53168911
N    3.05981357   1.74331883   2.62042563
C   -0.77825662  -2.18362583   3.74550603
H   -1.64012185  -1.55059756   3.70857747
H   -0.97830879  -3.02186890   4.37971954
H   -0.54718401  -2.52940420   2.75963491
C    0.41754091  -1.39060615   4.30478060
N    1.30786653  -0.80016695   4.72118594
C   -3.73785326   1.26965522   1.46023175
H   -4.74183194   1.45961796   1.77778667
H   -3.09793805   2.05066859   1.81438670
H   -3.40953677   0.33191327   1.85740604
C   -3.68640422   1.22182276  -0.07816516
N   -3.64809807   1.18620933  -1.22357159
C   -1.90951249   0.90567543  -4.45479007
H   -1.42233807   1.78609922  -4.81867909
H   -2.14092559   1.02901554  -3.41742115
H   -2.81293608   0.74467490  -5.00506613
C   -0.97736130  -0.30727600  -4.63211182
N   -0.28333237  -1.21037347  -4.76413592
C   -2.43723445  -2.18022830  -1.95270346
H   -1.43318595  -2.20150306  -2.32193804
H   -2.94372899  -1.32357426  -2.34577625
H   -2.94878912  -3.06871200  -2.25898378
C   -2.41708386  -2.10379751  -0.41473328
N   -2.40208083  -2.04689130   0.73035543
