72
Energy:   -317.42814327
C   -0.68939131  -1.02648479  -4.38644433
H   -1.27410582  -0.76270212  -3.53004033
H    0.12761991  -1.64724436  -4.08304804
H   -1.30059156  -1.55788708  -5.08569033
C   -0.14405251   0.25211941  -5.04929943
N    0.26197703   1.20409835  -5.54282518
C   -2.85420476   3.57098961   0.17481922
H   -2.93981529   2.68102374  -0.41300029
H   -2.64728987   4.40286438  -0.46554761
H   -3.77189526   3.74284929   0.69751175
C   -1.70800198   3.40724759   1.19020473
N   -0.85460191   3.28533422   1.94620540
C   -1.45286766   0.63999714   4.09175344
H   -1.34818061   1.69528508   4.23426016
H   -0.48674112   0.20103759   3.95459247
H   -1.92175374   0.20877675   4.95145915
C   -2.31919484   0.37357951   2.84672378
N   -2.96421480   0.17521947   1.91974260
C    2.22227344   2.40865239   2.90299828
H    3.09211639   2.30668085   3.51771385
H    1.52103232   1.63806230   3.14661867
H    1.77468568   3.36533832   3.07421838
C    2.62380534   2.28757607   1.42120455
N    2.92276410   2.19742925   0.31794177
C    2.09294005  -2.40354970   4.39165787
H    1.47184906  -2.86178811   5.13271368
H    1.68854914  -1.44856704   4.12826615
H    3.08078116  -2.27696862   4.78286915
C    2.14711477  -3.30067382   3.14112462
N    2.18745031  -3.96862351   2.21004577
C   -0.29260684   0.64796875  -0.50940285
H   -1.31722589   0.88030785  -0.30673435
H   -0.22981186   0.06048623  -1.40149039
H    0.25969490   1.55504385  -0.64008054
C    0.29680023  -0.14640166   0.67092547
N    0.73564059  -0.73784655   1.54973355
C    4.15835435  -1.11092062   0.53506190
H    3.27279895  -0.69592269   0.10093228
H    4.10455463  -2.17907963   0.50279733
H    5.01419048  -0.78011793  -0.01540444
C    4.27855948  -0.64696466   1.99858355
N    4.36805766  -0.30152837   3.08824193
C   -2.23909973   3.24696564  -4.56038249
H   -2.74585240   2.30467949  -4.54628593
H   -1.63931830   3.31620217  -5.44376668
H   -2.95854337   4.03896843  -4.55476813
C   -1.33752897   3.36361272  -3.31733639
N   -0.66626855   3.45046177  -2.39183206
C   -1.50681605  -3.36391070   1.93098970
H   -2.33691685  -4.02436974   1.79089434
H   -0.60598482  -3.85328938   1.62454116
H   -1.65050457  -2.48095650   1.34392533
C   -1.40181075  -2.97979728   3.41861558
N   -1.32362954  -2.69380738   4.52622067
C    1.45889545  -3.40952028  -1.03682664
H    2.02671850  -3.27432325  -1.93359803
H    1.51833706  -4.43219826  -0.72780314
H    1.85372670  -2.78061466  -0.26644681
C   -0.01216125  -3.03736442  -1.29968060
N   -1.10742983  -2.76027746  -1.49538731
C   -4.12763455  -1.33887654  -0.82810246
H   -3.31546594  -1.65928899  -0.20954106
H   -4.45029861  -2.15288172  -1.44306795
H   -4.93939487  -1.01437052  -0.21114206
C   -3.66382631  -0.17320717  -1.72124121
N   -3.31849999   0.69468667  -2.38622361
C    2.61341012   2.12753160  -2.99949371
H    2.33173047   2.34936580  -4.00763375
H    3.63894641   2.39312168  -2.84904001
H    1.99775773   2.68631187  -2.32596877
C    2.42889149   0.62177644  -2.73443848
N    2.29150899  -0.49932672  -2.53709282
