72
Energy:   -317.41437003
C    0.51855040  -0.11917478   1.06683279
H    0.81286775  -1.11388736   1.32917677
H   -0.38387501   0.13365482   1.58317053
H    1.29198707   0.56638002   1.34379745
C    0.28060036  -0.03810417  -0.45251159
N    0.10343574   0.02225658  -1.58373254
C    1.96067131   2.24505278   3.68793250
H    2.25785259   2.91145860   4.47054783
H    2.27653317   2.63926190   2.74467774
H    2.41261242   1.28778900   3.84379908
C    0.42788736   2.09630408   3.69480185
N   -0.71333997   1.98555391   3.69991640
C    1.72917943  -2.34921498  -3.63015166
H    2.58661621  -2.94704302  -3.40145102
H    1.18620684  -2.79776578  -4.43568380
H    1.09915098  -2.28454380  -2.76772434
C    2.18335689  -0.93628728  -4.04119686
N    2.52151266   0.11570161  -4.34723870
C    1.60347758   3.09699106  -2.72739335
H    2.57910196   3.23326781  -3.14510843
H    0.97152205   3.90737713  -3.02539624
H    1.19053177   2.17468861  -3.07915043
C    1.70318476   3.06193028  -1.19102451
N    1.77742130   3.03582593  -0.04712807
C   -1.14214499  -3.49898452  -1.09374921
H   -1.13577787  -2.47784420  -1.41333032
H   -2.13481487  -3.89077777  -1.17123253
H   -0.48361349  -4.07082133  -1.71361856
C   -0.67039859  -3.58175645   0.36987784
N   -0.31916195  -3.64338391   1.45961470
C    3.12414600  -3.05334863   2.18890959
H    3.95038460  -3.71523401   2.34427272
H    2.24527979  -3.46894664   2.63586773
H    3.33763944  -2.10519656   2.63648895
C    2.89261903  -2.86720791   0.67783484
N    2.72023667  -2.72861768  -0.44722899
C   -3.71053822   0.05959838  -1.65650704
H   -4.49813524   0.76314760  -1.48443256
H   -4.08119246  -0.75399817  -2.24436348
H   -2.90997863   0.54097651  -2.17831019
C   -3.19572871  -0.47484134  -0.30708296
N   -2.81242963  -0.87275601   0.69762461
C   -1.39636764  -1.84807314   4.08499287
H   -1.53119747  -2.89041670   4.28559445
H   -1.70960873  -1.63396639   3.08452428
H   -1.98160507  -1.27391734   4.77255477
C    0.09082658  -1.48238577   4.24662858
N    1.19811027  -1.21011490   4.36697371
C   -4.01447774   1.14106362   3.39483585
H   -3.20528132   0.46984320   3.19592763
H   -4.79294353   0.61839198   3.91030114
H   -3.66566415   1.95028372   4.00178807
C   -4.56073866   1.69470466   2.06567048
N   -4.96745475   2.10691559   1.07604644
C   -1.06405019   0.70122091  -4.78346996
H   -1.86363662   1.14711351  -5.33731246
H   -0.18039771   0.68090010  -5.38649935
H   -0.87934568   1.27479989  -3.89928079
C   -1.45087958  -0.73681184  -4.39101000
N   -1.73889164  -1.80749260  -4.09880572
C    4.08075767   0.38451954  -1.17309653
H    3.07572853   0.39564781  -1.54010168
H    4.57761868  -0.49710822  -1.52060296
H    4.59985349   1.25003439  -1.52851552
C    4.06502991   0.39169370   0.36680645
N    4.05331988   0.39703519   1.51333421
C   -1.69682954   3.12635365   0.59269970
H   -0.76836005   3.55500559   0.90750457
H   -1.77732179   2.13002117   0.97446097
H   -2.50712544   3.71758701   0.96520844
C   -1.75106260   3.09245516  -0.94597170
N   -1.79144158   3.06721619  -2.09158249
