72
Energy:   -317.91993009
C    1.77777594   0.75887873  -4.40026621
H    1.53509825  -0.24144050  -4.10808619
H    2.48786394   1.16891027  -3.71284475
H    2.19759049   0.75108041  -5.38443795
C    0.50083308   1.61967701  -4.39368843
N   -0.44990891   2.26058046  -4.38879098
C   -2.00268382  -0.58458792  -2.89574052
H   -1.20246042  -1.03945339  -3.44130453
H   -1.72575165   0.41167268  -2.62065420
H   -2.87990017  -0.55483613  -3.50770900
C   -2.29044738  -1.40661399  -1.62567546
N   -2.50470042  -2.01864977  -0.68005428
C   -0.79888515   2.12705551   4.07059930
H   -0.57659879   3.13703500   4.34524524
H   -1.55636993   1.73948507   4.71937125
H   -1.14777459   2.10095292   3.05941489
C    0.47354277   1.26881844   4.19691768
N    1.42092318   0.62982193   4.29096746
C    3.70518932   1.37169327   1.75690623
H    3.11068057   0.48864243   1.86498368
H    3.23768235   2.18215276   2.27603217
H    4.67811950   1.19909285   2.16741209
C    3.83340615   1.72458676   0.26337798
N    3.92886941   1.98733200  -0.84862168
C   -4.49696340   0.58869184   0.81772274
H   -4.68296935   0.78628936   1.85273829
H   -4.37185331  -0.46399216   0.67245423
H   -5.32512601   0.93329970   0.23437790
C   -3.21738151   1.32340077   0.37673183
N   -2.26467463   1.87042496   0.04839405
C   -3.27659897   3.48334695  -3.03131102
H   -3.80848867   4.38571444  -2.81284716
H   -2.96052108   3.49420328  -4.05350278
H   -2.42021714   3.41089411  -2.39392587
C   -4.19854263   2.27326310  -2.79190138
N   -4.88497158   1.37230067  -2.61365002
C    4.03719188  -1.34330456  -2.01602186
H    3.63783717  -2.08009778  -2.68126749
H    5.10148994  -1.30788120  -2.12049153
H    3.62334757  -0.38580235  -2.25439445
C    3.67579631  -1.71194433  -0.56512629
N    3.40672088  -1.98641340   0.51513142
C   -2.74578009  -3.20927068   2.57403955
H   -2.40949859  -3.84228487   3.36846259
H   -2.12597932  -3.35610837   1.71428099
H   -3.75872659  -3.45186964   2.32912276
C   -2.66393799  -1.73770320   3.02057175
N   -2.60300282  -0.64205431   3.35303527
C    0.12913724  -0.45348493   1.16826651
H   -0.49923197   0.32494530   1.54786986
H    0.98017168  -0.56806914   1.80663157
H   -0.41959388  -1.37154126   1.13718911
C    0.59842924  -0.08761144  -0.25212133
N    0.94783846   0.18479800  -1.30966464
C    0.58007235   3.52005503  -1.23389738
H    1.50250280   3.27194625  -1.71604287
H    0.30616807   4.52396038  -1.48299491
H   -0.18597092   2.84929661  -1.56277415
C    0.74920944   3.39766345   0.29188535
N    0.87513968   3.30653736   1.42789995
C    2.72134914  -2.42678498   3.88679110
H    3.49330837  -3.16088577   3.98716622
H    2.46973132  -2.03953796   4.85199953
H    3.06612452  -1.62985388   3.26154726
C    1.47622546  -3.07456106   3.25302996
N    0.54917428  -3.55685979   2.78116599
C    0.52646441  -3.97403521  -0.59620450
H    1.39925502  -3.85436607   0.01109775
H    0.32549048  -5.01639029  -0.73038521
H   -0.30879905  -3.50869294  -0.11590188
C    0.76170600  -3.31580103  -1.96842503
N    0.93685406  -2.82571577  -2.99010558
