72
Energy:   -317.08888507
C    0.38623197  -0.59549169   0.10850160
H   -0.23332339  -0.62667194   0.98032677
H    1.36297239  -0.95830859   0.35189662
H   -0.04223212  -1.20975854  -0.65569331
C    0.48882068   0.85565731  -0.39671332
N    0.56520263   1.93610371  -0.77286879
C    4.41146071  -0.06124912   1.10712740
H    5.26078750  -0.16089275   1.75025673
H    4.70730720   0.41780723   0.19724886
H    4.01485509  -1.03042002   0.88733015
C    3.33408095   0.78756332   1.80739185
N    2.53192275   1.41954275   2.32877057
C    0.04774156  -1.40652838  -4.34422810
H    0.91538572  -1.71471369  -3.79914496
H    0.30807975  -0.60819708  -5.00739494
H   -0.32946589  -2.23216109  -4.91074751
C   -1.03281496  -0.92367740  -3.35890960
N   -1.83733841  -0.56417291  -2.62529520
C    2.49816803   4.46174923   0.34003999
H    2.28120833   4.09611740   1.32194734
H    1.61288926   4.42065694  -0.25953654
H    2.83919795   5.47395118   0.40363955
C    3.59374125   3.59031224  -0.30176752
N    4.40944531   2.94148779  -0.77962239
C   -2.92392393  -3.18183825  -0.67864931
H   -2.39959361  -3.50584813  -1.55328952
H   -3.26808982  -2.17864696  -0.82026910
H   -3.76131115  -3.82516693  -0.50599377
C   -1.97801270  -3.23343947   0.53551266
N   -1.27373880  -3.27185893   1.43951143
C    2.12173947  -4.00561284  -0.11473175
H    1.63706463  -4.11456118   0.83296058
H    2.71723309  -3.11664150  -0.11068129
H    2.74855746  -4.85397705  -0.29438826
C    1.06009205  -3.90725240  -1.22596079
N    0.26964729  -3.83401858  -2.05332132
C   -3.94006708   0.77540095   0.05166401
H   -4.74899600   0.07502273   0.05379106
H   -3.35874564   0.64617867  -0.83730509
H   -4.33041025   1.77122904   0.08095076
C   -3.05067851   0.53615706   1.28590480
N   -2.38848829   0.35802912   2.20485317
C    0.25597314  -1.07752246   3.89024953
H    0.29098923  -0.03680637   3.64411120
H    0.27104618  -1.19317678   4.95387351
H   -0.64194649  -1.50690767   3.49748015
C    1.47621743  -1.79092744   3.27897448
N    2.38474478  -2.32208988   2.82385242
C   -3.66169071  -2.43177792   3.96517726
H   -3.25335740  -1.47826033   4.22779540
H   -2.86549356  -3.12551377   3.79284104
H   -4.27841414  -2.78786084   4.76377370
C   -4.50769493  -2.29317599   2.68585464
N   -5.13758353  -2.18998056   1.73334080
C   -1.75908804   3.05305068  -2.86535944
H   -2.05726941   2.26623314  -2.20437064
H   -2.61348895   3.41331531  -3.39931409
H   -1.33009602   3.85228244  -2.29782659
C   -0.71765710   2.51667080  -3.86501850
N    0.05773557   2.11731160  -4.60931010
C    3.08409327   1.29589388  -3.35965100
H    4.08122172   1.68394881  -3.36660939
H    2.42585360   2.01182334  -2.91348441
H    2.77048434   1.10026982  -4.36378235
C    3.04770914  -0.01146831  -2.54658255
N    3.02061949  -0.98485888  -1.94121612
C   -0.58308521   3.29317690   2.34722772
H   -1.07467072   2.73045569   3.11311851
H   -0.18594132   4.19423579   2.76587877
H    0.21336592   2.71125272   1.93258456
C   -1.59345591   3.64375998   1.23914716
N   -2.34572283   3.90478502   0.41413081
