72
Energy:   -317.09738995
C    0.69933996  -0.36483187   1.07647836
H    0.94534075   0.57933285   1.51572405
H    1.57358787  -0.98078832   1.04202050
H   -0.05343339  -0.84660288   1.66480487
C    0.17044922  -0.14381595  -0.35286644
N   -0.22333398   0.02074045  -1.41707861
C    3.22942588   1.74207020   3.11066747
H    4.10638214   1.88573762   3.70666040
H    3.45299088   1.96353856   2.08798983
H    2.90491235   0.72578170   3.19281205
C    2.11255289   2.67924502   3.60654856
N    1.28099017   3.37701428   3.97575458
C    0.69709925  -1.70278468  -4.42093198
H    1.58363129  -2.26545052  -4.62676752
H   -0.08206367  -2.00827632  -5.08762464
H    0.39069354  -1.87688406  -3.41063299
C    0.98356365  -0.20271125  -4.61921927
N    1.19684942   0.91416161  -4.76685318
C    0.79680840   3.40408756  -2.40494234
H    0.09659342   4.20898972  -2.32289555
H    0.29776003   2.53371789  -2.77683810
H    1.58091982   3.68072629  -3.07839567
C    1.39431790   3.10015833  -1.01850467
N    1.83919088   2.87386919   0.01376119
C   -1.57923610  -3.43945948  -1.60224046
H   -1.47707534  -2.45387566  -2.00608189
H   -2.60403330  -3.61765707  -1.35137118
H   -1.25979065  -4.15737223  -2.32850142
C   -0.71109043  -3.56823463  -0.33679981
N   -0.06471651  -3.66411358   0.60537828
C    3.36278868  -3.61049684   0.57805264
H    2.61375568  -4.23065346   1.02443310
H    3.54673075  -2.76460136   1.20696061
H    4.26661680  -4.17109378   0.46089933
C    2.87525948  -3.12855068  -0.80094815
N    2.51227182  -2.76971986  -1.82767692
C   -3.69958149  -0.16608056  -0.49021560
H   -2.96390812  -0.65453093  -1.09445158
H   -4.00610190   0.74202780  -0.96590828
H   -4.54632760  -0.80905580  -0.36978739
C   -3.09855845   0.15532989   0.89075023
N   -2.65106948   0.39463458   1.91894206
C   -1.54321953   1.56691164   5.06544853
H   -2.37108647   1.50252263   4.39062220
H   -1.11354789   2.54530981   5.01050863
H   -1.88136932   1.38139827   6.06351597
C   -0.48343118   0.51842042   4.67929469
N    0.30562942  -0.26222896   4.39178561
C   -2.03287548  -2.77860408   3.41714140
H   -2.23685640  -1.82492285   3.85735053
H   -1.01480229  -2.80970688   3.08933248
H   -2.19797482  -3.54850555   4.14163642
C   -2.96694183  -2.99834518   2.21263573
N   -3.66239668  -3.16195241   1.31582650
C   -2.30082370   1.48595715  -3.88290781
H   -3.22492349   2.00153410  -4.04140127
H   -1.59324645   1.78500847  -4.62775802
H   -1.92010409   1.72651142  -2.91229701
C   -2.53714516  -0.03271961  -3.97972236
N   -2.71309723  -1.16344349  -4.05180520
C    3.57427524   0.52477388  -2.10592118
H    3.99164342   1.48449193  -2.32873332
H    2.51028355   0.56528974  -2.21165306
H    3.97240987  -0.20293840  -2.78180781
C    3.93191413   0.13254578  -0.66028929
N    4.19819253  -0.15948587   0.41604936
C   -1.14081696   3.43645039   1.69636444
H   -0.35963733   4.16639012   1.65339273
H   -0.73168127   2.49320889   1.99267939
H   -1.87823017   3.74467979   2.40778238
C   -1.79265860   3.29982533   0.30782705
N   -2.27798432   3.19810176  -0.72600215
