72
Energy:   -321.45870402
C    0.47705654   0.31946867   1.19204473
H    1.32280515   0.92759822   1.43656040
H    0.63152845  -0.67214251   1.56318458
H   -0.40197365   0.73469276   1.63902793
C    0.30263272   0.27378319  -0.33736338
N    0.17276626   0.23976827  -1.47607723
C    2.63473312   2.05524221   3.94564306
H    3.11808261   2.57513428   4.74625888
H    2.99937058   2.42366586   3.00958611
H    2.84335312   1.00860755   4.02266695
C    1.11400624   2.28310353   4.02972038
N   -0.01824404   2.45275664   4.09231976
C    1.94367010  -1.78207333  -3.82061769
H    2.84606161  -2.31198046  -3.59748506
H    1.48184967  -2.21217361  -4.68469797
H    1.27511344  -1.84976164  -2.98794166
C    2.27179949  -0.30295708  -4.09656374
N    2.51610674   0.79831220  -4.30201811
C    1.52761840   3.49511506  -2.33446289
H    0.82771636   4.28429294  -2.51400560
H    1.12243849   2.57112163  -2.69078363
H    2.44202688   3.70549164  -2.84875650
C    1.80204617   3.38636345  -0.82301904
N    2.00637011   3.30539294   0.30231960
C   -1.07457965  -3.18473610  -1.50632188
H   -0.88944308  -2.25277131  -1.99832419
H   -2.03090921  -3.56131972  -1.80384103
H   -0.31460291  -3.88783026  -1.77649415
C   -1.05843660  -2.97213943   0.01884763
N   -1.04641737  -2.81385154   1.15440567
C    2.46934192  -3.04822436   2.11066485
H    3.09460382  -3.89272009   2.31259234
H    1.47972231  -3.24370175   2.46751314
H    2.86348217  -2.18590986   2.60661470
C    2.42647728  -2.79252832   0.59264570
N    2.39456260  -2.60215100  -0.53758856
C   -3.38034624   0.06678613  -1.59937640
H   -3.37453261   1.02828846  -2.06882252
H   -4.30964652  -0.42339640  -1.80191320
H   -2.57473849  -0.52291995  -1.98426857
C   -3.21068842   0.23717421  -0.07826361
N   -3.08437046   0.36403587   1.05427401
C   -1.69956332  -0.71592507   4.10091647
H   -1.99058457  -1.11291254   3.15085976
H   -1.87352377   0.33974753   4.11478041
H   -2.27437298  -1.18229994   4.87356608
C   -0.20303834  -0.99270858   4.33629678
N    0.91119252  -1.19878649   4.51154812
C   -4.42716929  -2.77419087   2.19198713
H   -3.51768477  -3.20221534   2.55877473
H   -5.26174214  -3.28999630   2.61899067
H   -4.46982417  -1.74019722   2.46390033
C   -4.47359506  -2.90395951   0.65816682
N   -4.50816116  -3.00057816  -0.48383212
C   -1.05909464   1.47802559  -4.50775840
H   -1.85174830   1.93009633  -5.06653599
H   -0.11889534   1.74133223  -4.94547290
H   -1.09179340   1.82636344  -3.49657562
C   -1.22438859  -0.05293191  -4.52890206
N   -1.34745745  -1.19279935  -4.54464447
C    4.05395058   0.51898585  -1.11715320
H    3.05996777   0.73256959  -1.45074031
H    4.41221349  -0.36313691  -1.60542179
H    4.69438629   1.34279664  -1.35395899
C    4.04716330   0.29551019   0.40653068
N    4.04210987   0.12912240   1.54098258
C   -1.53022910   3.63632406   1.34283361
H   -0.49649538   3.75367592   1.59288024
H   -1.92948259   2.79126392   1.86376460
H   -2.06797195   4.51682812   1.62646069
C   -1.66945886   3.41641197  -0.17501149
N   -1.77312175   3.25267743  -1.30511616
