72
Energy:   -316.84414568
C    1.61716673   1.93426058   3.19576382
H    2.02534724   1.04968799   2.75324807
H    0.68516112   1.70019619   3.66637883
H    2.29984653   2.31525111   3.92630717
C    1.38853431   2.99592193   2.10388361
N    1.21830708   3.78637707   1.29092917
C    5.05064176  -0.89096021   2.69283652
H    5.86859700  -1.08823738   3.35384418
H    5.20983809  -1.40156298   1.76610008
H    4.14092073  -1.23571450   3.13831516
C    4.95359200   0.62404890   2.43413063
N    4.88133405   1.75204205   2.24151233
C    1.73000218  -2.15150137  -2.90506585
H    2.56350540  -2.24734411  -2.24099754
H    1.96343742  -2.61677959  -3.83990447
H    0.87393821  -2.62705927  -2.47390664
C    1.42649999  -0.65945610  -3.13590636
N    1.20052881   0.45143942  -3.30777762
C    0.29467496   3.27056450  -1.83402062
H    0.86033267   2.54857384  -1.28296617
H    0.51929204   4.25187668  -1.47142903
H    0.54909099   3.20672690  -2.87137126
C   -1.20890158   2.98921331  -1.65597817
N   -2.32838265   2.77973455  -1.52341747
C   -1.32157463  -0.51385678  -0.44187119
H   -1.33194280  -1.50559831  -0.84341994
H   -1.63486758   0.17902229  -1.19464288
H   -1.98916864  -0.45992845   0.39258017
C    0.10509431  -0.16133408   0.01850202
N    1.16731418   0.10113509   0.36127080
C    2.65673848  -3.13336025   0.85623780
H    2.89123034  -3.64237067   1.76773226
H    2.78130060  -2.07959752   0.99396027
H    3.31134759  -3.47149220   0.08031720
C    1.19781878  -3.43073965   0.46289471
N    0.11158674  -3.65215214   0.17003289
C   -3.31209011  -3.84829010  -1.19046331
H   -3.71782338  -3.28647295  -2.00571922
H   -3.77043739  -4.81467577  -1.16020430
H   -2.25614553  -3.95837953  -1.32373170
C   -3.58823137  -3.10756606   0.13115460
N   -3.79383110  -2.55606334   1.11515920
C   -1.11494941  -1.79907227   3.14775281
H   -1.26116758  -2.44484707   2.30722004
H   -1.52043880  -0.83308350   2.93016801
H   -1.60998339  -2.20928425   4.00306946
C    0.39157862  -1.66954215   3.43963504
N    1.51325722  -1.57310109   3.65695463
C   -4.82405917   0.83013903   0.31552372
H   -4.35546789   1.78273622   0.18180395
H   -4.31746716   0.28859553   1.08688244
H   -5.84776096   0.97198723   0.59267502
C   -4.75422869   0.03437220  -1.00109272
N   -4.70223673  -0.55811238  -1.98137350
C   -2.33372073   0.42468536  -4.32268847
H   -2.94863008   0.84808298  -3.55618921
H   -2.87676430   0.40326603  -5.24439558
H   -1.45217601   1.01931252  -4.44183767
C   -1.93589884  -1.00968406  -3.92781874
N   -1.63970235  -2.07763730  -3.63382027
C    3.80016865   1.75748669  -1.01844131
H    3.15027740   1.98983231  -0.20078792
H    3.29799848   1.95891797  -1.94156083
H    4.68310021   2.35848812  -0.95418999
C    4.18751514   0.26817678  -0.95912267
N    4.47591220  -0.84068214  -0.91495725
C   -2.29064364   4.28704427   1.58331237
H   -2.99336449   4.36162323   0.77986881
H   -1.36040721   4.72374214   1.28522806
H   -2.67038533   4.80586020   2.43860493
C   -2.07155141   2.80447809   1.93770780
N   -1.90842729   1.70064018   2.20157129
