72
Energy:   -317.10823694
C    0.83505243  -3.31596353   3.39001955
H   -0.08467624  -2.77145706   3.44013995
H    0.82976614  -4.09343939   4.12514024
H    0.94204952  -3.74648811   2.41631564
C    2.01238878  -2.36102651   3.66126560
N    2.88896920  -1.65003249   3.86322061
C    1.44856497   2.93194112  -1.57815896
H    2.46288597   3.19266518  -1.79742146
H    0.80335004   3.35475189  -2.31966272
H    1.34545101   1.86692548  -1.58104009
C    1.06573448   3.48098927  -0.19122459
N    0.78069978   3.88978058   0.84141109
C    0.48355554  -1.61704669   0.08337310
H    1.01280466  -1.92599189  -0.79375199
H   -0.19527461  -2.38884674   0.38071701
H    1.18061167  -1.43121700   0.87361305
C   -0.30440073  -0.32903497  -0.21953073
N   -0.89106999   0.62994829  -0.44505641
C   -1.53095346  -4.24603947  -1.76694722
H   -0.57570986  -3.92646914  -2.12789688
H   -1.92466423  -4.99853931  -2.41781965
H   -1.42353599  -4.64781212  -0.78107740
C   -2.49374355  -3.04469020  -1.72959532
N   -3.21058453  -2.15023106  -1.70178512
C    2.53413883   1.57894111   2.95372093
H    3.44831641   1.69995631   3.49643159
H    1.89614000   0.89780807   3.47708921
H    2.04559723   2.52648736   2.86216597
C    2.83978314   1.02133285   1.55113241
N    3.06734922   0.60616815   0.50684149
C   -4.02147048   1.06929759  -1.99742149
H   -4.79630151   0.36578571  -2.22015023
H   -3.06888127   0.58937605  -2.08196849
H   -4.07197525   1.88576011  -2.68715863
C   -4.20462060   1.59746230  -0.56246572
N   -4.34098418   1.99070493   0.50592408
C   -0.68462998   0.90659130  -4.01706909
H    0.12938166   1.41907903  -4.48572840
H   -0.95535656   1.41602171  -3.11591046
H   -1.52330268   0.88665510  -4.68124508
C   -0.25949186  -0.53551622  -3.68362726
N    0.05704280  -1.60923083  -3.43536466
C   -3.61903275  -1.28494323   1.63536855
H   -3.05766890  -0.53773911   1.11435336
H   -3.82294244  -0.94863197   2.63046385
H   -4.54137829  -1.46056754   1.12220785
C   -2.80601000  -2.59162999   1.69161546
N   -2.20067761  -3.56451768   1.73349385
C   -1.65672853   2.32209806   2.55077433
H   -2.66121327   2.40104649   2.91088227
H   -1.64729708   2.45227804   1.48876524
H   -1.05339763   3.07819685   3.00816426
C   -1.09294010   0.93288997   2.90268836
N   -0.67317399  -0.10143860   3.16470435
C    3.45733276  -1.36857386  -2.51428492
H    2.78835799  -2.13614649  -2.84323051
H    3.33804408  -1.21854670  -1.46159258
H    4.46550702  -1.66153706  -2.72081898
C    3.14082502  -0.05811970  -3.25868585
N    2.90517062   0.91757299  -3.81292618
C   -2.50440564   5.07694250   0.02465955
H   -3.19462547   4.48435195   0.58798291
H   -2.93643184   6.03552339  -0.17377216
H   -1.60140206   5.20177608   0.58492753
C   -2.18885984   4.37052171  -1.30688110
N   -1.95392165   3.84455931  -2.29827364
C    5.33083601  -1.90586114   1.37242322
H    5.37020994  -0.99937930   0.80528959
H    6.24519681  -2.44665881   1.24443370
H    5.19610803  -1.67307245   2.40806644
C    4.15207647  -2.76721623   0.88232798
N    3.27443641  -3.40853424   0.51742979
