72
Energy:   -317.55823058
C    3.19095045  -0.48175324   3.84671236
H    2.13584902  -0.39776505   4.00357903
H    3.66700225  -0.75867166   4.76409449
H    3.38295649  -1.22914242   3.10546869
C    3.74800486   0.87160619   3.36743307
N    4.16275719   1.87924380   3.01058786
C    1.63670937   4.02243791   2.51542366
H    2.65943602   4.26484839   2.71584209
H    1.36987317   3.13357705   3.04798718
H    1.01009007   4.82978427   2.83234513
C    1.45065522   3.79086759   1.00434489
N    1.31212945   3.61845295  -0.12072193
C    1.91746751  -2.15369858  -2.99744372
H    0.85190016  -2.18306843  -2.90468687
H    2.36406615  -2.52663952  -2.09946610
H    2.22030032  -2.76052024  -3.82506613
C    2.37246768  -0.70129965  -3.23220356
N    2.71123599   0.38007737  -3.40699294
C    0.05882627   0.43440774  -0.64673960
H   -0.88214798   0.89690785  -0.86019050
H    0.02826472  -0.59189418  -0.94785327
H    0.83461673   0.94035595  -1.18252375
C    0.34055373   0.51767383   0.86498008
N    0.55031263   0.57966922   1.99052410
C   -3.26991684  -3.17502532   0.96244078
H   -2.62688946  -3.70754877   0.29323621
H   -4.28938992  -3.41726143   0.74588733
H   -3.04382695  -3.45252978   1.97079276
C   -3.05351646  -1.66054904   0.78599678
N   -2.89239654  -0.53295262   0.65462621
C    1.29449961  -3.07555160   1.81398836
H    2.34102543  -3.19765460   1.62750849
H    0.96343378  -3.83008321   2.49661312
H    1.11811214  -2.10900094   2.23774110
C    0.51863677  -3.20496371   0.49002108
N   -0.05902839  -3.30131691  -0.49573274
C   -3.59246132   0.17206385  -2.64190479
H   -4.14036953  -0.68710993  -2.31553509
H   -4.15564879   0.69173382  -3.38867255
H   -3.41893340   0.82174589  -1.80961854
C   -2.24306220  -0.27436171  -3.23471693
N   -1.23837322  -0.60674583  -3.67609251
C   -2.00970302   0.24045772   4.13202839
H   -2.57219995   0.55974060   3.27964595
H   -1.14187450   0.85731749   4.23812634
H   -2.61535304   0.32279031   5.01027009
C   -1.57746820  -1.22538792   3.94210830
N   -1.25564973  -2.31677662   3.80070416
C   -1.48179725  -4.16345507  -3.56995336
H   -1.07490353  -3.33997807  -4.11879151
H   -1.69858234  -4.96754282  -4.24177641
H   -0.77189814  -4.49069824  -2.83930006
C   -2.77713793  -3.72037477  -2.86470703
N   -3.74157794  -3.39048135  -2.33961908
C    0.64513224   3.01669199  -3.62625136
H    0.75269324   2.17611415  -4.27951985
H    1.34458596   2.93418868  -2.82073489
H    0.83326968   3.91818502  -4.17105749
C   -0.78714548   3.04776280  -3.06126010
N   -1.85354134   3.07089643  -2.64059841
C    4.11267197   1.55388203  -0.52596678
H    4.21003520   2.16680378   0.34566818
H    3.36776499   1.96881737  -1.17237326
H    5.04983986   1.51452641  -1.04081294
C    3.69582897   0.13117631  -0.10913307
N    3.38547041  -0.92809277   0.20121857
C   -2.36095522   3.12603695   0.68333109
H   -2.79004698   2.15115242   0.58144586
H   -1.49387304   3.20091369   0.06086739
H   -3.07727478   3.86372163   0.38734683
C   -1.96036861   3.35966130   2.15185076
N   -1.66211366   3.53360525   3.24523041
