28
Energy:   -380.57809477
Na  -0.39671346  -0.76031359   0.80759034
O   -2.65594615  -0.44874362   1.24334495
H   -3.12403073  -0.13046099   0.47144804
H   -3.34254321  -0.61190280   1.89002525
C   -1.77218386   4.17383490  -0.40420254
H   -1.75050651   4.60133528   0.57644710
H   -2.76576195   4.23247238  -0.79696620
H   -1.10379318   4.71248461  -1.04295873
C   -1.33535546   2.69890423  -0.33098729
N   -1.01011686   1.60075130  -0.27647521
C   -1.48583371  -1.25560745  -4.01254358
H   -1.70782585  -0.24564316  -4.28748320
H   -2.30426004  -1.88799914  -4.28669351
H   -0.60079942  -1.57725942  -4.52063158
C   -1.26219625  -1.33609151  -2.49099549
N   -1.09568799  -1.39601555  -1.35813377
C    3.24661501   2.81450190   1.56273489
H    2.93971322   3.58721443   0.88921666
H    4.25105406   2.52283788   1.33705065
H    3.19798419   3.17758075   2.56807457
C    2.31267313   1.59958733   1.40997637
N    1.61731096   0.69502820   1.29624071
C    2.46449528  -4.81701125   1.44526147
H    3.33606440  -4.59996003   2.02677348
H    2.75736488  -5.10160390   0.45625515
H    1.92207201  -5.61874775   1.90121616
C    1.56925642  -3.56589864   1.37551465
N    0.90271040  -2.63438843   1.32358497
