28
Energy:   -382.88993286
Na  -0.93263917  -0.22868066   0.73680614
O   -1.36743163  -0.77522609   3.02207130
H   -1.91217455  -0.24792181   3.60639759
H   -0.79165561  -1.26592377   3.60852642
C    2.26560039   1.90911895  -2.92782174
H    2.63432109   2.79625266  -2.45671772
H    1.79647004   2.16604145  -3.85453995
H    3.07916977   1.23940592  -3.11353233
C    1.23918167   1.22641812  -2.00479185
N    0.47496627   0.71811633  -1.31755413
C    3.89798764  -1.76809306   0.22382397
H    4.16156965  -1.26699770  -0.68410122
H    3.90989518  -2.82598474   0.06375367
H    4.60255036  -1.51509296   0.98833780
C    2.48744247  -1.33085282   0.66061146
N    1.43722748  -1.00530758   0.98581960
C   -3.58111871  -4.08649307  -0.97395566
H   -2.99495103  -4.79352774  -1.52296351
H   -4.41749942  -3.77986569  -1.56670018
H   -3.93146122  -4.53914786  -0.06992975
C   -2.71676615  -2.85871918  -0.63180669
N   -2.07321638  -1.94458571  -0.37706123
C   -0.86241029   4.66174801   0.64851411
H   -1.41834463   5.01725706  -0.19377474
H    0.18485377   4.74502867   0.44553281
H   -1.10644428   5.24762871   1.50996075
C   -1.21833193   3.18698597   0.91308302
N   -1.48333176   2.08895859   1.11006660
