28
Energy:   -378.49346821
Na   0.43778142  -0.55679165   0.61659091
O    0.16005801  -0.45838569   2.93747603
H    0.79596501  -0.47151018   3.65279545
H   -0.68095072  -0.30164414   3.36685726
C    1.07484346   4.49749072   0.45674394
H    2.08611763   4.64737625   0.14089739
H    0.91894181   4.98416289   1.39682052
H    0.40870169   4.90880407  -0.27262260
C    0.80249212   2.98933704   0.60806222
N    0.59971418   1.86644807   0.72072556
C   -1.66711478  -5.12928643   0.44630221
H   -1.81691718  -5.48164691  -0.55284818
H   -2.61603150  -4.95907149   0.91050372
H   -1.12301833  -5.86186689   1.00503651
C   -0.86887133  -3.81276242   0.41206894
N   -0.27454279  -2.83255045   0.38658072
C   -4.25846161   0.65302345  -2.11353182
H   -4.85680752  -0.23300183  -2.15644519
H   -3.96760112   0.93528918  -3.10379710
H   -4.82466266   1.44457475  -1.66882741
C   -3.00100397   0.38274324  -1.26656731
N   -2.06476959   0.18150733  -0.63596374
C    4.50336237   0.77649117  -1.60077902
H    4.12903775   1.60559258  -2.16413691
H    5.06868771   0.13460571  -2.24365491
H    5.13194009   1.13542096  -0.81276979
C    3.32378001  -0.00955182  -0.99884725
N    2.44552732  -0.59479656  -0.55068168
