28
Energy:   -385.08250311
Na   0.08854247  -0.74895577  -0.81217247
O   -1.47695149  -0.85729450  -2.59483806
H   -1.31470979  -0.66501844  -3.51838525
H   -2.42179067  -1.00125729  -2.54206020
C    0.06354491  -5.30762694   1.50872513
H   -0.86335495  -5.40812351   2.03375586
H    0.87239802  -5.31089421   2.20918573
H    0.17815495  -6.12495017   0.82773587
C    0.06849121  -3.98194774   0.72504776
N    0.07217396  -2.99491932   0.14156435
C   -3.74398714   1.49154476   1.74962042
H   -3.75166929   2.55828660   1.66653603
H   -3.61949257   1.21459658   2.77563206
H   -4.66961570   1.09863914   1.38392104
C   -2.57989444   0.92032165   0.91884227
N   -1.71317450   0.49502007   0.30029018
C    3.21116847   2.30361407  -3.34887341
H    3.00386434   3.24944237  -2.89353398
H    3.04570767   2.37172120  -4.40380622
H    4.23022787   2.03462606  -3.16431316
C    2.28098592   1.23144473  -2.75153488
N    1.58842272   0.43316592  -2.30678920
C    1.54852315   2.71519973   2.79752737
H    2.42415673   2.59247152   3.40010832
H    0.68487283   2.75737426   3.42778806
H    1.62570545   3.62336033   2.23700412
C    1.42019115   1.52406232   1.82988975
N    1.32464214   0.63720637   1.10943956
