28
Energy:   -382.46199932
Na   1.04483714  -0.01455900  -0.60930915
O    1.72748835   0.89298568  -2.59286662
H    1.58317445   1.77495823  -2.93569276
H    2.26002414   0.46025639  -3.26023671
C   -2.09123573  -2.22462145   2.57734146
H   -2.07726754  -3.29299846   2.63457469
H   -3.07712326  -1.89379923   2.32538605
H   -1.80781921  -1.81302238   3.52347061
C   -1.10030458  -1.75548805   1.49587518
N   -0.36251130  -1.40619691   0.69067437
C   -4.14839415   1.08241269  -1.37112800
H   -4.40844638   1.72832477  -2.18357529
H   -4.58969315   1.44963862  -0.46818869
H   -4.51123412   0.09560864  -1.56978357
C   -2.61675163   1.04451137  -1.21545307
N   -1.47637416   1.01629212  -1.09954600
C    4.54042503  -3.71919228   0.06074994
H    5.43256895  -3.33314211   0.50790169
H    4.78980111  -4.24200215  -0.83890582
H    4.06155691  -4.39068200   0.74242873
C    3.58670000  -2.55591522  -0.26909100
N    2.87660836  -1.68980257  -0.51467257
C   -0.54074321   4.04938919   1.30644037
H   -1.53119565   3.70515286   1.51952604
H   -0.57021648   4.73427889   0.48488300
H   -0.14155716   4.54273987   2.16792438
C    0.35265947   2.84904465   0.94229116
N    1.01783837   1.95533358   0.67116552
