28
Energy:   -384.83987533
Na  -0.10627686  -0.29893784   0.36486994
O    0.45005248  -0.32926008   2.63722375
H    0.00249843   0.38973163   3.08329342
H    1.08409695  -0.65151626   3.27782535
C    4.65956347   0.59957625  -1.31890006
H    4.59461840   1.38868766  -2.03861216
H    5.01221918  -0.29061425  -1.79649185
H    5.33928455   0.88064641  -0.54180424
C    3.26718252   0.34052321  -0.71411348
N    2.23049161   0.14764645  -0.26382239
C   -0.26072880  -5.29937573   0.63137140
H   -1.18384022  -5.68335799   1.01258406
H    0.53020132  -5.52865321   1.31457011
H   -0.05305259  -5.74722362  -0.31794517
C   -0.36938521  -3.77217122   0.46572061
N   -0.45028485  -2.63509805   0.34238608
C   -3.28894073   3.71682936   2.34362121
H   -3.91316671   3.47601563   3.17863669
H   -3.89997158   3.93678119   1.49323213
H   -2.68840659   4.56985817   2.58152809
C   -2.37541291   2.51912895   2.02333906
N   -1.69524992   1.62738656   1.78487444
C   -1.29016084   1.29967465  -4.22136402
H   -0.86472211   0.55862269  -4.86537028
H   -0.80108739   2.23726418  -4.38455751
H   -2.33400679   1.40013641  -4.43394851
C   -1.10401658   0.87221687  -2.75363443
N   -0.96542372   0.55395512  -1.66084303
