28
Energy:   -383.26985104
Na  -0.05467385  -0.89766657   0.28458920
O   -1.15713789  -2.86842055   0.86490434
H   -2.10220443  -2.91580390   0.72055788
H   -0.89714744  -3.77078245   1.05032226
C    3.22992563   1.32369231   3.48672268
H    4.04430779   1.82132309   3.00294020
H    3.61219051   0.63826049   4.21401620
H    2.60705762   2.04665699   3.97072331
C    2.40411127   0.55345536   2.43964786
N    1.78925495  -0.02002107   1.66005306
C   -0.91402464   4.02092946   1.10840760
H   -0.66839337   4.43396189   0.15238999
H   -0.18416216   4.32832193   1.82792807
H   -1.88015644   4.36850784   1.40953499
C   -0.92749889   2.48380038   1.01538816
N   -0.93753108   1.33933790   0.94613097
C    2.65514627  -3.62303407  -3.01634244
H    3.51475365  -3.11375015  -3.39923303
H    2.00312897  -3.87979391  -3.82495045
H    2.96422763  -4.51393711  -2.51071454
C    1.91152427  -2.70424395  -2.02919957
N    1.35786389  -2.02016294  -1.29422684
C   -3.89414614   1.30493088  -2.35916718
H   -4.75635598   1.28271737  -1.72592084
H   -4.16011907   0.95889509  -3.33610972
H   -3.52497147   2.30713030  -2.42401673
C   -2.80173990   0.39251495  -1.77116564
N   -1.98839381  -0.28682018  -1.33337178
