28
Energy:   -398.57495457
Na   0.16545926   0.76634634   0.13773134
O    0.64817234   3.00225700   0.53962201
H    0.38795855   3.76090399   0.01715156
H    1.15192668   3.37170830   1.26485931
C    2.63978996  -0.90703660   4.24289114
H    2.51982642  -1.97008967   4.22222500
H    2.21719952  -0.51789891   5.14560277
H    3.68125361  -0.66479495   4.20324856
C    1.92173170  -0.28574800   3.03045854
N    1.38710469   0.17682961   2.12774736
C    3.14190653  -2.27361303  -2.63292138
H    4.11206682  -2.31927232  -2.18391757
H    3.22539037  -1.87613965  -3.62284282
H    2.72294608  -3.25716300  -2.67765049
C    2.22843484  -1.36438398  -1.79002636
N    1.54831364  -0.68742163  -1.16245270
C   -3.96981031  -1.56055953   1.94387308
H   -3.95908784  -1.51600582   3.01289141
H   -3.98302632  -2.58329069   1.62963528
H   -4.84212997  -1.06276211   1.57488087
C   -2.71073104  -0.86917013   1.38862531
N   -1.77328929  -0.35439930   0.97521811
C   -2.46937018   1.69582462  -4.10120936
H   -1.86257414   2.15962450  -4.85060140
H   -3.32672052   2.30627959  -3.90835132
H   -2.78675117   0.73340015  -4.44458602
C   -1.65196646   1.53487221  -2.80600842
N   -1.04337223   1.41503582  -1.84167244
