28
Energy:   -382.45640306
Na   0.35822909  -0.23341778  -0.45821296
O    1.78041490  -2.05502386  -0.09120928
H    2.35399508  -2.78369392  -0.32843820
H    1.64309620  -2.15456167   0.85084573
C   -3.42488144  -2.92607109  -2.35212363
H   -4.41183139  -2.52724328  -2.24365078
H   -3.37855712  -3.89256072  -1.89534039
H   -3.18686904  -3.01118831  -3.39183718
C   -2.41364180  -1.98655555  -1.66925837
N   -1.66072793  -1.28704353  -1.16083415
C   -0.44767443   3.00614454  -4.21673995
H   -0.61211180   3.96318122  -3.76736113
H   -1.35311640   2.66701491  -4.67506848
H    0.31893968   3.08751054  -4.95875171
C   -0.01119846   1.99971229  -3.13591487
N    0.31377774   1.25037774  -2.33119147
C   -0.64656066  -1.67061203   4.80928942
H   -0.54335037  -0.71031039   5.26979846
H   -0.14030667  -2.40552924   5.39963058
H   -1.68404881  -1.92268239   4.73873466
C   -0.03052516  -1.63220417   3.39839428
N    0.42814127  -1.60360778   2.34791871
C    2.77329868   3.56435998   1.82903545
H    2.76330052   3.54501116   2.89881386
H    2.36169859   4.49024183   1.48519353
H    3.78038411   3.47025714   1.48000437
C    1.93063332   2.39506576   1.28657245
N    1.30323066   1.52447306   0.88268409
