28
Energy:   -384.74035804
Na   0.70677619  -0.35001026  -0.29195480
O    2.68430681  -1.42479034  -0.95837313
H    3.13470763  -1.34111398  -1.79883087
H    3.36081324  -1.72757543  -0.35265695
C    0.17589546  -3.85003563   3.48390604
H   -0.44644793  -3.37710559   4.21460849
H    1.12075994  -4.09276186   3.92346738
H   -0.29716842  -4.74534766   3.13818069
C    0.39256492  -2.89277528   2.29718494
N    0.55388519  -2.18005143   1.41361714
C    1.64143124   2.63800587   3.80773391
H    1.91209990   2.05916890   4.66598005
H    0.74719970   3.18754444   4.01571568
H    2.43238135   3.31938505   3.57317173
C    1.40051831   1.69949531   2.61075484
N    1.22114769   1.00073154   1.71954951
C   -1.38908518   3.34094104  -2.96045950
H   -2.25006030   3.66116750  -2.41175463
H   -1.69851666   2.74641529  -3.79454006
H   -0.85173403   4.19673696  -3.31226369
C   -0.47795693   2.50401910  -2.04339518
N    0.20041947   1.88089268  -1.36059910
C   -3.27246181  -0.77878072  -3.41181945
H   -3.89442583  -1.63039368  -3.23066676
H   -2.95767738  -0.77808314  -4.43446767
H   -3.82364905   0.11532402  -3.20769100
C   -2.03705303  -0.84094123  -2.49448570
N   -1.11723504  -0.88722255  -1.81148902
