28
Energy:   -380.83458910
Na  -0.64891915   0.26398606  -0.30401599
O   -1.71406189   1.35224508  -2.01240220
H   -1.78611282   1.00652340  -2.90207463
H   -2.28283491   2.12211722  -2.00730493
C   -3.36569845  -3.69410359   1.49706095
H   -4.24524458  -3.20495038   1.86041743
H   -2.84836445  -4.15130615   2.31451459
H   -3.64268452  -4.44414831   0.78599786
C   -2.44572922  -2.66058307   0.82097519
N   -1.76077032  -1.89108006   0.31759861
C    3.65923082   1.88564887  -0.71152523
H    4.15398700   0.93695666  -0.70154528
H    4.24640711   2.59980938  -0.17291788
H    3.53759739   2.21385248  -1.72265667
C    2.27711562   1.75083112  -0.04580626
N    1.24806804   1.65045318   0.44985178
C   -0.86176039   2.98833090   4.00711131
H   -0.31636125   2.36916557   4.68834126
H   -1.78194407   3.29283308   4.46036566
H   -0.27933489   3.85310102   3.76658633
C   -1.16060868   2.19658669   2.72047585
N   -1.38311482   1.60709714   1.76251727
C    2.50541859  -2.56011138  -3.07699888
H    2.81917024  -2.05106542  -3.96431635
H    1.95477988  -3.43754153  -3.34497731
H    3.36441252  -2.83942048  -2.50340064
C    1.61004814  -1.62791557  -2.23978760
N    0.94340414  -0.93385342  -1.61644575
