28
Energy:   -380.68304987
Na   0.06249581   0.71216904  -0.61046167
O   -0.20934476   2.40932456  -2.25587910
H   -0.94310740   2.94072397  -2.56481099
H    0.56966240   2.88903746  -2.53740214
C   -4.40632434  -1.55049325  -0.90457745
H   -4.18436083  -2.49205473  -0.44730909
H   -4.64662711  -1.70276283  -1.93606552
H   -5.23957634  -1.09994781  -0.40698425
C   -3.18066731  -0.62464118  -0.79429237
N   -2.26810995   0.06469777  -0.71218011
C    1.11309266  -2.03422320   3.50994054
H    0.36756679  -2.80151344   3.49104484
H    0.88962957  -1.33897871   4.29198813
H    2.07262342  -2.47350936   3.68665350
C    1.12670540  -1.29828618   2.15723533
N    1.13684071  -0.75034762   1.15008481
C    2.67919820  -1.96585331  -4.12871719
H    2.42528079  -3.00504945  -4.10641232
H    3.72439599  -1.84975962  -3.93127624
H    2.45171941  -1.56374634  -5.09384023
C    1.86774392  -1.21600794  -3.05592929
N    1.26357933  -0.65771398  -2.25718993
C    0.60885640   2.86923318   3.82052333
H   -0.22748139   2.37297052   4.26679976
H    0.57855997   3.91021260   4.06617161
H    1.51684575   2.44153687   4.19137410
C    0.54933581   2.70081094   2.29091840
N    0.50502003   2.57541292   1.15205800
