28
Energy:   -383.26022697
Na   0.00278074  -0.56203146  -0.08276781
O    0.72254212  -2.38569594  -1.37575129
H   -0.07132743  -2.60694046  -1.86263306
H    1.43765704  -2.71412476  -1.92070726
C   -4.38149863  -0.22726451  -2.58756525
H   -4.45269606  -0.82522017  -3.47203127
H   -4.41713692   0.80855098  -2.85348868
H   -5.19827694  -0.45638280  -1.93543253
C   -3.05218246  -0.52769684  -1.87044674
N   -2.06244616  -0.75138237  -1.33651942
C   -1.18049735   1.88997602   4.22271332
H   -1.64001408   1.23120483   4.92965396
H   -1.79280269   2.75792248   4.09367764
H   -0.21676757   2.18372550   4.58303990
C   -1.02492498   1.16613903   2.87235882
N   -0.90909429   0.62720950   1.86695852
C    1.26161839   3.90258447  -2.27436265
H    2.24703686   4.28027750  -2.09773143
H    0.54004602   4.61539246  -1.93357358
H    1.12742080   3.73229084  -3.32216519
C    1.07502110   2.57817136  -1.51100731
N    0.93609093   1.59208560  -0.94265456
C    3.77968411  -3.31368784   1.82038699
H    3.92930200  -3.94837004   0.97203967
H    3.52414339  -3.90998282   2.67128670
H    4.67917765  -2.77061815   2.02258932
C    2.63753346  -2.32361350   1.52569272
N    1.78715039  -1.58645815   1.30627944
