28
Energy:   -384.33838638
Na  -0.02015148   0.85018238   0.06451869
O    1.51929918   2.63832086  -0.00806941
H    2.47544096   2.63910711  -0.05305984
H    1.27297436   3.55635521  -0.12106880
C    3.12878601  -0.23936126   3.96647848
H    2.56759358  -0.40301594   4.86268180
H    3.69265392   0.66529598   4.05893034
H    3.79589578  -1.06086264   3.80836734
C    2.16479423  -0.12350293   2.77111382
N    1.44705853  -0.03724114   1.88111049
C   -1.69242606   0.70088099  -4.84229293
H   -1.77122215   1.61692171  -5.38961437
H   -2.61270624   0.16020122  -4.91745181
H   -0.89765002   0.11032280  -5.24784338
C   -1.39838591   1.01060471  -3.36269446
N   -1.17945966   1.24120810  -2.26106616
C    1.81640484  -3.40240065  -1.65267477
H    1.12858097  -4.19753429  -1.45377530
H    2.64263527  -3.46788269  -0.97595143
H    2.17216988  -3.48183495  -2.65866707
C    1.10516589  -2.04942901  -1.46503980
N    0.57561616  -1.04208012  -1.32533704
C   -4.37885099   0.16751222   2.63905912
H   -4.30636420  -0.74764393   3.18872725
H   -5.16687550   0.08987194   1.91941444
H   -4.58866253   0.97227093   3.31229135
C   -3.04703743   0.43814647   1.91474582
N   -2.05544170   0.63964597   1.37546165
