28
Energy:   -378.79759920
Na   0.63447485   0.04160914   0.03511153
O    2.28254667   0.37213505  -1.59360476
H    2.18849027   0.82124882  -2.43365361
H    3.22125453   0.20152076  -1.51646752
C    1.71410093   4.32677254   2.69686766
H    1.00438442   4.40042587   3.49422445
H    1.51964095   5.09179307   1.97449103
H    2.70296357   4.44788009   3.08722996
C    1.59221595   2.94540231   2.02712118
N    1.50146704   1.91690938   1.52846449
C   -3.69550850  -2.53996661  -0.44972002
H   -4.46201226  -1.96686309  -0.92818059
H   -3.93548730  -2.66230750   0.58581944
H   -3.62522663  -3.50071311  -0.91547288
C   -2.34807694  -1.80596978  -0.58116147
N   -1.34485290  -1.25947578  -0.67902561
C   -3.53313483   1.97714097  -2.29585266
H   -4.09837259   2.69863303  -1.74371531
H   -4.04119565   1.03564558  -2.27688610
H   -3.42829807   2.30550930  -3.30881001
C   -2.13927129   1.82117608  -1.65991290
N   -1.10147652   1.70505313  -1.18642685
C    3.07240547  -4.25574690   1.40070566
H    2.57981685  -5.03448343   0.85680672
H    3.02836435  -4.46944587   2.44822284
H    4.09502904  -4.19654590   1.09145597
C    2.37293642  -2.91258448   1.12095977
N    1.85214992  -1.91253901   0.91267624
