28
Energy:   -378.86012021
Na  -0.66159614  -0.27350853   0.87147357
O   -2.44561486   0.66689885   2.09713596
H   -2.84579539   1.40782154   1.64203051
H   -2.98228711   0.54836926   2.88082307
C    3.54119251   0.05733150   3.74730028
H    4.31667260  -0.67251557   3.64311746
H    3.23713031   0.11091256   4.77178764
H    3.90614541   1.01284516   3.43313135
C    2.33744164  -0.34457707   2.87491656
N    1.44119440  -0.64381627   2.22538723
C    0.92240826   4.15684723  -1.05578193
H    0.04609496   4.65186419  -1.41900832
H    1.42279553   3.67468516  -1.86943506
H    1.57811118   4.87461779  -0.60883876
C    0.51973794   3.10529088  -0.00521739
N    0.21993159   2.32235938   0.77697567
C   -0.93716030   0.25802464  -4.22530464
H   -1.98399996   0.24639767  -4.44641935
H   -0.47186772  -0.60343363  -4.65691969
H   -0.49627808   1.14353701  -4.63321368
C   -0.73470770   0.24013882  -2.69877490
N   -0.58397254   0.22682202  -1.56220412
C   -1.08681086  -4.97428605  -0.84364867
H   -0.05213303  -5.22963892  -0.93923571
H   -1.55727503  -5.02684463  -1.80323199
H   -1.56317397  -5.66031725  -0.17481499
C   -1.21325023  -3.54374911  -0.28761166
N   -1.30739008  -2.47864934   0.12638317
