28
Energy:   -384.35671027
Na  -0.49985317   0.05198953   0.13175047
O   -2.87747162   0.00735888  -0.02768157
H   -3.54209634  -0.32944997  -0.62856894
H   -3.33834946   0.66133035   0.49781323
C    3.44314066  -0.78599001  -3.01113825
H    4.44698895  -0.75597651  -2.64196624
H    3.37654760  -0.21031615  -3.91061813
H    3.16837123  -1.79974921  -3.21532724
C    2.48965461  -0.19867057  -1.95400995
N    1.77974092   0.23861545  -1.16692988
C    0.18765670  -4.69295875  -1.65060703
H    0.63605434  -4.65276220  -2.62128925
H   -0.71478465  -5.26588829  -1.69804607
H    0.86633858  -5.15280240  -0.96297791
C   -0.13565494  -3.26438785  -1.17494458
N   -0.37637514  -2.20075188  -0.82079226
C   -0.90624156   0.17703312   5.25923526
H   -0.83636102  -0.81597350   5.65160594
H   -1.81018887   0.63401676   5.60411827
H   -0.06689643   0.75162068   5.59127137
C   -0.91383845   0.12152883   3.72025457
N   -0.91949468   0.08020337   2.57441350
C   -0.00091505   5.06592415  -0.70586860
H    0.87159180   5.43216583  -0.20636986
H   -0.85417021   5.63122503  -0.39395572
H    0.12553925   5.16537146  -1.76370537
C   -0.21062316   3.58206679  -0.35119997
N   -0.36676038   2.47726754  -0.08713305
