61
Energy:  -1087.00035282
O   -2.71683090  -0.84979271   1.84331311
H   -2.92667935   0.03290320   1.53828295
H   -3.21523321  -1.42806536   1.26588110
O   -2.53681363   1.52279267   0.45109531
H   -2.92445257   1.70664976  -0.40457079
H   -2.23112372   2.37418457   0.76401280
O   -0.98961824   1.55143845  -3.41849622
H   -0.35817326   1.75072076  -2.72726858
H   -0.73051698   0.68727808  -3.73837938
O   -3.46544414  -2.75894739  -0.03326557
H   -4.01573002  -3.54167277  -0.06080260
H   -2.58150620  -3.09232854   0.12082069
O    3.26454648  -2.12947217   1.39266004
H    3.89409006  -2.38920950   2.06529906
H    2.51103467  -1.80108736   1.88318550
O   -0.79859640  -3.07559830   0.57423537
H    0.04528390  -3.44861828   0.31937466
H   -0.80625897  -3.13002100   1.52985627
O    1.76576479  -3.69789937  -0.29227244
H    2.37702797  -3.24057192   0.28517086
H    2.19921459  -4.52769970  -0.49173306
O   -1.23462744   3.70563317   1.51816410
H   -1.56319832   4.49002860   1.95747817
H   -0.49326240   4.01487040   0.99760473
O    2.76061303   2.81897372   1.83359126
H    3.14380145   2.04210687   1.42631201
H    3.41231433   3.09921056   2.47623002
O    1.10004240   4.17446799   0.11606987
H    1.76478755   3.81857169   0.70571684
H    1.50910638   4.95094038  -0.26601538
O   -2.32416478  -0.95930183  -1.75097116
H   -2.87181971  -0.18787940  -1.89661923
H   -2.89484849  -1.57554316  -1.29184310
O    0.67753001   1.81885333  -1.25594459
H    0.80879677   2.67792444  -0.85469938
H    1.54741820   1.56099915  -1.56096526
O   -3.38473666   1.55897487  -2.17652910
H   -4.07416705   1.98400044  -2.68669658
H   -2.59080750   1.68161995  -2.69697747
O    1.25508530  -1.38241796  -1.71107189
H    0.71971766  -1.48663424  -2.49767999
H    1.43435569  -2.27730008  -1.42248920
O   -0.53870351  -1.20827412  -3.77926043
H   -1.26929975  -1.22996963  -3.16120681
H   -0.86535179  -1.66717614  -4.55317366
O    0.36086852   1.53575607   2.24461564
H    1.20775790   1.97966918   2.20044131
H   -0.28315356   2.24249627   2.20005442
O    3.04073059   0.63872597  -2.02920609
H    2.51803992  -0.16314647  -2.03439275
H    3.55397135   0.59586923  -2.83603883
O    1.00079666  -1.11740258   2.47612995
H    0.32725716  -1.60127675   2.95408619
H    0.83790566  -0.19987366   2.69485137
O    3.58450581   0.53384808   0.65927891
H    3.60031744  -0.40160484   0.86154032
H    3.55531916   0.57222027  -0.29670621
O   -1.16730498  -2.55697835   3.30646223
H   -1.82375257  -1.93730646   2.98816181
H   -1.53092337  -2.89184447   4.12614399
K   -0.43064081  -0.26416503   0.18759080
