61
Energy:  -1092.46325309
O   -2.05373239  -0.81246044   1.87017929
H   -2.87066329  -0.88204632   1.37620200
H   -2.18460394  -0.05870226   2.44546452
O   -1.28780161   2.71944926   0.86109649
H   -1.75017577   2.96459235   0.05963105
H   -0.51505722   3.28417437   0.87464314
O   -2.39110054   0.48085886  -1.49697712
H   -2.40745186   1.40522093  -1.74500786
H   -2.20787402   0.01644783  -2.31366695
O   -2.70660470  -2.82135189  -1.60149782
H   -3.33924587  -2.39562330  -1.02292010
H   -1.91215213  -2.89839038  -1.07315889
O    3.56541024  -2.08345452   0.53081559
H    4.39302282  -2.38347452   0.90668427
H    2.94892594  -2.10128338   1.26284092
O   -0.38810053  -2.61823807  -0.17640908
H    0.40835991  -3.01070077  -0.53397817
H   -0.46320427  -2.98714516   0.70364707
O    1.99460238  -3.18216807  -1.43004575
H    2.63930840  -2.88371446  -0.78855418
H    2.36644049  -3.98896538  -1.78648139
O   -1.87808596   1.57717739   3.26138931
H   -2.38777498   2.11390087   3.86832988
H   -1.81091030   2.10942216   2.46865053
O    2.76933758   2.40686712   2.03826273
H    2.90513423   1.74168310   1.36348770
H    3.61429775   2.47350918   2.48304695
O    1.12817161   4.06308904   0.62531326
H    1.76190157   3.59792220   1.17142496
H    1.34794452   4.98794816   0.73741735
O   -4.09188671  -1.00257584   0.02988736
H   -3.63264490  -0.39391150  -0.54878054
H   -5.01864022  -0.79606898  -0.09141684
O    0.61746850   2.46737896  -1.57547063
H    0.94823503   3.08794342  -0.92606697
H    1.39833728   2.16893330  -2.04173878
O   -2.01034752   3.16491762  -1.81695711
H   -2.22118447   3.87803131  -2.41965811
H   -1.06891332   3.02980024  -1.92501635
O    0.88187948  -0.84894430  -2.45625952
H    0.07428248  -1.03933050  -2.93351421
H    1.24378081  -1.70932308  -2.24410952
O   -1.64618869  -1.25094853  -3.50821680
H   -2.05127030  -1.90403444  -2.93758598
H   -1.95955873  -1.47128941  -4.38541744
O    0.69470049   0.67029470   2.64357776
H    1.34647883   1.36987998   2.68826876
H   -0.07180338   1.02740599   3.09210334
O    2.76523171   1.10171704  -2.62264068
H    3.30585991   1.10993404  -3.41250490
H    2.15562996   0.37599636  -2.75660723
O    1.67023120  -1.87958992   2.42354354
H    0.91137251  -2.43698150   2.59582227
H    1.38413796  -1.00086409   2.67298976
O    2.72990479   0.50254880   0.07276000
H    3.13013725  -0.35722769   0.20249127
H    2.92518700   0.72321756  -0.83795511
O   -0.77521245  -3.15296834   2.49095223
H   -1.32244590  -2.37028358   2.42636149
H   -1.27862101  -3.75302969   3.04116859
K   -0.10988096   0.14324147   0.03495384
