61
Energy:  -1087.26148377
O   -2.78222565  -0.10623922   2.53776828
H   -2.95895528  -0.13890360   1.59759195
H   -2.57460237   0.81194122   2.71117274
O   -1.21165421   2.50718944   0.13664138
H   -1.99308142   2.53856392  -0.41528163
H   -1.54430113   2.60168426   1.02919312
O   -1.36836410   0.57251599  -2.95337942
H   -0.53468941   1.02617576  -3.07752120
H   -1.24670580  -0.27468927  -3.38195187
O   -2.71487818  -2.67380231  -1.57703126
H   -2.05334781  -2.80674560  -0.89810896
H   -3.36218878  -3.36105774  -1.41923137
O    2.96922109  -1.81317468   1.51815591
H    3.58327505  -1.93437138   2.24236647
H    2.20668978  -1.39454546   1.91756474
O   -0.71059233  -2.62184127   0.26022096
H    0.10511841  -3.11665497   0.18271457
H   -0.91114725  -2.63480475   1.19608501
O    1.81617492  -3.60633847  -0.21446516
H    2.32786766  -3.08233575   0.40183310
H    2.24771504  -4.46072942  -0.21905469
O   -1.85161542   2.49468095   2.80388778
H   -2.23886501   3.18085558   3.34742617
H   -0.95536902   2.40838640   3.12873773
O    2.59528202   2.78554309   1.56106399
H    2.75460749   2.00126004   1.03594748
H    3.43944909   3.23632072   1.58139435
O    1.16227664   3.64330108  -0.64660073
H    0.26265807   3.46916514  -0.36984278
H    1.68600781   3.51328610   0.14398995
O   -2.82858427  -0.26094410  -0.19232621
H   -3.18477734   0.47697310  -0.68713582
H   -3.00596649  -1.02538631  -0.74040970
O    1.06905743   1.67164301  -2.50800771
H    1.20519618   2.47186445  -2.00071712
H    1.95188922   1.34831231  -2.68772170
O   -3.27258023   2.03053995  -1.65971412
H   -3.90069788   2.52088136  -2.19005869
H   -2.69056334   1.61761476  -2.29766472
O    1.31858686  -1.67657552  -2.14424665
H    0.61691357  -1.94634041  -2.73679483
H    1.51010688  -2.45899004  -1.62715919
O   -0.98148724  -2.09125055  -3.62262972
H   -1.66096613  -2.37383898  -3.01051529
H   -1.21298196  -2.51356576  -4.44984910
O    0.78259016   2.01465405   3.47607944
H    1.41217701   2.37767386   2.85312771
H    1.14969764   2.22047324   4.33579009
O    3.35633495   0.10844005  -2.60031973
H    2.73453289  -0.61926131  -2.60701224
H    3.98178786  -0.10394897  -3.29309055
O    0.72202573  -0.46119131   2.24575746
H    0.06189920  -1.02938828   2.64276756
H    0.70537561   0.33427150   2.77791678
O    2.76373997   0.51957229   0.05321309
H    3.02479857  -0.28903228   0.49393852
H    3.13152226   0.44256365  -0.82714917
O   -1.23573962  -2.24827961   2.95265405
H   -1.88499138  -1.54740535   2.89366864
H   -1.52666378  -2.78338720   3.69106779
K   -0.04087910   0.08813657  -0.43056256
