13
Energy:    -74.72661422
C    0.91463841   0.65548555   1.66371321
H    1.11170309   1.51886716   1.06318187
H    0.21252101   0.90731346   2.43085918
H    0.50868662  -0.12102745   1.04960425
C    2.22580623   0.16801485   2.30777163
N    3.20203028  -0.19492924   2.78730241
C   -1.09951003  -0.68415600  -1.51764389
H   -0.50071332   0.18880299  -1.36180656
H   -0.82338558  -1.43716873  -0.80938812
H   -2.13236427  -0.43570274  -1.38965098
C   -0.87220403  -1.21437689  -2.94550866
N   -0.70296438  -1.60915044  -4.00861888
Cl  -2.04424404   2.25802746   0.73018452
