13
Energy:    -74.99208720
C   -2.28783819   2.19784450  -1.25493366
H   -1.43827775   1.59527146  -1.00987657
H   -3.17219380   1.74661101  -0.85593167
H   -2.16534442   3.17451037  -0.83538850
C   -2.41405885   2.30886957  -2.78573142
N   -2.50803587   2.39153279  -3.92547993
C    2.21334844  -1.79741140   1.57769844
H    2.87884526  -1.06029964   1.97604555
H    1.36156952  -1.89231946   2.21829520
H    1.89371307  -1.49884602   0.60117858
C    2.94149272  -3.15141803   1.48785436
N    3.48362924  -4.15953751   1.42096136
Cl  -0.78684937   0.14519235   1.38530824
