13
Energy:    -75.34743581
C   -0.16048334  -1.76155545   1.48066911
H    0.25004466  -2.17684100   2.37727652
H   -0.53383953  -0.77903307   1.68105378
H    0.60128667  -1.70765327   0.73120257
C   -1.31036438  -2.65553290   0.98049122
N   -2.16650308  -3.32113975   0.60808605
C    0.46322307   1.80824775  -1.20413123
H    1.36510432   1.23268737  -1.18861847
H   -0.26785963   1.34264423  -0.57673140
H    0.66424579   2.79598346  -0.84515057
C   -0.07192256   1.88514451  -2.64611113
N   -0.47036281   1.94239765  -3.71973071
Cl   1.63743082   1.39465046   2.32169428
