13
Energy:    -77.34887430
C   -0.46505390   2.34988809  -2.40570897
H   -0.03443943   3.20995236  -1.93692244
H    0.30284414   1.63358630  -2.61099765
H   -1.19318818   1.91510111  -1.75326751
C   -1.14204814   2.76874654  -3.72397920
N   -1.64610112   3.08060570  -4.70549131
C    0.64000116  -2.18178332   2.45818259
H    0.99430360  -2.29347161   1.45474067
H    1.09089403  -1.31868669   2.90164501
H   -0.42347770  -2.06412545   2.44991104
C    1.01173708  -3.43259123   3.27604076
N    1.28851137  -4.36387456   3.88497335
Cl  -0.42398292   0.69665277   0.71087365
