25
Energy:   -465.69505826
O   -0.15741444   0.20857413  -3.05469862
H   -0.93528735   0.57339102  -2.63273390
H   -0.24553817   0.45573163  -3.97523066
O   -1.28635694  -1.46521736  -0.32935362
H   -1.82941296  -2.22846142  -0.52628128
H   -1.75205724  -0.73004923  -0.72795480
O   -0.94559960  -0.36337644   2.18564496
H   -1.42522507  -0.76179434   2.91190554
H   -1.18007787  -0.89330151   1.42378460
O   -0.98498244   2.05561666   0.86329392
H   -1.25322185   2.80533150   1.39452563
H   -1.02413605   1.31042136   1.46277936
O    1.56261992   1.58666963  -0.10618725
H    0.71354449   1.89763750   0.20782189
H    2.05918574   2.38506171  -0.28569858
O    3.04728508  -2.65129366  -0.04653643
H    2.89281045  -2.26895313   0.81728366
H    3.71728952  -3.31843223   0.10263474
O    1.73977230  -0.71892013   1.56145230
H    1.98758169   0.19494261   1.42117670
H    0.89622988  -0.67247153   2.01146405
O   -2.22250385   0.92175154  -1.33565725
H   -1.88562032   1.46304469  -0.62169433
H   -3.08069991   1.29547814  -1.53580670
K    1.33187663  -0.95728990  -1.17633939
