25
Energy:   -464.09851984
O    0.35321782   2.09595653  -1.33374588
H   -0.47509799   1.73450738  -1.64914925
H    0.72250254   2.54748051  -2.09268378
O    0.05113668  -1.42543028  -1.65693373
H    0.46099023  -1.74959162  -2.45891337
H   -0.61800453  -0.81194209  -1.96043682
O   -1.34951690  -2.87504492   0.26903650
H   -1.81766350  -3.67566726   0.03223599
H   -0.88796448  -2.62158249  -0.53031199
O   -1.77040471  -0.19410660   0.77746223
H   -2.32857488   0.02497387   1.52357324
H   -1.80098314  -1.14949862   0.72723379
O    3.36023162   1.30149167   1.02993457
H    2.90960711   2.10542373   1.28851268
H    4.27932349   1.46218118   1.24366541
O    0.83814862  -2.22991729   1.84553505
H    1.17973283  -2.83323956   2.50550045
H    0.08811646  -2.68829643   1.46662587
O    0.94771780   2.78340091   1.30161624
H    0.66740832   2.90976501   0.39514475
H    0.62242496   3.55619753   1.76335406
O   -1.86633723   0.55993633  -1.87976644
H   -2.08377417   0.38215169  -0.96470051
H   -2.71181444   0.71098784  -2.30235794
K    1.03945537   0.08005457   0.52648110
