25
Energy:   -463.29235512
O   -0.40913235  -3.92219545   0.47268254
H   -1.08490404  -4.38762630   0.96557055
H    0.17053340  -4.61213063   0.14986849
O   -1.05531407  -0.76993695  -2.48383513
H   -1.01470137   0.16279853  -2.69499142
H   -1.43421483  -1.17618793  -3.26333896
O    0.69568293   1.29980306  -0.57543904
H    0.20732602   1.68473948  -1.30315006
H    0.41334091   1.79659094   0.19249105
O   -0.11666808   1.97268622   2.00338938
H    0.41277687   1.23708337   2.31129902
H    0.04275342   2.66722228   2.64247959
O   -2.11373057   0.21071013   1.26765211
H   -3.00327175   0.36421458   1.58606180
H   -1.60469477   0.94302864   1.61524958
O   -0.80857555   1.99707173  -2.82021204
H   -0.31716686   2.36343089  -3.55541971
H   -1.60139982   2.53119797  -2.77152230
O    2.53531191  -0.68027920  -0.08112163
H    2.18943697   0.14946104  -0.40995823
H    3.40267246  -0.75339112  -0.47933284
O    1.23030320  -0.42811731   2.32860767
H    1.94376257  -0.50463409   1.69508359
H    1.56876206  -0.84232886   3.12239998
K   -0.25480340  -1.27277056   0.02761142
