25
Energy:   -462.89756119
O    1.09536479   0.85449153   2.97231443
H    0.91083053   1.54572384   3.60822075
H    2.02387277   0.65699530   3.09519661
O   -2.07986276  -0.33464715  -1.74131689
H   -2.34349394  -0.11592575  -0.84750964
H   -2.90393425  -0.41651087  -2.22135477
O    0.68142151  -2.07097279   0.16729748
H    0.18613328  -1.84337568   0.95413989
H    0.92659141  -2.98742042   0.29476246
O   -0.68680486  -1.20495575   2.42675514
H   -0.06732756  -0.54328557   2.73444378
H   -0.87047473  -1.73942522   3.19930909
O    1.86359260  -1.23453210  -4.03080009
H    2.45572970  -0.70012293  -4.55996202
H    1.82553540  -2.07472958  -4.48780304
O   -2.37379920   0.38162776   0.90967346
H   -1.94979363  -0.25267787   1.48769379
H   -3.15364511   0.66004379   1.38983668
O    0.16219249   1.38307502   0.37951281
H   -0.77120958   1.24449629   0.54010039
H    0.57022175   1.29001763   1.24037534
O    1.37286164   2.25306776  -1.98657875
H    1.00539318   2.36494496  -1.10983348
H    1.58173543   3.14173976  -2.27444270
K    0.58631295  -0.30734928  -1.85767748
