
                                 *****************
                                 * O   R   C   A *
                                 *****************

           --- An Ab Initio, DFT and Semiempirical electronic structure package ---

                  #######################################################
                  #                        -***-                        #
                  #  Department of molecular theory and spectroscopy    #
                  #              Directorship: Frank Neese              #
                  # Max Planck Institute for Chemical Energy Conversion #
                  #                  D-45470 Muelheim/Ruhr              #
                  #                       Germany                       #
                  #                                                     #
                  #                  All rights reserved                #
                  #                        -***-                        #
                  #######################################################


                         Program Version 3.0.3 - RELEASE   -


 With contributions from (in alphabetic order):
   Ute Becker             : Parallelization
   Dmytro Bykov           : SCF Hessian
   Dmitry Ganyushin       : Spin-Orbit,Spin-Spin,Magnetic field MRCI
   Andreas Hansen         : Spin unrestricted coupled pair/coupled cluster methods
   Dimitrios Liakos       : Extrapolation schemes; parallel MDCI
   Robert Izsak           : Overlap fitted RIJCOSX, COSX-SCS-MP3
   Christian Kollmar      : KDIIS, OOCD, Brueckner-CCSD(T), CCSD density
   Simone Kossmann        : Meta GGA functionals, TD-DFT gradient, OOMP2, MP2 Hessian
   Taras Petrenko         : DFT Hessian,TD-DFT gradient, ASA and ECA modules, normal mode analysis, Resonance Raman, ABS, FL, XAS/XES, NRVS
   Christoph Reimann      : Effective Core Potentials
   Michael Roemelt        : Restricted open shell CIS
   Christoph Riplinger    : Improved optimizer, TS searches, QM/MM, DLPNO-CCSD
   Barbara Sandhoefer     : DKH picture change effects
   Igor Schapiro          : Molecular dynamics
   Kantharuban Sivalingam : CASSCF convergence, NEVPT2
   Boris Wezisla          : Elementary symmetry handling
   Frank Wennmohs         : Technical directorship


 We gratefully acknowledge several colleagues who have allowed us to
 interface, adapt or use parts of their codes:
   Stefan Grimme, W. Hujo, H. Kruse, T. Risthaus : VdW corrections, initial TS optimization,
                                                   DFT functionals, gCP
   Ed Valeev                                     : LibInt (2-el integral package), F12 methods
   Garnet Chan, S. Sharma, R. Olivares           : DMRG
   Ulf Ekstrom                                   : XCFun DFT Library
   Mihaly Kallay                                 : mrcc  (arbitrary order and MRCC methods)
   Andreas Klamt, Michael Diedenhofen            : otool_cosmo (COSMO solvation model)
   Frank Weinhold                                : gennbo (NPA and NBO analysis)
   Christopher J. Cramer and Donald G. Truhlar   : smd solvation model


 Your calculation uses the libint2 library for the computation of 2-el integrals
 For citations please refer to: http://libint.valeyev.net

 This ORCA versions uses:
   CBLAS   interface :  Fast vector & matrix operations
   LAPACKE interface :  Fast linear algebra routines
   SCALAPACK package :  Parallel linear algebra routines


Your calculation utilizes the basis: Ahlrichs-TZV
Cite in your paper:
H - Kr: A. Schaefer, H. Horn and R. Ahlrichs, J. Chem. Phys. 97, 2571 (1992).

The def2-TZV basis will be loaded
Cite in your paper:
 	F. Weigend, R. Ahlrichs, Phys. Chem. Chem. Phys. 2005, 7, 3297.

Your calculation utilizes the atom-pairwise dispersion correction
with the Becke-Johnson damping scheme (D3BJ)
Cite in your paper:
S.Grimme, S.Ehrlich, L.Goerigk, J Comput Chem, (2011), 32, 1456–1465 
S.Grimme, J.Antony, S.Ehrlich and H.Krieg, J.Chem.Phys., 132, (2010), 154104 
   

================================================================================
                                        WARNINGS
                       Please study these warnings very carefully!
================================================================================
Now building the actual basis set


INFO   : the flag for use of LIBINT has been found!

================================================================================
                                       INPUT FILE
================================================================================
NAME = 3_B3LYP_SMD_onB3LYP_SMD_12_waters.inp
|  1> ! B3LYP Def2-TZVP def2-TZVP/J RIJCOSX TightSCF Grid4 D3BJ COSMO
|  2> 
|  3> %pal nprocs 12 end
|  4> 
|  5> %scf
|  6>         maxiter 400
|  7> end
|  8> 
|  9> %cosmo
| 10>         SMD true
| 11>         solvent "WATER"
| 12> end
| 13> 
| 14> * xyz  0  1
| 15> O  0.565907	0.022341	-1.840124
| 16> H  -0.268364	0.083197	-2.366845
| 17> H  0.449142	0.743390	-1.166087
| 18> O  -2.831873	-1.548204	-0.847148
| 19> H  -1.969453	-1.925845	-0.573188
| 20> H  -3.045619	-0.910826	-0.126210
| 21> O  2.350005	-2.214355	0.741685
| 22> H  2.745728	-1.638296	0.027135
| 23> H  2.940187	-2.978421	0.827675
| 24> O  -2.001309	0.312896	-2.552987
| 25> H  -2.378432	-0.432200	-2.001837
| 26> H  -2.440752	0.252492	-3.415139
| 27> O  -3.095696	0.429187	1.075380
| 28> H  -2.286738	0.272352	1.615154
| 29> H  -3.834026	0.452873	1.703391
| 30> O  1.995337	-0.227845	2.637162
| 31> H  2.185746	-1.031762	2.100069
| 32> H  2.360930	0.494201	2.077110
| 33> O  -0.185426	-1.923318	-0.138372
| 34> H  0.667409	-2.300072	0.186799
| 35> H  0.108690	-1.266664	-0.824487
| 36> O  -0.581868	-0.135625	1.878803
| 37> H  -0.477966	-0.848577	1.194088
| 38> H  0.297376	-0.151770	2.347756
| 39> O  2.794289	1.576291	0.709334
| 40> H  3.350057	2.345940	0.905100
| 41> H  1.906074	1.936856	0.478032
| 42> O  3.167727	-0.464752	-1.113056
| 43> H  3.191797	0.321996	-0.520722
| 44> H  2.329491	-0.341361	-1.606753
| 45> O  0.160197	1.824224	0.155787
| 46> H  -0.117104	1.163106	0.842397
| 47> H  -0.699881	2.209316	-0.166144
| 48> O  -2.338293	2.364339	-0.719646
| 49> H  -2.741242	1.787693	-0.031510
| 50> H  -2.275916	1.754593	-1.491847
| 51> **                         ****END OF INPUT****
================================================================================

                       ****************************
                       * Single Point Calculation *
                       ****************************

---------------------------------
CARTESIAN COORDINATES (ANGSTROEM)
---------------------------------
  O      0.565907    0.022341   -1.840124
  H     -0.268364    0.083197   -2.366845
  H      0.449142    0.743390   -1.166087
  O     -2.831873   -1.548204   -0.847148
  H     -1.969453   -1.925845   -0.573188
  H     -3.045619   -0.910826   -0.126210
  O      2.350005   -2.214355    0.741685
  H      2.745728   -1.638296    0.027135
  H      2.940187   -2.978421    0.827675
  O     -2.001309    0.312896   -2.552987
  H     -2.378432   -0.432200   -2.001837
  H     -2.440752    0.252492   -3.415139
  O     -3.095696    0.429187    1.075380
  H     -2.286738    0.272352    1.615154
  H     -3.834026    0.452873    1.703391
  O      1.995337   -0.227845    2.637162
  H      2.185746   -1.031762    2.100069
  H      2.360930    0.494201    2.077110
  O     -0.185426   -1.923318   -0.138372
  H      0.667409   -2.300072    0.186799
  H      0.108690   -1.266664   -0.824487
  O     -0.581868   -0.135625    1.878803
  H     -0.477966   -0.848577    1.194088
  H      0.297376   -0.151770    2.347756
  O      2.794289    1.576291    0.709334
  H      3.350057    2.345940    0.905100
  H      1.906074    1.936856    0.478032
  O      3.167727   -0.464752   -1.113056
  H      3.191797    0.321996   -0.520722
  H      2.329491   -0.341361   -1.606753
  O      0.160197    1.824224    0.155787
  H     -0.117104    1.163106    0.842397
  H     -0.699881    2.209316   -0.166144
  O     -2.338293    2.364339   -0.719646
  H     -2.741242    1.787693   -0.031510
  H     -2.275916    1.754593   -1.491847

----------------------------
CARTESIAN COORDINATES (A.U.)
----------------------------
  NO LB      ZA    FRAG    MASS        X           Y           Z
   0 O     8.0000    0    15.999          1.069409247268974          0.042218371557935         -3.477330412455709
   1 H     1.0000    0     1.008         -0.507134464203643          0.157219545163846         -4.472688851440845
   2 H     1.0000    0     1.008          0.848755375241659          1.404803510695719         -2.203585078325831
   3 O     8.0000    0    15.999         -5.351464416045976         -2.925681559441417         -1.600877714899120
   4 H     1.0000    0     1.008         -3.721726803629611         -3.639319626381573         -1.083168343250055
   5 H     1.0000    0     1.008         -5.755385818267109         -1.721211695654958         -0.238502335362201
   6 O     8.0000    0    15.999          4.440865863345611         -4.184524513279193          1.401581527637384
   7 H     1.0000    0     1.008          5.188673958239331         -3.095930766298651          0.051277718643953
   8 H     1.0000    0     1.008          5.556148212515523         -5.628400001519868          1.564079077893272
   9 O     8.0000    0    15.999         -3.781925919351806          0.591287748399424         -4.824446253461215
  10 H     1.0000    0     1.008         -4.494585108154591         -0.816739635080765         -3.782923694750517
  11 H     1.0000    0     1.008         -4.612352840820562          0.477140731006045         -6.453677419273689
  12 O     8.0000    0    15.999         -5.850017633875483          0.811045890239260          2.032173689896235
  13 H     1.0000    0     1.008         -4.321308560030816          0.514670692025721          3.052198724107445
  14 H     1.0000    0     1.008         -7.245259130333561          0.855805943447319          3.218942488986255
  15 O     8.0000    0    15.999          3.770640474880028         -0.430564650983288          4.983513950784036
  16 H     1.0000    0     1.008          4.130461338313840         -1.949747615386858          3.968555272337869
  17 H     1.0000    0     1.008          4.461511121358701          0.933904545110017          3.925169050029170
  18 O     8.0000    0    15.999         -0.350404358108482         -3.634544288441154         -0.261485184602951
  19 H     1.0000    0     1.008          1.261220229314249         -4.346506168300522          0.352998952090356
  20 H     1.0000    0     1.008          0.205394333495901         -2.393648063697228         -1.558054630978331
  21 O     8.0000    0    15.999         -1.099571166092491         -0.256294106913070          3.550423129589650
  22 H     1.0000    0     1.008         -0.903224841325805         -1.603578133544494          2.256499299801760
  23 H     1.0000    0     1.008          0.561959198800966         -0.286803735345228          4.436615869270422
  24 O     8.0000    0    15.999          5.280440949028680          2.978758297364864          1.340446997478897
  25 H     1.0000    0     1.008          6.330690263025827          4.433184126611222          1.710391123812125
  26 H     1.0000    0     1.008          3.601957850987816          3.660127400842180          0.903349563250644
  27 O     8.0000    0    15.999          5.986136497027965         -0.878254000192170         -2.103371011717853
  28 H     1.0000    0     1.008          6.031622205071450          0.608484256218107         -0.984021971907742
  29 H     1.0000    0     1.008          4.402100021434350         -0.645078802801492         -3.036323134856373
  30 O     8.0000    0    15.999          0.302728457475783          3.447283766926362          0.294394765225190
  31 H     1.0000    0     1.008         -0.221294489186714          2.197951804720611          1.591899626036861
  32 H     1.0000    0     1.008         -1.322583416334939          4.175002183290363         -0.313966658794212
  33 O     8.0000    0    15.999         -4.418733390865126          4.467953197749239         -1.359933853371893
  34 H     1.0000    0     1.008         -5.180196646802560          3.378250181528084         -0.059545270479859
  35 H     1.0000    0     1.008         -4.300857943809519          3.315700246495291         -2.819182263712017

--------------------------------
INTERNAL COORDINATES (ANGSTROEM)
--------------------------------
 O      0   0   0   0.000000     0.000     0.000
 H      1   0   0   0.988507     0.000     0.000
 H      1   2   0   0.993917   102.565     0.000
 O      2   1   3   3.397429   111.648   277.849
 H      4   2   1   0.980528    69.284   334.457
 H      4   2   1   0.985743   100.386    75.209
 O      1   2   3   3.853771   141.575   108.406
 H      7   1   2   0.999511    50.938   148.489
 H      7   1   2   0.969281   143.018    87.526
 O      2   1   3   1.757984   153.691   320.498
 H     10   2   1   1.000578   102.469   299.759
 H     10   2   1   0.969569   122.194   181.782
 O      6   4   2   1.800545   167.244   349.722
 H     13   6   4   0.985072   102.964   297.415
 H     13   6   4   0.969582   118.139   181.161
 O      7   1   2   2.768546    89.021   248.683
 H     16   7   1   0.985397    10.484   174.195
 H     16   7   1   0.984209    95.119   309.506
 O      5   4   2   1.836253   156.950    34.358
 H     19   5   4   0.987425   156.432   172.507
 H     19   5   4   0.994209    97.176   321.008
 O     14  13   6   1.772720   155.220    42.226
 H     22  14  13   0.993947    99.390   321.933
 H     22  14  13   0.996618   157.246   155.618
 O     18  16   7   1.797089   164.670    38.534
 H     25  18  16   0.969310   117.558   179.688
 H     25  18  16   0.986120   100.456    65.482
 O      8   7   1   1.689770   168.971    35.456
 H     28   8   7   0.985095    98.919    53.633
 H     28   8   7   0.980613   102.335   308.236
 O      3   1   2   1.731774   171.899    95.052
 H     31   3   1   0.992676    99.144     5.027
 H     31   3   1   0.995826    97.972   259.488
 O     33  31   3   1.736315   162.282    57.424
 H     34  33  31   0.984083    96.382    47.357
 H     34  33  31   0.985888    97.745   304.079

---------------------------
INTERNAL COORDINATES (A.U.)
---------------------------
 O      0   0   0   0.000000     0.000     0.000
 H      1   0   0   1.868008     0.000     0.000
 H      1   2   0   1.878232   102.565     0.000
 O      2   1   3   6.420211   111.648   277.849
 H      4   2   1   1.852929    69.284   334.457
 H      4   2   1   1.862785   100.386    75.209
 O      1   2   3   7.282572   141.575   108.406
 H      7   1   2   1.888802    50.938   148.489
 H      7   1   2   1.831676   143.018    87.526
 O      2   1   3   3.322109   153.691   320.498
 H     10   2   1   1.890818   102.469   299.759
 H     10   2   1   1.832221   122.194   181.782
 O      6   4   2   3.402536   167.244   349.722
 H     13   6   4   1.861516   102.964   297.415
 H     13   6   4   1.832245   118.139   181.161
 O      7   1   2   5.231793    89.021   248.683
 H     16   7   1   1.862130    10.484   174.195
 H     16   7   1   1.859885    95.119   309.506
 O      5   4   2   3.470015   156.950    34.358
 H     19   5   4   1.865962   156.432   172.507
 H     19   5   4   1.878784    97.176   321.008
 O     14  13   6   3.349956   155.220    42.226
 H     22  14  13   1.878288    99.390   321.933
 H     22  14  13   1.883335   157.246   155.618
 O     18  16   7   3.396007   164.670    38.534
 H     25  18  16   1.831731   117.558   179.688
 H     25  18  16   1.863498   100.456    65.482
 O      8   7   1   3.193203   168.971    35.456
 H     28   8   7   1.861559    98.919    53.633
 H     28   8   7   1.853090   102.335   308.236
 O      3   1   2   3.272579   171.899    95.052
 H     31   3   1   1.875886    99.144     5.027
 H     31   3   1   1.881839    97.972   259.488
 O     33  31   3   3.281160   162.282    57.424
 H     34  33  31   1.859648    96.382    47.357
 H     34  33  31   1.863059    97.745   304.079

---------------------
BASIS SET INFORMATION
---------------------
There are 2 groups of distinct atoms

 Group   1 Type O   : 11s6p2d1f contracted to 5s3p2d1f pattern {62111/411/11/1}
 Group   2 Type H   : 5s1p contracted to 3s1p pattern {311/1}

Atom   0O    basis set group =>   1
Atom   1H    basis set group =>   2
Atom   2H    basis set group =>   2
Atom   3O    basis set group =>   1
Atom   4H    basis set group =>   2
Atom   5H    basis set group =>   2
Atom   6O    basis set group =>   1
Atom   7H    basis set group =>   2
Atom   8H    basis set group =>   2
Atom   9O    basis set group =>   1
Atom  10H    basis set group =>   2
Atom  11H    basis set group =>   2
Atom  12O    basis set group =>   1
Atom  13H    basis set group =>   2
Atom  14H    basis set group =>   2
Atom  15O    basis set group =>   1
Atom  16H    basis set group =>   2
Atom  17H    basis set group =>   2
Atom  18O    basis set group =>   1
Atom  19H    basis set group =>   2
Atom  20H    basis set group =>   2
Atom  21O    basis set group =>   1
Atom  22H    basis set group =>   2
Atom  23H    basis set group =>   2
Atom  24O    basis set group =>   1
Atom  25H    basis set group =>   2
Atom  26H    basis set group =>   2
Atom  27O    basis set group =>   1
Atom  28H    basis set group =>   2
Atom  29H    basis set group =>   2
Atom  30O    basis set group =>   1
Atom  31H    basis set group =>   2
Atom  32H    basis set group =>   2
Atom  33O    basis set group =>   1
Atom  34H    basis set group =>   2
Atom  35H    basis set group =>   2
-------------------------------
AUXILIARY BASIS SET INFORMATION
-------------------------------
There are 2 groups of distinct atoms

 Group   1 Type O   : 12s5p4d2f1g contracted to 6s4p3d1f1g pattern {711111/2111/211/2/1}
 Group   2 Type H   : 5s2p1d contracted to 3s1p1d pattern {311/2/1}

Atom   0O    basis set group =>   1
Atom   1H    basis set group =>   2
Atom   2H    basis set group =>   2
Atom   3O    basis set group =>   1
Atom   4H    basis set group =>   2
Atom   5H    basis set group =>   2
Atom   6O    basis set group =>   1
Atom   7H    basis set group =>   2
Atom   8H    basis set group =>   2
Atom   9O    basis set group =>   1
Atom  10H    basis set group =>   2
Atom  11H    basis set group =>   2
Atom  12O    basis set group =>   1
Atom  13H    basis set group =>   2
Atom  14H    basis set group =>   2
Atom  15O    basis set group =>   1
Atom  16H    basis set group =>   2
Atom  17H    basis set group =>   2
Atom  18O    basis set group =>   1
Atom  19H    basis set group =>   2
Atom  20H    basis set group =>   2
Atom  21O    basis set group =>   1
Atom  22H    basis set group =>   2
Atom  23H    basis set group =>   2
Atom  24O    basis set group =>   1
Atom  25H    basis set group =>   2
Atom  26H    basis set group =>   2
Atom  27O    basis set group =>   1
Atom  28H    basis set group =>   2
Atom  29H    basis set group =>   2
Atom  30O    basis set group =>   1
Atom  31H    basis set group =>   2
Atom  32H    basis set group =>   2
Atom  33O    basis set group =>   1
Atom  34H    basis set group =>   2
Atom  35H    basis set group =>   2
smp-n33.crc.pitt.edu.40677hfi_wait_for_device: The /dev/hfi1_0 device failed to appear after 15.0 seconds: Connection timed out
smp-n33.crc.pitt.edu.40679hfi_wait_for_device: The /dev/hfi1_0 device failed to appear after 15.0 seconds: Connection timed out
smp-n33.crc.pitt.edu.40678hfi_wait_for_device: The /dev/hfi1_0 device failed to appear after 15.0 seconds: Connection timed out
smp-n33.crc.pitt.edu.40680hfi_wait_for_device: The /dev/hfi1_0 device failed to appear after 15.0 seconds: Connection timed out
smp-n33.crc.pitt.edu.40683hfi_wait_for_device: The /dev/hfi1_0 device failed to appear after 15.0 seconds: Connection timed out
smp-n33.crc.pitt.edu.40681hfi_wait_for_device: The /dev/hfi1_0 device failed to appear after 15.0 seconds: Connection timed out
smp-n33.crc.pitt.edu.40682hfi_wait_for_device: The /dev/hfi1_0 device failed to appear after 15.0 seconds: Connection timed out
smp-n33.crc.pitt.edu.40684hfi_wait_for_device: The /dev/hfi1_0 device failed to appear after 15.0 seconds: Connection timed out
smp-n33.crc.pitt.edu.40685hfi_wait_for_device: The /dev/hfi1_0 device failed to appear after 15.0 seconds: Connection timed out
smp-n33.crc.pitt.edu.40687hfi_wait_for_device: The /dev/hfi1_0 device failed to appear after 15.0 seconds: Connection timed out
smp-n33.crc.pitt.edu.40686hfi_wait_for_device: The /dev/hfi1_0 device failed to appear after 15.0 seconds: Connection timed out
smp-n33.crc.pitt.edu.40688hfi_wait_for_device: The /dev/hfi1_0 device failed to appear after 15.0 seconds: Connection timed out


           ************************************************************
           *        Program running with 12 parallel MPI-processes    *
           *              working on a common directory               *
           ************************************************************
------------------------------------------------------------------------------
                           ORCA GTO INTEGRAL CALCULATION
                           -- RI-GTO INTEGRALS CHOSEN --
------------------------------------------------------------------------------

                         BASIS SET STATISTICS AND STARTUP INFO

Gaussian basis set:
 # of primitive gaussian shells          ...  384
 # of primitive gaussian functions       ...  744
 # of contracted shells                  ...  228
 # of contracted basis functions         ...  516
 Highest angular momentum                ...    3
 Maximum contraction depth               ...    6
Auxiliary gaussian basis set:
 # of primitive gaussian shells          ...  480
 # of primitive gaussian functions       ... 1224
 # of contracted shells                  ...  300
 # of contracted aux-basis functions     ...  852
 Highest angular momentum                ...    4
 Maximum contraction depth               ...    7
Ratio of auxiliary to basis functions    ...  1.65
Integral package used                  ... LIBINT
 One Electron integrals                  ... done
 Ordering auxiliary basis shells         ... done
 Integral threshhold             Thresh  ...  2.500e-11
 Primitive cut-off               TCut    ...  2.500e-12
 Pre-screening matrix                    ... done
 Shell pair data                         ... 
 Ordering of the shell pairs             ... done (   0.003 sec) 19646 of 26106 pairs
 Determination of significant pairs      ... done (   0.000 sec)
 Creation of shell pair data             ... done (   0.002 sec)
 Storage of shell pair data              ... done (   0.003 sec)
 Shell pair data done in (   0.008 sec)
 Computing two index integrals           ... done
 Cholesky decomposition of the V-matrix  ... done


Timings:
 Total evaluation time                   ...   0.370 sec (  0.006 min)
 One electron matrix time                ...   0.109 sec (  0.002 min) = 29.4%
 Schwartz matrix evaluation time         ...   0.202 sec (  0.003 min) = 54.6%
 Two index repulsion integral time       ...   0.020 sec (  0.000 min) =  5.4%
 Cholesky decomposition of V             ...   0.017 sec (  0.000 min) =  4.5%
 Three index repulsion integral time     ...   0.000 sec (  0.000 min) =  0.0%

           ************************************************************
           *              Shut down parallel processing               *
           ************************************************************
smp-n33.crc.pitt.edu.40703hfi_wait_for_device: The /dev/hfi1_0 device failed to appear after 15.0 seconds: Connection timed out
smp-n33.crc.pitt.edu.40704hfi_wait_for_device: The /dev/hfi1_0 device failed to appear after 15.0 seconds: Connection timed out
smp-n33.crc.pitt.edu.40705hfi_wait_for_device: The /dev/hfi1_0 device failed to appear after 15.0 seconds: Connection timed out
smp-n33.crc.pitt.edu.40706hfi_wait_for_device: The /dev/hfi1_0 device failed to appear after 15.0 seconds: Connection timed out
smp-n33.crc.pitt.edu.40707hfi_wait_for_device: The /dev/hfi1_0 device failed to appear after 15.0 seconds: Connection timed out
smp-n33.crc.pitt.edu.40708hfi_wait_for_device: The /dev/hfi1_0 device failed to appear after 15.0 seconds: Connection timed out
smp-n33.crc.pitt.edu.40709hfi_wait_for_device: The /dev/hfi1_0 device failed to appear after 15.0 seconds: Connection timed out
smp-n33.crc.pitt.edu.40711hfi_wait_for_device: The /dev/hfi1_0 device failed to appear after 15.0 seconds: Connection timed out
smp-n33.crc.pitt.edu.40710hfi_wait_for_device: The /dev/hfi1_0 device failed to appear after 15.0 seconds: Connection timed out
smp-n33.crc.pitt.edu.40713hfi_wait_for_device: The /dev/hfi1_0 device failed to appear after 15.0 seconds: Connection timed out
smp-n33.crc.pitt.edu.40712hfi_wait_for_device: The /dev/hfi1_0 device failed to appear after 15.0 seconds: Connection timed out
smp-n33.crc.pitt.edu.40714hfi_wait_for_device: The /dev/hfi1_0 device failed to appear after 15.0 seconds: Connection timed out


           ************************************************************
           *        Program running with 12 parallel MPI-processes    *
           *              working on a common directory               *
           ************************************************************
-------------------------------------------------------------------------------
                                 ORCA SCF
-------------------------------------------------------------------------------

------------
SCF SETTINGS
------------
Hamiltonian:
 Density Functional     Method          .... DFT(GTOs)
 Exchange Functional    Exchange        .... B88
   X-Alpha parameter    XAlpha          ....  0.666667
   Becke's b parameter  XBeta           ....  0.004200
 Correlation Functional Correlation     .... LYP
 LDA part of GGA corr.  LDAOpt          .... VWN-5
 Gradients option       PostSCFGGA      .... off
 Hybrid DFT is turned on
   Fraction HF Exchange ScalHFX         ....  0.200000
   Scaling of DF-GGA-X  ScalDFX         ....  0.720000
   Scaling of DF-GGA-C  ScalDFC         ....  0.810000
   Scaling of DF-LDA-C  ScalLDAC        ....  1.000000
   Perturbative correction              ....  0.000000
   NL short-range parameter             ....  4.800000
 RI-approximation to the Coulomb term is turned on
   Number of auxiliary basis functions  .... 852
   RIJ-COSX (HFX calculated with COS-X)).... on


General Settings:
 Integral files         IntName         .... 3_B3LYP_SMD_onB3LYP_SMD_12_waters
 Hartree-Fock type      HFTyp           .... RHF
 Total Charge           Charge          ....    0
 Multiplicity           Mult            ....    1
 Number of Electrons    NEL             ....  120
 Basis Dimension        Dim             ....  516
 Nuclear Repulsion      ENuc            ....   1038.8649466776 Eh

Convergence Acceleration:
 DIIS                   CNVDIIS         .... on
   Start iteration      DIISMaxIt       ....    12
   Startup error        DIISStart       ....  0.200000
   # of expansion vecs  DIISMaxEq       ....     5
   Bias factor          DIISBfac        ....   1.050
   Max. coefficient     DIISMaxC        ....  10.000
 Newton-Raphson         CNVNR           .... off
 SOSCF                  CNVSOSCF        .... on
   Start iteration      SOSCFMaxIt      ....   150
   Startup grad/error   SOSCFStart      ....  0.003300
 Level Shifting         CNVShift        .... on
   Level shift para.    LevelShift      ....    0.2500
   Turn off err/grad.   ShiftErr        ....    0.0010
 Zerner damping         CNVZerner       .... off
 Static damping         CNVDamp         .... on
   Fraction old density DampFac         ....    0.7000
   Max. Damping (<1)    DampMax         ....    0.9800
   Min. Damping (>=0)   DampMin         ....    0.0000
   Turn off err/grad.   DampErr         ....    0.1000
 Fernandez-Rico         CNVRico         .... off

SCF Procedure:
 Maximum # iterations   MaxIter         ....   400
 SCF integral mode      SCFMode         .... Direct
   Integral package                     .... LIBINT
 Reset frequeny         DirectResetFreq ....    20
 Integral Threshold     Thresh          ....  2.500e-11 Eh
 Primitive CutOff       TCut            ....  2.500e-12 Eh

Convergence Tolerance:
 Convergence Check Mode ConvCheckMode   .... Total+1el-Energy
 Energy Change          TolE            ....  1.000e-08 Eh
 1-El. energy change                    ....  1.000e-05 Eh
 Orbital Gradient       TolG            ....  1.000e-05
 Orbital Rotation angle TolX            ....  1.000e-05
 DIIS Error             TolErr          ....  5.000e-07


Diagonalization of the overlap matrix:
Smallest eigenvalue                        ... 2.201e-03
Time for diagonalization                   ...    0.048 sec
Threshold for overlap eigenvalues          ... 1.000e-08
Number of eigenvalues below threshold      ... 0
Time for construction of square roots      ...    0.025 sec
Total time needed                          ...    0.074 sec

-------------------
DFT GRID GENERATION
-------------------

General Integration Accuracy     IntAcc      ...  4.670
Radial Grid Type                 RadialGrid  ... Gauss-Chebyshev
Angular Grid (max. acc.)         AngularGrid ... Lebedev-302
Angular grid pruning method      GridPruning ... 3 (G Style)
Weight generation scheme         WeightScheme... Becke
Basis function cutoff            BFCut       ...    1.0000e-11
Integration weight cutoff        WCut        ...    1.0000e-14
Grids for H and He will be reduced by one unit

# of grid points (after initial pruning)     ... 156000 (   0.0 sec)
# of grid points (after weights+screening)   ... 137655 (   0.1 sec)
nearest neighbour list constructed           ...    0.0 sec
Grid point re-assignment to atoms done       ...    0.0 sec
Grid point division into batches done        ...    0.3 sec
Reduced shell lists constructed in    0.5 sec

Total number of grid points                  ...   137655
Total number of batches                      ...     2166
Average number of points per batch           ...       63
Average number of grid points per atom       ...     3824
Average number of shells per batch           ...   114.10 (50.05%)
Average number of basis functions per batch  ...   227.70 (44.13%)
Average number of large shells per batch     ...    77.29 (67.74%)
Average number of large basis fcns per batch ...   145.30 (63.81%)
Maximum spatial batch extension              ...  14.35, 15.73, 12.62 au
Average spatial batch extension              ...   0.15,  0.16,  0.16 au

Time for grid setup =    0.654 sec

------------------------------
INITIAL GUESS: MODEL POTENTIAL
------------------------------
Loading Hartree-Fock densities                     ... done
Calculating cut-offs                               ... done
Setting up the integral package                    ... done
Initializing the effective Hamiltonian             ... done
Starting the Coulomb interaction                   ... done (   0.1 sec)
Reading the grid                                   ... done
Mapping shells                                     ... done
Starting the XC term evaluation                    ... done (   0.3 sec)
  promolecular density results
     # of electrons  =    119.988671501
     EX              =   -105.521785748
     EC              =     -4.162447827
     EX+EC           =   -109.684233575
Transforming the Hamiltonian                       ... done (   0.0 sec)
Diagonalizing the Hamiltonian                      ... done (   0.1 sec)
Back transforming the eigenvectors                 ... done (   0.0 sec)
Now organizing SCF variables                       ... done
                      ------------------
                      INITIAL GUESS DONE (   1.2 sec)
                      ------------------
--------------------
COSX GRID GENERATION
--------------------

General Integration Accuracy     IntAcc      ...  3.340
Radial Grid Type                 RadialGrid  ... Gauss-Chebyshev
Angular Grid (max. acc.)         AngularGrid ... Lebedev-50
Angular grid pruning method      GridPruning ... 3 (G Style)
Weight generation scheme         WeightScheme... Becke
Basis function cutoff            BFCut       ...    1.0000e-11
Integration weight cutoff        WCut        ...    1.0000e-14
Grids for H and He will be reduced by one unit

# of grid points (after initial pruning)     ...  14640 (   0.0 sec)
# of grid points (after weights+screening)   ...  13143 (   0.0 sec)
nearest neighbour list constructed           ...    0.0 sec
Grid point re-assignment to atoms done       ...    0.0 sec
Grid point division into batches done        ...    0.0 sec
Reduced shell lists constructed in    0.0 sec

Total number of grid points                  ...    13143
Total number of batches                      ...      219
Average number of points per batch           ...       60
Average number of grid points per atom       ...      365
Average number of shells per batch           ...   127.50 (55.92%)
Average number of basis functions per batch  ...   264.30 (51.22%)
Average number of large shells per batch     ...    87.20 (68.39%)
Average number of large basis fcns per batch ...   167.90 (63.53%)
Maximum spatial batch extension              ...  10.30, 11.72, 13.61 au
Average spatial batch extension              ...   0.30,  0.38,  0.39 au

Overlap Fitting                  UseSFitting ... on
Constructing numerical overlap ... done (      0.0 sec)
Inverting numerical overlap    ... done (      0.0 sec)
Obtaining analytic overlap     ... done (      0.0 sec)
Final contraction and storage  ... done (      0.0 sec)


General Integration Accuracy     IntAcc      ...  3.670
Radial Grid Type                 RadialGrid  ... Gauss-Chebyshev
Angular Grid (max. acc.)         AngularGrid ... Lebedev-50
Angular grid pruning method      GridPruning ... 3 (G Style)
Weight generation scheme         WeightScheme... Becke
Basis function cutoff            BFCut       ...    1.0000e-11
Integration weight cutoff        WCut        ...    1.0000e-14
Grids for H and He will be reduced by one unit

# of grid points (after initial pruning)     ...  19224 (   0.0 sec)
# of grid points (after weights+screening)   ...  17236 (   0.0 sec)
nearest neighbour list constructed           ...    0.0 sec
Grid point re-assignment to atoms done       ...    0.0 sec
Grid point division into batches done        ...    0.0 sec
Reduced shell lists constructed in    0.0 sec

Total number of grid points                  ...    17236
Total number of batches                      ...      288
Average number of points per batch           ...       59
Average number of grid points per atom       ...      479
Average number of shells per batch           ...   130.08 (57.05%)
Average number of basis functions per batch  ...   270.48 (52.42%)
Average number of large shells per batch     ...    89.52 (68.82%)
Average number of large basis fcns per batch ...   172.16 (63.65%)
Maximum spatial batch extension              ...   7.75, 11.89, 12.55 au
Average spatial batch extension              ...   0.26,  0.34,  0.31 au

Overlap Fitting                  UseSFitting ... on
Constructing numerical overlap ... done (      0.0 sec)
Inverting numerical overlap    ... done (      0.0 sec)
Obtaining analytic overlap     ... done (      0.0 sec)
Final contraction and storage  ... done (      0.0 sec)


General Integration Accuracy     IntAcc      ...  4.010
Radial Grid Type                 RadialGrid  ... Gauss-Chebyshev
Angular Grid (max. acc.)         AngularGrid ... Lebedev-110
Angular grid pruning method      GridPruning ... 3 (G Style)
Weight generation scheme         WeightScheme... Becke
Basis function cutoff            BFCut       ...    1.0000e-11
Integration weight cutoff        WCut        ...    1.0000e-14
Grids for H and He will be reduced by one unit

# of grid points (after initial pruning)     ...  33096 (   0.0 sec)
# of grid points (after weights+screening)   ...  29822 (   0.0 sec)
nearest neighbour list constructed           ...    0.0 sec
Grid point re-assignment to atoms done       ...    0.0 sec
Grid point division into batches done        ...    0.0 sec
Reduced shell lists constructed in    0.1 sec

Total number of grid points                  ...    29822
Total number of batches                      ...      483
Average number of points per batch           ...       61
Average number of grid points per atom       ...      828
Average number of shells per batch           ...   123.81 (54.30%)
Average number of basis functions per batch  ...   253.52 (49.13%)
Average number of large shells per batch     ...    84.81 (68.50%)
Average number of large basis fcns per batch ...   162.05 (63.92%)
Maximum spatial batch extension              ...  13.46, 15.97, 15.07 au
Average spatial batch extension              ...   0.21,  0.25,  0.26 au

Overlap Fitting                  UseSFitting ... on
Constructing numerical overlap ... done (      0.0 sec)
Inverting numerical overlap    ... done (      0.0 sec)
Obtaining analytic overlap     ... done (      0.0 sec)
Final contraction and storage  ... done (      0.0 sec)

Time for X-Grid setup             =    0.373 sec

--------------------
COSMO INITIALIZATION
--------------------

Epsilon                                      ...   78.3550
Refractive Index                             ...    1.3300
Potential Evaluation                         ...  ANALYTIC
Technical COSMO parameters:
  rsolv                                      ...    1.3000
  routf                                      ...    0.8500
  disex                                      ...   10.0000
  nppa                                       ... 1082   
  nspa                                       ...   92   
Solvent:                                     ... WATER
Solvent:                                     ... WATER
SMD-CDS solvent descriptors:
  Soln                                       ...    1.3328
  Soln25                                     ...    1.3323
  Sola                                       ...    0.0000
  Solb                                       ...    0.0000
  Solg                                       ...    0.0000
  Solc                                       ...    0.0000
  Solh                                       ...    0.0000
Radii:
 Radius for O  used is    2.8724 Bohr (=   1.5200 Ang.)
 Radius for H  used is    2.2677 Bohr (=   1.2000 Ang.)
Initializing COSMO package            ... done
Setting COSMO radii                   ... done
Setting atoms and making cavity       ...  USING 1082 GRID
done
Cholesky decomposition of A           ... done
--------------
SCF ITERATIONS
--------------
ITER       Energy         Delta-E        Max-DP      RMS-DP      [F,P]     Damp
               ***  Starting incremental Fock matrix formation  ***
  0   -916.4353528978   0.000000000000 0.05098512  0.00101075  0.3192969 0.7000
  1   -916.8863713969  -0.451018499054 0.02993263  0.00061718  0.1340043 0.7000
                               ***Turning on DIIS***
  2   -917.0368563649  -0.150484967983 0.03318883  0.00075019  0.0334780 0.0000
  3   -917.2954741054  -0.258617740521 0.01892221  0.00038400  0.0770774 0.0000
  4   -917.3464315873  -0.050957481954 0.00451864  0.00011590  0.0154225 0.0000
  5   -917.3486029700  -0.002171382615 0.00151463  0.00003945  0.0035713 0.0000
                      *** Initiating the SOSCF procedure ***
                           *** Shutting down DIIS ***
                      *** Re-Reading the Fockian *** 
                      *** Removing any level shift *** 
ITER      Energy       Delta-E        Grad      Rot      Max-DP    RMS-DP
  6   -917.34869742  -0.0000944523  0.000190  0.000190  0.000518  0.000014
               *** Restarting incremental Fock matrix formation ***
  7   -917.34871564  -0.0000182159  0.000085  0.000197  0.000336  0.000008
  8   -917.34871640  -0.0000007641  0.000054  0.000060  0.000141  0.000003
  9   -917.34871670  -0.0000002984  0.000020  0.000049  0.000087  0.000002
 10   -917.34871682  -0.0000001168  0.000004  0.000005  0.000017  0.000000
 11   -917.34871686  -0.0000000452  0.000007  0.000003  0.000010  0.000000
                  ***Gradient check signals convergence***
              ***Rediagonalizing the Fockian in SOSCF/NRSCF***

               *****************************************************
               *                     SUCCESS                       *
               *           SCF CONVERGED AFTER  12 CYCLES          *
               *****************************************************

Setting up the final grid:

General Integration Accuracy     IntAcc      ...  5.010
Radial Grid Type                 RadialGrid  ... Gauss-Chebyshev
Angular Grid (max. acc.)         AngularGrid ... Lebedev-434
Angular grid pruning method      GridPruning ... 3 (G Style)
Weight generation scheme         WeightScheme... Becke
Basis function cutoff            BFCut       ...    1.0000e-11
Integration weight cutoff        WCut        ...    1.0000e-14
Grids for H and He will be reduced by one unit

# of grid points (after initial pruning)     ... 290712 (   0.0 sec)
# of grid points (after weights+screening)   ... 255758 (   0.2 sec)
nearest neighbour list constructed           ...    0.0 sec
Grid point re-assignment to atoms done       ...    0.0 sec
Grid point division into batches done        ...    1.2 sec
Reduced shell lists constructed in    1.5 sec

Total number of grid points                  ...   255758
Total number of batches                      ...     4013
Average number of points per batch           ...       63
Average number of grid points per atom       ...     7104
Average number of shells per batch           ...   110.89 (48.64%)
Average number of basis functions per batch  ...   219.10 (42.46%)
Average number of large shells per batch     ...    75.50 (68.08%)
Average number of large basis fcns per batch ...   141.38 (64.53%)
Maximum spatial batch extension              ...  12.40, 13.76, 10.00 au
Average spatial batch extension              ...   0.12,  0.13,  0.12 au

Final grid set up in    1.8 sec
Final integration                            ... done (   0.6 sec)
Change in XC energy                          ...    -0.000081404
Integrated number of electrons               ...   120.000194486
Previous integrated no of electrons          ...   120.000003308
Old exchange energy                            =    -21.437868346 Eh
New exchange energy                            =    -21.437006687 Eh
Exchange energy change after final integration =      0.000861658 Eh
Total energy after final integration           =   -917.347936583 Eh
Final COS-X integration done in                =     3.604 sec
   1.36575122395801        1.28351645607191       -2.12311833848531     
  1.315892911593667E-003  8.049910166566177E-002  1.634667821585124E-002
Total Energy after outlying charge correction =   -917.352494356 Eh

SMD CDS free energy correction energy :                 6.93900     Kcal/mol
Total Energy after SMD CDS correction =              -917.336878583 Eh

----------------
TOTAL SCF ENERGY
----------------

Total Energy       :         -917.33687858 Eh          -24962.00551 eV
Total Energy       :         -917.33687858 Eh          -24962.00551 eV
COSMO(ediel)       :           -0.05817550 Eh              -1.58304 eV
SMD CDS (Gcds)     :            0.01105800 Eh               0.30090 eV

Components:
Nuclear Repulsion  :         1038.86494668 Eh           28268.95236 eV
Electronic Energy  :        -1956.20182526 Eh          -53230.95787 eV

One Electron Energy:        -3333.49058837 Eh          -90708.89046 eV
Two Electron Energy:         1377.28876311 Eh           37477.93259 eV

Virial components:
Potential Energy   :        -1831.09404088 Eh          -49826.60199 eV
Kinetic Energy     :          913.75716230 Eh           24864.59648 eV
Virial Ratio       :            2.00391758


DFT components:
N(Alpha)           :       60.000097242950 electrons
N(Beta)            :       60.000097242950 electrons
N(Total)           :      120.000194485900 electrons
E(X)               :      -85.434909920095 Eh       
E(C)               :       -4.919945155996 Eh       
E(XC)              :      -90.354855076091 Eh       

---------------
SCF CONVERGENCE
---------------

  Last Energy change         ...    2.6151e-08  Tolerance :   1.0000e-08
  Last MAX-Density change    ...    7.2824e-14  Tolerance :   1.0000e-07
  Last RMS-Density change    ...    2.9211e-16  Tolerance :   5.0000e-09
  Last Orbital Gradient      ...    4.7277e-07  Tolerance :   1.0000e-05
  Last Orbital Rotation      ...    7.2611e-07  Tolerance :   1.0000e-05

             **** THE GBW FILE WAS UPDATED (3_B3LYP_SMD_onB3LYP_SMD_12_waters.gbw) ****
             **** DENSITY FILE WAS UPDATED (3_B3LYP_SMD_onB3LYP_SMD_12_waters.scfp.tmp) ****
             **** ENERGY FILE WAS UPDATED (3_B3LYP_SMD_onB3LYP_SMD_12_waters.en.tmp) ****
----------------
ORBITAL ENERGIES
----------------

  NO   OCC          E(Eh)            E(eV) 
   0   2.0000     -19.138288      -520.7793 
   1   2.0000     -19.137581      -520.7600 
   2   2.0000     -19.130250      -520.5606 
   3   2.0000     -19.129802      -520.5484 
   4   2.0000     -19.124129      -520.3940 
   5   2.0000     -19.123355      -520.3729 
   6   2.0000     -19.123228      -520.3695 
   7   2.0000     -19.122652      -520.3538 
   8   2.0000     -19.122481      -520.3492 
   9   2.0000     -19.121048      -520.3102 
  10   2.0000     -19.116060      -520.1744 
  11   2.0000     -19.116028      -520.1736 
  12   2.0000      -1.034885       -28.1607 
  13   2.0000      -1.025687       -27.9104 
  14   2.0000      -1.021085       -27.7851 
  15   2.0000      -1.018539       -27.7158 
  16   2.0000      -1.014354       -27.6020 
  17   2.0000      -1.009705       -27.4755 
  18   2.0000      -1.006425       -27.3862 
  19   2.0000      -1.000650       -27.2291 
  20   2.0000      -0.997429       -27.1414 
  21   2.0000      -0.994068       -27.0500 
  22   2.0000      -0.990959       -26.9654 
  23   2.0000      -0.979963       -26.6662 
  24   2.0000      -0.550862       -14.9897 
  25   2.0000      -0.549357       -14.9488 
  26   2.0000      -0.540632       -14.7114 
  27   2.0000      -0.538557       -14.6549 
  28   2.0000      -0.532669       -14.4947 
  29   2.0000      -0.530391       -14.4327 
  30   2.0000      -0.525429       -14.2976 
  31   2.0000      -0.518551       -14.1105 
  32   2.0000      -0.518130       -14.0990 
  33   2.0000      -0.516909       -14.0658 
  34   2.0000      -0.515253       -14.0207 
  35   2.0000      -0.514279       -13.9942 
  36   2.0000      -0.457321       -12.4443 
  37   2.0000      -0.440596       -11.9892 
  38   2.0000      -0.429355       -11.6833 
  39   2.0000      -0.426062       -11.5937 
  40   2.0000      -0.414233       -11.2718 
  41   2.0000      -0.411460       -11.1964 
  42   2.0000      -0.407922       -11.1001 
  43   2.0000      -0.403833       -10.9888 
  44   2.0000      -0.388595       -10.5742 
  45   2.0000      -0.386234       -10.5100 
  46   2.0000      -0.377516       -10.2727 
  47   2.0000      -0.361442        -9.8353 
  48   2.0000      -0.332548        -9.0491 
  49   2.0000      -0.331086        -9.0093 
  50   2.0000      -0.329156        -8.9568 
  51   2.0000      -0.324360        -8.8263 
  52   2.0000      -0.323910        -8.8140 
  53   2.0000      -0.323116        -8.7924 
  54   2.0000      -0.321939        -8.7604 
  55   2.0000      -0.319969        -8.7068 
  56   2.0000      -0.318233        -8.6596 
  57   2.0000      -0.316130        -8.6023 
  58   2.0000      -0.311668        -8.4809 
  59   2.0000      -0.311192        -8.4680 
  60   0.0000       0.013864         0.3773 
  61   0.0000       0.039420         1.0727 
  62   0.0000       0.057078         1.5532 
  63   0.0000       0.057367         1.5610 
  64   0.0000       0.093083         2.5329 
  65   0.0000       0.098875         2.6905 
  66   0.0000       0.099454         2.7063 
  67   0.0000       0.117217         3.1896 
  68   0.0000       0.141115         3.8399 
  69   0.0000       0.152002         4.1362 
  70   0.0000       0.154409         4.2017 
  71   0.0000       0.164565         4.4781 
  72   0.0000       0.190373         5.1803 
  73   0.0000       0.198286         5.3956 
  74   0.0000       0.200206         5.4479 
  75   0.0000       0.205751         5.5988 
  76   0.0000       0.210244         5.7210 
  77   0.0000       0.213988         5.8229 
  78   0.0000       0.215709         5.8697 
  79   0.0000       0.219982         5.9860 
  80   0.0000       0.223204         6.0737 
  81   0.0000       0.233399         6.3511 
  82   0.0000       0.240288         6.5386 
  83   0.0000       0.247499         6.7348 
  84   0.0000       0.249101         6.7784 
  85   0.0000       0.279130         7.5955 
  86   0.0000       0.297665         8.0999 
  87   0.0000       0.300634         8.1807 
  88   0.0000       0.308333         8.3902 
  89   0.0000       0.312194         8.4952 
  90   0.0000       0.322179         8.7669 
  91   0.0000       0.328378         8.9356 
  92   0.0000       0.334170         9.0932 
  93   0.0000       0.347768         9.4632 
  94   0.0000       0.349400         9.5077 
  95   0.0000       0.353961         9.6318 
  96   0.0000       0.359753         9.7894 
  97   0.0000       0.366549         9.9743 
  98   0.0000       0.372102        10.1254 
  99   0.0000       0.380061        10.3420 
 100   0.0000       0.386430        10.5153 
 101   0.0000       0.390149        10.6165 
 102   0.0000       0.398614        10.8468 
 103   0.0000       0.417597        11.3634 
 104   0.0000       0.421943        11.4817 
 105   0.0000       0.425960        11.5910 
 106   0.0000       0.427564        11.6346 
 107   0.0000       0.465852        12.6765 
 108   0.0000       0.468741        12.7551 
 109   0.0000       0.474331        12.9072 
 110   0.0000       0.486144        13.2286 
 111   0.0000       0.488864        13.3027 
 112   0.0000       0.511902        13.9296 
 113   0.0000       0.513920        13.9845 
 114   0.0000       0.528950        14.3935 
 115   0.0000       0.548613        14.9285 
 116   0.0000       0.555026        15.1030 
 117   0.0000       0.558033        15.1849 
 118   0.0000       0.568396        15.4668 
 119   0.0000       0.577444        15.7131 
 120   0.0000       0.583789        15.8857 
 121   0.0000       0.593080        16.1385 
 122   0.0000       0.597282        16.2529 
 123   0.0000       0.619646        16.8614 
 124   0.0000       0.632417        17.2089 
 125   0.0000       0.635391        17.2899 
 126   0.0000       0.639407        17.3991 
 127   0.0000       0.652400        17.7527 
 128   0.0000       0.657176        17.8827 
 129   0.0000       0.664452        18.0806 
 130   0.0000       0.668119        18.1805 
 131   0.0000       0.671951        18.2847 
 132   0.0000       0.674980        18.3671 
 133   0.0000       0.682118        18.5614 
 134   0.0000       0.694398        18.8955 
 135   0.0000       0.702602        19.1188 
 136   0.0000       0.710419        19.3315 
 137   0.0000       0.753354        20.4998 
 138   0.0000       0.756468        20.5845 
 139   0.0000       0.762502        20.7487 
 140   0.0000       0.791676        21.5426 
 141   0.0000       0.813876        22.1467 
 142   0.0000       0.821239        22.3471 
 143   0.0000       0.833605        22.6835 
 144   0.0000       0.849697        23.1214 
 145   0.0000       0.878131        23.8951 
 146   0.0000       0.882175        24.0052 
 147   0.0000       0.889776        24.2120 
 148   0.0000       0.891857        24.2687 
 149   0.0000       0.896026        24.3821 
 150   0.0000       0.904575        24.6147 
 151   0.0000       0.954647        25.9773 
 152   0.0000       0.964947        26.2576 
 153   0.0000       0.981520        26.7085 
 154   0.0000       1.015200        27.6250 
 155   0.0000       1.090063        29.6621 
 156   0.0000       1.098730        29.8979 
 157   0.0000       1.126679        30.6585 
 158   0.0000       1.141618        31.0650 
 159   0.0000       1.152658        31.3654 
 160   0.0000       1.164468        31.6868 
 161   0.0000       1.170775        31.8584 
 162   0.0000       1.174792        31.9677 
 163   0.0000       1.181293        32.1446 
 164   0.0000       1.185403        32.2565 
 165   0.0000       1.188209        32.3328 
 166   0.0000       1.193381        32.4735 
 167   0.0000       1.199703        32.6456 
 168   0.0000       1.205650        32.8074 
 169   0.0000       1.219663        33.1887 
 170   0.0000       1.223242        33.2861 
 171   0.0000       1.244850        33.8741 
 172   0.0000       1.262177        34.3456 
 173   0.0000       1.282635        34.9023 
 174   0.0000       1.286824        35.0163 
 175   0.0000       1.295117        35.2419 
 176   0.0000       1.309880        35.6437 
 177   0.0000       1.316981        35.8369 
 178   0.0000       1.325710        36.0744 
 179   0.0000       1.331296        36.2264 
 180   0.0000       1.335356        36.3369 
 181   0.0000       1.338339        36.4181 
 182   0.0000       1.342606        36.5342 
 183   0.0000       1.349256        36.7151 
 184   0.0000       1.352516        36.8038 
 185   0.0000       1.360194        37.0128 
 186   0.0000       1.366288        37.1786 
 187   0.0000       1.371388        37.3174 
 188   0.0000       1.378525        37.5116 
 189   0.0000       1.383976        37.6599 
 190   0.0000       1.389071        37.7985 
 191   0.0000       1.405653        38.2498 
 192   0.0000       1.549050        42.1518 
 193   0.0000       1.556202        42.3464 
 194   0.0000       1.627825        44.2954 
 195   0.0000       1.637413        44.5563 
 196   0.0000       1.651702        44.9451 
 197   0.0000       1.659062        45.1454 
 198   0.0000       1.667598        45.3777 
 199   0.0000       1.673386        45.5352 
 200   0.0000       1.676878        45.6302 
 201   0.0000       1.682515        45.7836 
 202   0.0000       1.689641        45.9775 
 203   0.0000       1.698385        46.2154 
 204   0.0000       1.708612        46.4937 
 205   0.0000       1.713050        46.6145 
 206   0.0000       1.722763        46.8788 
 207   0.0000       1.734322        47.1933 
 208   0.0000       1.745395        47.4946 
 209   0.0000       1.746614        47.5278 
 210   0.0000       1.757962        47.8366 
 211   0.0000       1.763755        47.9942 
 212   0.0000       1.776687        48.3461 
 213   0.0000       1.796826        48.8941 
 214   0.0000       1.812996        49.3341 
 215   0.0000       1.823885        49.6304 
 216   0.0000       1.856123        50.5077 
 217   0.0000       1.867052        50.8051 
 218   0.0000       1.889971        51.4287 
 219   0.0000       1.900256        51.7086 
 220   0.0000       1.919302        52.2269 
 221   0.0000       1.923933        52.3529 
 222   0.0000       1.929596        52.5070 
 223   0.0000       1.935148        52.6581 
 224   0.0000       1.942945        52.8702 
 225   0.0000       1.957146        53.2567 
 226   0.0000       1.961480        53.3746 
 227   0.0000       1.969137        53.5830 
 228   0.0000       1.984753        54.0079 
 229   0.0000       1.990673        54.1690 
 230   0.0000       2.003853        54.5276 
 231   0.0000       2.013075        54.7786 
 232   0.0000       2.023967        55.0749 
 233   0.0000       2.036609        55.4189 
 234   0.0000       2.051689        55.8293 
 235   0.0000       2.057124        55.9772 
 236   0.0000       2.060806        56.0774 
 237   0.0000       2.079593        56.5886 
 238   0.0000       2.081420        56.6383 
 239   0.0000       2.088015        56.8178 
 240   0.0000       2.095510        57.0217 
 241   0.0000       2.102349        57.2078 
 242   0.0000       2.112990        57.4974 
 243   0.0000       2.131293        57.9954 
 244   0.0000       2.140463        58.2450 
 245   0.0000       2.153706        58.6053 
 246   0.0000       2.178006        59.2665 
 247   0.0000       2.182957        59.4013 
 248   0.0000       2.190363        59.6028 
 249   0.0000       2.198129        59.8141 
 250   0.0000       2.212683        60.2102 
 251   0.0000       2.223665        60.5090 
 252   0.0000       2.230955        60.7074 
 253   0.0000       2.242658        61.0258 
 254   0.0000       2.247607        61.1605 
 255   0.0000       2.250776        61.2467 
 256   0.0000       2.266638        61.6784 
 257   0.0000       2.275838        61.9287 
 258   0.0000       2.285013        62.1784 
 259   0.0000       2.295982        62.4768 
 260   0.0000       2.298895        62.5561 
 261   0.0000       2.313024        62.9406 
 262   0.0000       2.321134        63.1613 
 263   0.0000       2.329609        63.3919 
 264   0.0000       2.335204        63.5441 
 265   0.0000       2.341745        63.7221 
 266   0.0000       2.346905        63.8625 
 267   0.0000       2.361525        64.2604 
 268   0.0000       2.371906        64.5428 
 269   0.0000       2.374391        64.6105 
 270   0.0000       2.376405        64.6653 
 271   0.0000       2.383036        64.8457 
 272   0.0000       2.390471        65.0480 
 273   0.0000       2.393873        65.1406 
 274   0.0000       2.397152        65.2298 
 275   0.0000       2.404603        65.4326 
 276   0.0000       2.411897        65.6311 
 277   0.0000       2.419222        65.8304 
 278   0.0000       2.428547        66.0841 
 279   0.0000       2.449658        66.6586 
 280   0.0000       2.466065        67.1051 
 281   0.0000       2.488811        67.7240 
 282   0.0000       2.496032        67.9205 
 283   0.0000       2.513396        68.3930 
 284   0.0000       2.518201        68.5237 
 285   0.0000       2.535012        68.9812 
 286   0.0000       2.554634        69.5151 
 287   0.0000       2.558743        69.6269 
 288   0.0000       2.574768        70.0630 
 289   0.0000       2.576909        70.1213 
 290   0.0000       2.586330        70.3776 
 291   0.0000       2.602559        70.8192 
 292   0.0000       2.610150        71.0258 
 293   0.0000       2.619082        71.2688 
 294   0.0000       2.629170        71.5434 
 295   0.0000       2.645933        71.9995 
 296   0.0000       2.656627        72.2905 
 297   0.0000       2.674392        72.7739 
 298   0.0000       2.682369        72.9910 
 299   0.0000       2.696053        73.3633 
 300   0.0000       2.699299        73.4517 
 301   0.0000       2.703205        73.5580 
 302   0.0000       2.717258        73.9404 
 303   0.0000       2.729550        74.2748 
 304   0.0000       2.732198        74.3469 
 305   0.0000       2.763869        75.2087 
 306   0.0000       2.779362        75.6303 
 307   0.0000       2.793469        76.0142 
 308   0.0000       2.804011        76.3010 
 309   0.0000       2.836195        77.1768 
 310   0.0000       2.848496        77.5115 
 311   0.0000       2.867271        78.0224 
 312   0.0000       2.885792        78.5264 
 313   0.0000       2.896003        78.8043 
 314   0.0000       2.908962        79.1569 
 315   0.0000       2.911602        79.2287 
 316   0.0000       2.920784        79.4786 
 317   0.0000       2.952282        80.3357 
 318   0.0000       2.963369        80.6374 
 319   0.0000       2.978663        81.0535 
 320   0.0000       2.985411        81.2372 
 321   0.0000       3.009695        81.8980 
 322   0.0000       3.021845        82.2286 
 323   0.0000       3.030130        82.4540 
 324   0.0000       3.040060        82.7242 
 325   0.0000       3.057368        83.1952 
 326   0.0000       3.069700        83.5308 
 327   0.0000       3.084203        83.9254 
 328   0.0000       3.096003        84.2465 
 329   0.0000       3.102298        84.4178 
 330   0.0000       3.115344        84.7728 
 331   0.0000       3.124698        85.0273 
 332   0.0000       3.127680        85.1085 
 333   0.0000       3.183448        86.6260 
 334   0.0000       3.199572        87.0648 
 335   0.0000       3.237278        88.0908 
 336   0.0000       3.719095       101.2017 
 337   0.0000       3.719858       101.2225 
 338   0.0000       3.732837       101.5757 
 339   0.0000       3.744022       101.8800 
 340   0.0000       3.755274       102.1862 
 341   0.0000       3.762061       102.3709 
 342   0.0000       3.771498       102.6277 
 343   0.0000       3.792622       103.2025 
 344   0.0000       3.804196       103.5174 
 345   0.0000       3.848760       104.7301 
 346   0.0000       3.852530       104.8327 
 347   0.0000       3.873928       105.4150 
 348   0.0000       3.905188       106.2656 
 349   0.0000       3.907727       106.3347 
 350   0.0000       3.931246       106.9746 
 351   0.0000       3.933768       107.0433 
 352   0.0000       3.944722       107.3413 
 353   0.0000       3.962868       107.8351 
 354   0.0000       3.970816       108.0514 
 355   0.0000       3.981709       108.3478 
 356   0.0000       3.998475       108.8040 
 357   0.0000       4.020594       109.4059 
 358   0.0000       4.025914       109.5507 
 359   0.0000       4.037455       109.8647 
 360   0.0000       5.087545       138.4391 
 361   0.0000       5.088245       138.4582 
 362   0.0000       5.088979       138.4782 
 363   0.0000       5.089795       138.5004 
 364   0.0000       5.090411       138.5171 
 365   0.0000       5.092282       138.5680 
 366   0.0000       5.095361       138.6518 
 367   0.0000       5.096922       138.6943 
 368   0.0000       5.100343       138.7874 
 369   0.0000       5.101351       138.8148 
 370   0.0000       5.102360       138.8423 
 371   0.0000       5.103863       138.8832 
 372   0.0000       5.187713       141.1648 
 373   0.0000       5.190849       141.2502 
 374   0.0000       5.191930       141.2796 
 375   0.0000       5.197385       141.4280 
 376   0.0000       5.219812       142.0383 
 377   0.0000       5.228373       142.2713 
 378   0.0000       5.231785       142.3641 
 379   0.0000       5.233027       142.3979 
 380   0.0000       5.235382       142.4620 
 381   0.0000       5.243487       142.6825 
 382   0.0000       5.251013       142.8873 
 383   0.0000       5.252847       142.9372 
 384   0.0000       5.327234       144.9614 
 385   0.0000       5.329331       145.0185 
 386   0.0000       5.335766       145.1936 
 387   0.0000       5.343838       145.4132 
 388   0.0000       5.348463       145.5391 
 389   0.0000       5.351206       145.6137 
 390   0.0000       5.353615       145.6793 
 391   0.0000       5.360901       145.8775 
 392   0.0000       5.363473       145.9475 
 393   0.0000       5.364535       145.9764 
 394   0.0000       5.370988       146.1520 
 395   0.0000       5.373917       146.2317 
 396   0.0000       5.384553       146.5211 
 397   0.0000       5.385092       146.5358 
 398   0.0000       5.393722       146.7706 
 399   0.0000       5.398544       146.9018 
 400   0.0000       5.404569       147.0658 
 401   0.0000       5.407775       147.1530 
 402   0.0000       5.410105       147.2164 
 403   0.0000       5.415697       147.3686 
 404   0.0000       5.418856       147.4546 
 405   0.0000       5.420377       147.4960 
 406   0.0000       5.422965       147.5664 
 407   0.0000       5.429061       147.7323 
 408   0.0000       5.437066       147.9501 
 409   0.0000       5.437457       147.9607 
 410   0.0000       5.439580       148.0185 
 411   0.0000       5.441524       148.0714 
 412   0.0000       5.450301       148.3102 
 413   0.0000       5.453343       148.3930 
 414   0.0000       5.456990       148.4922 
 415   0.0000       5.458690       148.5385 
 416   0.0000       5.465266       148.7174 
 417   0.0000       5.469715       148.8385 
 418   0.0000       5.473240       148.9344 
 419   0.0000       5.480938       149.1439 
 420   0.0000       5.899683       160.5385 
 421   0.0000       5.911809       160.8685 
 422   0.0000       5.926498       161.2682 
 423   0.0000       5.941809       161.6848 
 424   0.0000       5.952061       161.9638 
 425   0.0000       5.954887       162.0407 
 426   0.0000       5.970080       162.4541 
 427   0.0000       5.975274       162.5955 
 428   0.0000       5.982828       162.8010 
 429   0.0000       5.999257       163.2481 
 430   0.0000       6.009586       163.5292 
 431   0.0000       6.028149       164.0343 
 432   0.0000       6.081554       165.4875 
 433   0.0000       6.140721       167.0975 
 434   0.0000       6.149747       167.3431 
 435   0.0000       6.160706       167.6413 
 436   0.0000       6.191378       168.4759 
 437   0.0000       6.211668       169.0281 
 438   0.0000       6.221013       169.2824 
 439   0.0000       6.231069       169.5560 
 440   0.0000       6.270911       170.6402 
 441   0.0000       6.276806       170.8006 
 442   0.0000       6.286096       171.0534 
 443   0.0000       6.301713       171.4783 
 444   0.0000       6.306609       171.6116 
 445   0.0000       6.322666       172.0485 
 446   0.0000       6.327640       172.1838 
 447   0.0000       6.331701       172.2944 
 448   0.0000       6.345925       172.6814 
 449   0.0000       6.346743       172.7037 
 450   0.0000       6.359974       173.0637 
 451   0.0000       6.365079       173.2026 
 452   0.0000       6.375354       173.4822 
 453   0.0000       6.379371       173.5915 
 454   0.0000       6.383606       173.7067 
 455   0.0000       6.384507       173.7313 
 456   0.0000       6.395270       174.0242 
 457   0.0000       6.400398       174.1637 
 458   0.0000       6.410474       174.4379 
 459   0.0000       6.417072       174.6174 
 460   0.0000       6.422192       174.7567 
 461   0.0000       6.427000       174.8875 
 462   0.0000       6.429482       174.9551 
 463   0.0000       6.432927       175.0489 
 464   0.0000       6.454861       175.6457 
 465   0.0000       6.457286       175.7117 
 466   0.0000       6.460723       175.8052 
 467   0.0000       6.472487       176.1253 
 468   0.0000       6.498754       176.8401 
 469   0.0000       6.502484       176.9416 
 470   0.0000       6.523053       177.5013 
 471   0.0000       6.540955       177.9884 
 472   0.0000       6.544854       178.0945 
 473   0.0000       6.565850       178.6659 
 474   0.0000       6.623218       180.2269 
 475   0.0000       6.637410       180.6131 
 476   0.0000       6.648235       180.9077 
 477   0.0000       6.676897       181.6876 
 478   0.0000       6.679443       181.7569 
 479   0.0000       6.698845       182.2848 
 480   0.0000       6.837468       186.0570 
 481   0.0000       6.871149       186.9735 
 482   0.0000       6.927185       188.4983 
 483   0.0000       6.935819       188.7332 
 484   0.0000       6.942705       188.9206 
 485   0.0000       6.956257       189.2894 
 486   0.0000       6.971519       189.7047 
 487   0.0000       6.980572       189.9510 
 488   0.0000       6.981903       189.9873 
 489   0.0000       7.012413       190.8175 
 490   0.0000       7.021144       191.0551 
 491   0.0000       7.036657       191.4772 
 492   0.0000       7.045491       191.7175 
 493   0.0000       7.068957       192.3561 
 494   0.0000       7.077802       192.5968 
 495   0.0000       7.094804       193.0594 
 496   0.0000       7.103709       193.3018 
 497   0.0000       7.109557       193.4609 
 498   0.0000       7.132120       194.0748 
 499   0.0000       7.134586       194.1420 
 500   0.0000       7.162308       194.8963 
 501   0.0000       7.201669       195.9674 
 502   0.0000       7.211018       196.2218 
 503   0.0000       7.243231       197.0983 
 504   0.0000      43.412654      1181.3184 
 505   0.0000      43.414589      1181.3710 
 506   0.0000      43.441590      1182.1058 
 507   0.0000      43.448750      1182.3006 
 508   0.0000      43.458064      1182.5540 
 509   0.0000      43.463939      1182.7139 
 510   0.0000      43.523480      1184.3341 
 511   0.0000      43.561765      1185.3759 
 512   0.0000      43.610238      1186.6949 
 513   0.0000      43.632554      1187.3022 
 514   0.0000      43.644034      1187.6145 
 515   0.0000      43.860102      1193.4941 

                    ********************************
                    * MULLIKEN POPULATION ANALYSIS *
                    ********************************

-----------------------
MULLIKEN ATOMIC CHARGES
-----------------------
   0 O :   -0.762419
   1 H :    0.380003
   2 H :    0.366264
   3 O :   -0.742391
   4 H :    0.382604
   5 H :    0.370097
   6 O :   -0.744935
   7 H :    0.374354
   8 H :    0.383604
   9 O :   -0.745699
  10 H :    0.373901
  11 H :    0.383256
  12 O :   -0.726810
  13 H :    0.387796
  14 H :    0.389167
  15 O :   -0.759946
  16 H :    0.367426
  17 H :    0.364841
  18 O :   -0.767560
  19 H :    0.379223
  20 H :    0.359769
  21 O :   -0.774095
  22 H :    0.365326
  23 H :    0.390103
  24 O :   -0.726612
  25 H :    0.387896
  26 H :    0.387779
  27 O :   -0.745181
  28 H :    0.372449
  29 H :    0.384006
  30 O :   -0.776547
  31 H :    0.356512
  32 H :    0.387835
  33 O :   -0.758953
  34 H :    0.368763
  35 H :    0.368173
Sum of atomic charges:   -0.0000000

--------------------------------
MULLIKEN REDUCED ORBITAL CHARGES
--------------------------------
  0 O s       :     3.801998  s :     3.801998
      pz      :     1.606036  p :     4.941468
      px      :     1.663677
      py      :     1.671755
      dz2     :     0.000782  d :     0.017943
      dxz     :     0.004253
      dyz     :     0.005619
      dx2y2   :     0.005482
      dxy     :     0.001806
      f0      :     0.000126  f :     0.001010
      f+1     :     0.000047
      f-1     :     0.000196
      f+2     :     0.000489
      f-2     :     0.000035
      f+3     :     0.000096
      f-3     :     0.000021
  1 H s       :     0.566496  s :     0.566496
      pz      :     0.014608  p :     0.053501
      px      :     0.027549
      py      :     0.011344
  2 H s       :     0.579169  s :     0.579169
      pz      :     0.022197  p :     0.054568
      px      :     0.010230
      py      :     0.022141
  3 O s       :     3.793033  s :     3.793033
      pz      :     1.653667  p :     4.929288
      px      :     1.596635
      py      :     1.678986
      dz2     :     0.002757  d :     0.019033
      dxz     :     0.003393
      dyz     :     0.006696
      dx2y2   :     0.004351
      dxy     :     0.001836
      f0      :     0.000052  f :     0.001037
      f+1     :     0.000038
      f-1     :     0.000236
      f+2     :     0.000170
      f-2     :     0.000159
      f+3     :     0.000089
      f-3     :     0.000294
  4 H s       :     0.566913  s :     0.566913
      pz      :     0.012199  p :     0.050483
      px      :     0.025260
      py      :     0.013024
  5 H s       :     0.577170  s :     0.577170
      pz      :     0.021432  p :     0.052732
      px      :     0.010826
      py      :     0.020474
  6 O s       :     3.803510  s :     3.803510
      pz      :     1.711858  p :     4.923382
      px      :     1.698029
      py      :     1.513495
      dz2     :     0.002913  d :     0.016933
      dxz     :     0.003474
      dyz     :     0.002949
      dx2y2   :     0.000701
      dxy     :     0.006896
      f0      :     0.000065  f :     0.001110
      f+1     :     0.000139
      f-1     :     0.000291
      f+2     :     0.000071
      f-2     :     0.000186
      f+3     :     0.000306
      f-3     :     0.000052
  7 H s       :     0.570350  s :     0.570350
      pz      :     0.023189  p :     0.055296
      px      :     0.012813
      py      :     0.019293
  8 H s       :     0.571910  s :     0.571910
      pz      :     0.012161  p :     0.044487
      px      :     0.015227
      py      :     0.017099
  9 O s       :     3.802908  s :     3.802908
      pz      :     1.451256  p :     4.924675
      px      :     1.774024
      py      :     1.699395
      dz2     :     0.002476  d :     0.017016
      dxz     :     0.005286
      dyz     :     0.003470
      dx2y2   :     0.002412
      dxy     :     0.003372
      f0      :     0.000176  f :     0.001099
      f+1     :     0.000383
      f-1     :     0.000066
      f+2     :     0.000176
      f-2     :     0.000149
      f+3     :     0.000129
      f-3     :     0.000021
 10 H s       :     0.569888  s :     0.569888
      pz      :     0.018656  p :     0.056211
      px      :     0.013558
      py      :     0.023998
 11 H s       :     0.572301  s :     0.572301
      pz      :     0.018256  p :     0.044444
      px      :     0.014391
      py      :     0.011797
 12 O s       :     3.799862  s :     3.799862
      pz      :     1.615945  p :     4.908828
      px      :     1.382499
      py      :     1.910384
      dz2     :     0.001645  d :     0.016978
      dxz     :     0.010782
      dyz     :     0.001711
      dx2y2   :     0.002395
      dxy     :     0.000446
      f0      :     0.000045  f :     0.001143
      f+1     :     0.000077
      f-1     :     0.000021
      f+2     :     0.000547
      f-2     :     0.000043
      f+3     :     0.000290
      f-3     :     0.000121
 13 H s       :     0.560586  s :     0.560586
      pz      :     0.013854  p :     0.051618
      px      :     0.024334
      py      :     0.013430
 14 H s       :     0.566547  s :     0.566547
      pz      :     0.014679  p :     0.044286
      px      :     0.015865
      py      :     0.013742
 15 O s       :     3.797530  s :     3.797530
      pz      :     1.735018  p :     4.942700
      px      :     1.826343
      py      :     1.381339
      dz2     :     0.001593  d :     0.018690
      dxz     :     0.003324
      dyz     :     0.010024
      dx2y2   :     0.001777
      dxy     :     0.001974
      f0      :     0.000134  f :     0.001026
      f+1     :     0.000052
      f-1     :     0.000001
      f+2     :     0.000294
      f-2     :     0.000225
      f+3     :     0.000175
      f-3     :     0.000145
 16 H s       :     0.580155  s :     0.580155
      pz      :     0.017678  p :     0.052419
      px      :     0.012876
      py      :     0.021865
 17 H s       :     0.582308  s :     0.582308
      pz      :     0.018221  p :     0.052851
      px      :     0.014743
      py      :     0.019888
 18 O s       :     3.803412  s :     3.803412
      pz      :     1.651984  p :     4.945574
      px      :     1.610844
      py      :     1.682746
      dz2     :     0.001586  d :     0.017555
      dxz     :     0.003546
      dyz     :     0.004272
      dx2y2   :     0.004428
      dxy     :     0.003723
      f0      :     0.000141  f :     0.001020
      f+1     :     0.000037
      f-1     :     0.000231
      f+2     :     0.000166
      f-2     :     0.000248
      f+3     :     0.000032
      f-3     :     0.000164
 19 H s       :     0.567648  s :     0.567648
      pz      :     0.013597  p :     0.053130
      px      :     0.026727
      py      :     0.012805
 20 H s       :     0.584549  s :     0.584549
      pz      :     0.021763  p :     0.055682
      px      :     0.011144
      py      :     0.022775
 21 O s       :     3.805369  s :     3.805369
      pz      :     1.631140  p :     4.949790
      px      :     1.642806
      py      :     1.675844
      dz2     :     0.001293  d :     0.017932
      dxz     :     0.003501
      dyz     :     0.005645
      dx2y2   :     0.005960
      dxy     :     0.001532
      f0      :     0.000135  f :     0.001005
      f+1     :     0.000018
      f-1     :     0.000218
      f+2     :     0.000463
      f-2     :     0.000035
      f+3     :     0.000125
      f-3     :     0.000011
 22 H s       :     0.580325  s :     0.580325
      pz      :     0.022565  p :     0.054349
      px      :     0.009937
      py      :     0.021847
 23 H s       :     0.554806  s :     0.554806
      pz      :     0.013919  p :     0.055091
      px      :     0.030130
      py      :     0.011042
 24 O s       :     3.800466  s :     3.800466
      pz      :     1.877688  p :     4.907979
      px      :     1.436212
      py      :     1.594079
      dz2     :     0.003060  d :     0.017027
      dxz     :     0.000974
      dyz     :     0.002117
      dx2y2   :     0.003349
      dxy     :     0.007528
      f0      :     0.000200  f :     0.001140
      f+1     :     0.000226
      f-1     :     0.000166
      f+2     :     0.000079
      f-2     :     0.000129
      f+3     :     0.000208
      f-3     :     0.000133
 25 H s       :     0.567671  s :     0.567671
      pz      :     0.014034  p :     0.044433
      px      :     0.013581
      py      :     0.016818
 26 H s       :     0.560669  s :     0.560669
      pz      :     0.013579  p :     0.051552
      px      :     0.027108
      py      :     0.010864
 27 O s       :     3.794561  s :     3.794561
      pz      :     1.646079  p :     4.930600
      px      :     1.652810
      py      :     1.631711
      dz2     :     0.000889  d :     0.018988
      dxz     :     0.003657
      dyz     :     0.005812
      dx2y2   :     0.006695
      dxy     :     0.001936
      f0      :     0.000188  f :     0.001032
      f+1     :     0.000055
      f-1     :     0.000099
      f+2     :     0.000536
      f-2     :     0.000040
      f+3     :     0.000055
      f-3     :     0.000059
 28 H s       :     0.575151  s :     0.575151
      pz      :     0.018967  p :     0.052399
      px      :     0.010348
      py      :     0.023084
 29 H s       :     0.564845  s :     0.564845
      pz      :     0.014648  p :     0.051149
      px      :     0.025225
      py      :     0.011276
 30 O s       :     3.803868  s :     3.803868
      pz      :     1.654301  p :     4.954283
      px      :     1.621924
      py      :     1.678058
      dz2     :     0.001614  d :     0.017378
      dxz     :     0.003338
      dyz     :     0.004432
      dx2y2   :     0.004509
      dxy     :     0.003485
      f0      :     0.000138  f :     0.001019
      f+1     :     0.000039
      f-1     :     0.000237
      f+2     :     0.000174
      f-2     :     0.000237
      f+3     :     0.000032
      f-3     :     0.000163
 31 H s       :     0.588622  s :     0.588622
      pz      :     0.021420  p :     0.054866
      px      :     0.011027
      py      :     0.022419
 32 H s       :     0.557654  s :     0.557654
      pz      :     0.013492  p :     0.054511
      px      :     0.028170
      py      :     0.012850
 33 O s       :     3.798388  s :     3.798388
      pz      :     1.423976  p :     4.940535
      px      :     1.826682
      py      :     1.689877
      dz2     :     0.000261  d :     0.019012
      dxz     :     0.001290
      dyz     :     0.010838
      dx2y2   :     0.003486
      dxy     :     0.003137
      f0      :     0.000024  f :     0.001017
      f+1     :     0.000147
      f-1     :     0.000350
      f+2     :     0.000168
      f-2     :     0.000212
      f+3     :     0.000069
      f-3     :     0.000046
 34 H s       :     0.578236  s :     0.578236
      pz      :     0.019647  p :     0.053001
      px      :     0.015096
      py      :     0.018259
 35 H s       :     0.579541  s :     0.579541
      pz      :     0.020796  p :     0.052286
      px      :     0.012516
      py      :     0.018974


                     *******************************
                     * LOEWDIN POPULATION ANALYSIS *
                     *******************************

----------------------
LOEWDIN ATOMIC CHARGES
----------------------
   0 O :   -0.302334
   1 H :    0.146214
   2 H :    0.136807
   3 O :   -0.310158
   4 H :    0.149034
   5 H :    0.144196
   6 O :   -0.283704
   7 H :    0.145483
   8 H :    0.182990
[...]
      dyz     :     0.010698
      dx2y2   :     0.006227
      dxy     :     0.003276
      f0      :     0.000135  f :     0.002020
      f+1     :     0.000132
      f-1     :     0.000465
      f+2     :     0.000480
      f-2     :     0.000275
      f+3     :     0.000084
      f-3     :     0.000448
  4 H s       :     0.673646  s :     0.673646
      pz      :     0.040052  p :     0.177319
      px      :     0.092785
      py      :     0.044482
  5 H s       :     0.673236  s :     0.673236
      pz      :     0.078785  p :     0.182567
      px      :     0.033600
      py      :     0.070182
  6 O s       :     3.451490  s :     3.451490
      pz      :     1.666138  p :     4.802774
      px      :     1.662727
      py      :     1.473909
      dz2     :     0.004519  d :     0.027353
      dxz     :     0.003956
      dyz     :     0.006091
      dx2y2   :     0.001659
      dxy     :     0.011128
      f0      :     0.000060  f :     0.002087
      f+1     :     0.000331
      f-1     :     0.000478
      f+2     :     0.000087
      f-2     :     0.000363
      f+3     :     0.000639
      f-3     :     0.000128
  7 H s       :     0.659021  s :     0.659021
      pz      :     0.084815  p :     0.195497
      px      :     0.045306
      py      :     0.065375
  8 H s       :     0.657060  s :     0.657060
      pz      :     0.036769  p :     0.159950
      px      :     0.058120
      py      :     0.065061
  9 O s       :     3.451916  s :     3.451916
      pz      :     1.418255  p :     4.800766
      px      :     1.720796
      py      :     1.661714
      dz2     :     0.005168  d :     0.027428
      dxz     :     0.008419
      dyz     :     0.006627
      dx2y2   :     0.003830
      dxy     :     0.003384
      f0      :     0.000317  f :     0.002096
      f+1     :     0.000802
      f-1     :     0.000064
      f+2     :     0.000299
      f-2     :     0.000357
      f+3     :     0.000241
      f-3     :     0.000016
 10 H s       :     0.657747  s :     0.657747
      pz      :     0.062463  p :     0.198769
      px      :     0.047140
      py      :     0.089166
 11 H s       :     0.657132  s :     0.657132
      pz      :     0.072741  p :     0.159958
      px      :     0.050855
      py      :     0.036362
 12 O s       :     3.443237  s :     3.443237
      pz      :     1.602575  p :     4.790584
      px      :     1.357129
      py      :     1.830881
      dz2     :     0.000850  d :     0.027066
      dxz     :     0.017754
      dyz     :     0.002742
      dx2y2   :     0.004988
      dxy     :     0.000733
      f0      :     0.000204  f :     0.002142
      f+1     :     0.000415
      f-1     :     0.000026
      f+2     :     0.000980
      f-2     :     0.000086
      f+3     :     0.000354
      f-3     :     0.000076
 13 H s       :     0.663167  s :     0.663167
      pz      :     0.052838  p :     0.181617
      px      :     0.085711
      py      :     0.043067
 14 H s       :     0.651929  s :     0.651929
      pz      :     0.058523  p :     0.158894
      px      :     0.057647
      py      :     0.042724
 15 O s       :     3.460589  s :     3.460589
      pz      :     1.707154  p :     4.840999
      px      :     1.763001
      py      :     1.370844
      dz2     :     0.000843  d :     0.027237
      dxz     :     0.002677
      dyz     :     0.015563
      dx2y2   :     0.004586
      dxy     :     0.003568
      f0      :     0.000288  f :     0.001999
      f+1     :     0.000043
      f-1     :     0.000162
      f+2     :     0.000539
      f-2     :     0.000551
      f+3     :     0.000273
      f-3     :     0.000144
 16 H s       :     0.676146  s :     0.676146
      pz      :     0.062692  p :     0.181871
      px      :     0.042044
      py      :     0.077135
 17 H s       :     0.675993  s :     0.675993
      pz      :     0.065387  p :     0.183628
      px      :     0.050162
      py      :     0.068079
 18 O s       :     3.457239  s :     3.457239
      pz      :     1.613456  p :     4.823008
      px      :     1.577416
      py      :     1.632136
      dz2     :     0.002610  d :     0.027978
      dxz     :     0.005194
      dyz     :     0.008157
      dx2y2   :     0.006569
      dxy     :     0.005447
      f0      :     0.000237  f :     0.001951
      f+1     :     0.000141
      f-1     :     0.000334
      f+2     :     0.000309
      f-2     :     0.000380
      f+3     :     0.000157
      f-3     :     0.000393
 19 H s       :     0.670246  s :     0.670246
      pz      :     0.041702  p :     0.184126
      px      :     0.099692
      py      :     0.042732
 20 H s       :     0.669921  s :     0.669921
      pz      :     0.078261  p :     0.196567
      px      :     0.038712
      py      :     0.079593
 21 O s       :     3.460730  s :     3.460730
      pz      :     1.585143  p :     4.820885
      px      :     1.585592
      py      :     1.650150
      dz2     :     0.001782  d :     0.028351
      dxz     :     0.005776
      dyz     :     0.009727
      dx2y2   :     0.009889
      dxy     :     0.001177
      f0      :     0.000267  f :     0.001912
      f+1     :     0.000021
      f-1     :     0.000364
      f+2     :     0.000792
      f-2     :     0.000052
      f+3     :     0.000331
      f-3     :     0.000084
 22 H s       :     0.671651  s :     0.671651
      pz      :     0.078861  p :     0.192123
      px      :     0.032481
      py      :     0.080781
 23 H s       :     0.663733  s :     0.663733
      pz      :     0.047322  p :     0.191172
      px      :     0.111321
      py      :     0.032530
 24 O s       :     3.444556  s :     3.444556
      pz      :     1.803810  p :     4.792578
      px      :     1.409668
      py      :     1.579100
      dz2     :     0.003938  d :     0.027110
      dxz     :     0.001729
      dyz     :     0.003534
      dx2y2   :     0.005461
      dxy     :     0.012448
      f0      :     0.000237  f :     0.002137
      f+1     :     0.000302
      f-1     :     0.000234
      f+2     :     0.000118
      f-2     :     0.000222
      f+3     :     0.000592
      f-3     :     0.000432
 25 H s       :     0.652643  s :     0.652643
      pz      :     0.043992  p :     0.159071
      px      :     0.044979
      py      :     0.070099
 26 H s       :     0.663313  s :     0.663313
      pz      :     0.043953  p :     0.181169
      px      :     0.097963
      py      :     0.039253
 27 O s       :     3.456647  s :     3.456647
      pz      :     1.600023  p :     4.828780
      px      :     1.619067
      py      :     1.609690
      dz2     :     0.000664  d :     0.027440
      dxz     :     0.005765
      dyz     :     0.009872
      dx2y2   :     0.009911
      dxy     :     0.001228
      f0      :     0.000385  f :     0.002021
      f+1     :     0.000023
      f-1     :     0.000169
      f+2     :     0.000922
      f-2     :     0.000062
      f+3     :     0.000213
      f-3     :     0.000246
 28 H s       :     0.673339  s :     0.673339
      pz      :     0.063494  p :     0.181505
      px      :     0.032361
      py      :     0.085649
 29 H s       :     0.673723  s :     0.673723
      pz      :     0.051105  p :     0.178998
      px      :     0.093158
      py      :     0.034735
 30 O s       :     3.456917  s :     3.456917
      pz      :     1.615806  p :     4.820255
      px      :     1.575876
      py      :     1.628574
      dz2     :     0.002709  d :     0.027907
      dxz     :     0.004863
      dyz     :     0.008342
      dx2y2   :     0.006820
      dxy     :     0.005173
      f0      :     0.000227  f :     0.001929
      f+1     :     0.000142
      f-1     :     0.000347
      f+2     :     0.000318
      f-2     :     0.000351
      f+3     :     0.000153
      f-3     :     0.000390
 31 H s       :     0.671675  s :     0.671675
      pz      :     0.077548  p :     0.194556
      px      :     0.038278
      py      :     0.078729
 32 H s       :     0.664587  s :     0.664587
      pz      :     0.041414  p :     0.190104
      px      :     0.105711
      py      :     0.042979
 33 O s       :     3.462926  s :     3.462926
      pz      :     1.407418  p :     4.841536
      px      :     1.761838
      py      :     1.672281
      dz2     :     0.001511  d :     0.027319
      dxz     :     0.002837
      dyz     :     0.016694
      dx2y2   :     0.003487
      dxy     :     0.002790
      f0      :     0.000045  f :     0.001983
      f+1     :     0.000153
      f-1     :     0.000754
      f+2     :     0.000457
      f-2     :     0.000416
      f+3     :     0.000112
      f-3     :     0.000047
 34 H s       :     0.675800  s :     0.675800
      pz      :     0.066223  p :     0.183739
      px      :     0.051921
      py      :     0.065596
 35 H s       :     0.676386  s :     0.676386
      pz      :     0.073717  p :     0.181376
      px      :     0.039168
      py      :     0.068492


                      *****************************
                      * MAYER POPULATION ANALYSIS *
                      *****************************

  NA   - Mulliken gross atomic population
  ZA   - Total nuclear charge
  QA   - Mulliken gross atomic charge
  VA   - Mayer's total valence
  BVA  - Mayer's bonded valence
  FA   - Mayer's free valence

  ATOM       NA         ZA         QA         VA         BVA        FA
  0 O      8.7624     8.0000    -0.7624     1.7625     1.7625     0.0000
  1 H      0.6200     1.0000     0.3800     0.9196     0.9196     0.0000
  2 H      0.6337     1.0000     0.3663     0.9218     0.9218    -0.0000
  3 O      8.7424     8.0000    -0.7424     1.7772     1.7772     0.0000
  4 H      0.6174     1.0000     0.3826     0.8978     0.8978    -0.0000
  5 H      0.6299     1.0000     0.3701     0.9186     0.9186     0.0000
  6 O      8.7449     8.0000    -0.7449     1.7981     1.7981     0.0000
  7 H      0.6256     1.0000     0.3744     0.9126     0.9126     0.0000
  8 H      0.6164     1.0000     0.3836     0.8715     0.8715     0.0000
  9 O      8.7457     8.0000    -0.7457     1.7966     1.7966    -0.0000
 10 H      0.6261     1.0000     0.3739     0.9142     0.9142    -0.0000
 11 H      0.6167     1.0000     0.3833     0.8718     0.8718    -0.0000
 12 O      8.7268     8.0000    -0.7268     1.8336     1.8336     0.0000
 13 H      0.6122     1.0000     0.3878     0.8836     0.8836     0.0000
 14 H      0.6108     1.0000     0.3892     0.8663     0.8663     0.0000
 15 O      8.7599     8.0000    -0.7599     1.7574     1.7574     0.0000
 16 H      0.6326     1.0000     0.3674     0.9225     0.9225    -0.0000
 17 H      0.6352     1.0000     0.3648     0.9263     0.9263    -0.0000
 18 O      8.7676     8.0000    -0.7676     1.7510     1.7510     0.0000
 19 H      0.6208     1.0000     0.3792     0.9187     0.9187     0.0000
 20 H      0.6402     1.0000     0.3598     0.9319     0.9319     0.0000
 21 O      8.7741     8.0000    -0.7741     1.7505     1.7505    -0.0000
 22 H      0.6347     1.0000     0.3653     0.9246     0.9246    -0.0000
 23 H      0.6099     1.0000     0.3901     0.9117     0.9117     0.0000
 24 O      8.7266     8.0000    -0.7266     1.8327     1.8327    -0.0000
 25 H      0.6121     1.0000     0.3879     0.8675     0.8675    -0.0000
 26 H      0.6122     1.0000     0.3878     0.8831     0.8831    -0.0000
 27 O      8.7452     8.0000    -0.7452     1.7756     1.7756     0.0000
 28 H      0.6276     1.0000     0.3724     0.9140     0.9140    -0.0000
 29 H      0.6160     1.0000     0.3840     0.8970     0.8970    -0.0000
 30 O      8.7765     8.0000    -0.7765     1.7339     1.7339    -0.0000
 31 H      0.6435     1.0000     0.3565     0.9362     0.9362    -0.0000
 32 H      0.6122     1.0000     0.3878     0.9152     0.9152    -0.0000
 33 O      8.7590     8.0000    -0.7590     1.7653     1.7653    -0.0000
 34 H      0.6312     1.0000     0.3688     0.9204     0.9204     0.0000
 35 H      0.6318     1.0000     0.3682     0.9214     0.9214     0.0000

  Mayer bond orders larger than 0.1
B(  0-O ,  1-H ) :   0.7942 B(  0-O ,  2-H ) :   0.7780 B(  0-O , 20-H ) :   0.1417 
B(  1-H ,  9-O ) :   0.1108 B(  2-H , 30-O ) :   0.1307 B(  3-O ,  4-H ) :   0.8231 
B(  3-O ,  5-H ) :   0.8105 B(  3-O , 10-H ) :   0.1447 B(  5-H , 12-O ) :   0.1017 
B(  6-O ,  7-H ) :   0.7628 B(  6-O ,  8-H ) :   0.8539 B(  6-O , 19-H ) :   0.1039 
B(  7-H , 27-O ) :   0.1393 B(  9-O , 10-H ) :   0.7587 B(  9-O , 11-H ) :   0.8542 
B( 12-O , 13-H ) :   0.8028 B( 12-O , 14-H ) :   0.8504 B( 15-O , 16-H ) :   0.8142 
B( 15-O , 17-H ) :   0.8127 B( 15-O , 23-H ) :   0.1231 B( 17-H , 24-O ) :   0.1040 
B( 18-O , 19-H ) :   0.7991 B( 18-O , 20-H ) :   0.7714 B( 18-O , 22-H ) :   0.1291 
B( 21-O , 22-H ) :   0.7793 B( 21-O , 23-H ) :   0.7792 B( 21-O , 31-H ) :   0.1418 
B( 24-O , 25-H ) :   0.8514 B( 24-O , 26-H ) :   0.8024 B( 27-O , 28-H ) :   0.8141 
B( 27-O , 29-H ) :   0.8218 B( 30-O , 31-H ) :   0.7740 B( 30-O , 32-H ) :   0.7771 
B( 32-H , 33-O ) :   0.1284 B( 33-O , 34-H ) :   0.8155 B( 33-O , 35-H ) :   0.8150 


-------
TIMINGS
-------

Total SCF time: 0 days 0 hours 0 min 41 sec 

Total time                  ....      41.689 sec
Sum of individual times     ....      43.865 sec  (105.2%)

Fock matrix formation       ....      31.926 sec  ( 76.6%)
  Coulomb formation         ....      27.914 sec  ( 87.4% of F)
  Split-RI-J                ....       3.088 sec  (  9.7% of F)
  Chain of spheres X        ....      23.920 sec  ( 74.9% of F)
  COS-X 1 center corr.      ....       0.000 sec  (  0.0% of F)
  XC integration            ....       3.931 sec  ( 12.3% of F)
    Basis function eval.    ....       1.005 sec  ( 25.6% of XC)
    Density eval.           ....       0.831 sec  ( 21.1% of XC)
    XC-Functional eval.     ....       0.120 sec  (  3.0% of XC)
    XC-Potential eval.      ....       1.324 sec  ( 33.7% of XC)
Diagonalization             ....       0.604 sec  (  1.4%)
Density matrix formation    ....       0.048 sec  (  0.1%)
Population analysis         ....       0.399 sec  (  1.0%)
Initial guess               ....       1.193 sec  (  2.9%)
Orbital Transformation      ....       0.000 sec  (  0.0%)
Orbital Orthonormalization  ....       0.000 sec  (  0.0%)
DIIS solution               ....       0.217 sec  (  0.5%)
SOSCF solution              ....       0.729 sec  (  1.7%)
Grid generation             ....       2.789 sec  (  6.7%)
COSMO(total)                ....       5.958 sec  ( 14.3%)
   Initialization           ....       1.632 sec  ( 27.4% of COSMO)
   Potential evaluation     ....       2.221 sec  ( 37.3% of COSMO)
   Charge calculation       ....       0.402 sec  (  6.7% of COSMO)
   Fock-Matrix contrib.     ....       1.765 sec  ( 29.6% of COSMO)
   Outer-lying charge       ....       0.184 sec  (  3.1% of COSMO)
           ************************************************************
           *              Shut down parallel processing               *
           ************************************************************

Entering the calculation of the dispersion correction...

Checking the input atom types...

Done


-------------------------------------------------------------------------------
                          DFT DISPERSION CORRECTION                            
                                                                               
                                DFTD3 V2.1  Rev 6                               
                          USING Becke-Johnson damping                          
-------------------------------------------------------------------------------
The B3LYP functional is recognized
Active option DFTDOPT                   ...         4   

molecular C6(AA) [au] = 6408.157737 


            DFT-D V3
 parameters
 s6 scaling factor         :     1.0000 
 a1 scaling factor         :     0.3981 
 s8 scaling factor         :     1.9889 
 a2 scaling factor         :     4.4211 
 ad hoc parameters k1-k3   :    16.0000     1.3333    -4.0000 

 Edisp/kcal,au: -26.787489986122  -0.042688577999 
 E6   /kcal   : -14.793131991 
 E8   /kcal   : -11.994357995 
 % E8         :  44.775968189 

-------------------------   ----------------
Dispersion correction           -0.042688578
-------------------------   ----------------


-------------------------   --------------------
FINAL SINGLE POINT ENERGY      -917.379567161315
-------------------------   --------------------


                            ***************************************
                            *     ORCA property calculations      *
                            ***************************************

                                    ---------------------
                                    Active property flags
                                    ---------------------
   (+) Dipole Moment


------------------------------------------------------------------------------
                       ORCA ELECTRIC PROPERTIES CALCULATION
------------------------------------------------------------------------------

Dipole Moment Calculation                       ... on
Quadrupole Moment Calculation                   ... off
Polarizability Calculation                      ... off
GBWName                                         ... 3_B3LYP_SMD_onB3LYP_SMD_12_waters.gbw
Electron density file                           ... 3_B3LYP_SMD_onB3LYP_SMD_12_waters.scfp.tmp

-------------
DIPOLE MOMENT
-------------
                                X             Y             Z
Electronic contribution:     -0.01897       0.02618      -0.00012
Nuclear contribution   :     -0.00072      -0.03175       0.03354
                        -----------------------------------------
Total Dipole Moment    :     -0.01969      -0.00557       0.03342
                        -----------------------------------------
Magnitude (a.u.)       :      0.03919
Magnitude (Debye)      :      0.09961

smp-n33.crc.pitt.edu.40747hfi_wait_for_device: The /dev/hfi1_0 device failed to appear after 15.0 seconds: Connection timed out
smp-n33.crc.pitt.edu.40749hfi_wait_for_device: The /dev/hfi1_0 device failed to appear after 15.0 seconds: Connection timed out
smp-n33.crc.pitt.edu.40751hfi_wait_for_device: The /dev/hfi1_0 device failed to appear after 15.0 seconds: Connection timed out
smp-n33.crc.pitt.edu.40750hfi_wait_for_device: The /dev/hfi1_0 device failed to appear after 15.0 seconds: Connection timed out
smp-n33.crc.pitt.edu.40752hfi_wait_for_device: The /dev/hfi1_0 device failed to appear after 15.0 seconds: Connection timed out
smp-n33.crc.pitt.edu.40748hfi_wait_for_device: The /dev/hfi1_0 device failed to appear after 15.0 seconds: Connection timed out
smp-n33.crc.pitt.edu.40757hfi_wait_for_device: The /dev/hfi1_0 device failed to appear after 15.0 seconds: Connection timed out
smp-n33.crc.pitt.edu.40755hfi_wait_for_device: The /dev/hfi1_0 device failed to appear after 15.0 seconds: Connection timed out
smp-n33.crc.pitt.edu.40753hfi_wait_for_device: The /dev/hfi1_0 device failed to appear after 15.0 seconds: Connection timed out
smp-n33.crc.pitt.edu.40754hfi_wait_for_device: The /dev/hfi1_0 device failed to appear after 15.0 seconds: Connection timed out
smp-n33.crc.pitt.edu.40756hfi_wait_for_device: The /dev/hfi1_0 device failed to appear after 15.0 seconds: Connection timed out
smp-n33.crc.pitt.edu.40758hfi_wait_for_device: The /dev/hfi1_0 device failed to appear after 15.0 seconds: Connection timed out

Timings for individual modules:

Sum of individual times         ...       74.372 sec (=   1.240 min)
GTO integral calculation        ...       15.709 sec (=   0.262 min)  21.1 %
SCF iterations                  ...       58.663 sec (=   0.978 min)  78.9 %
                             ****ORCA TERMINATED NORMALLY****
TOTAL RUN TIME: 0 days 0 hours 1 minutes 29 seconds 877 msec
cp: cannot stat ‘/scratch/slurm-1328776/*.{prop}’: No such file or directory
