22
Energy:   -369.67848361
Na   0.78981867   0.97169380  -0.24206676
O    2.90330555   0.08016774   0.23322105
H    3.26516346  -0.26807466   1.04809400
H    3.58239254  -0.08501317  -0.42083398
O    0.86511761   0.79774833  -2.56497196
H    0.31031172   0.37157707  -3.21827152
H    1.28133847   1.51884372  -3.03721499
O    0.93152214   3.33497791   0.04047938
H    1.70670357   3.85292562   0.25740278
H    0.21762704   3.97196831   0.01168930
C   -1.45202736  -1.21225837   3.93967032
H   -0.79694476  -1.40666140   4.76306233
H   -1.70848804  -2.13492661   3.46237552
H   -2.34133022  -0.73587245   4.29617555
C   -0.74581239  -0.29014873   2.92844619
N   -0.22000324   0.39640381   2.17554387
C   -2.61801528  -2.48387506  -2.15482583
H   -3.56904473  -2.13290696  -1.81238670
H   -2.55802959  -3.54325432  -2.01692587
H   -2.50528161  -2.25244082  -3.19339620
C   -1.49782856  -1.79738365  -1.35138868
N   -0.66379864  -1.28625958  -0.75319319
