22
Energy:   -371.45134879
Na   0.02033797   0.38669357  -0.04080648
O   -1.00611215   2.40186788  -0.35920516
H   -1.63989201   2.72510715  -0.99957327
H   -0.74125390   3.18054101   0.13043769
O    2.14634987   0.82833098  -0.74602406
H    2.69700294   1.19462330  -0.05403925
H    2.66265880   0.93445028  -1.54502070
O   -1.17166118  -1.31041376   1.17619569
H   -1.38185424  -1.59428678   2.06583991
H   -1.07586846  -2.12396276   0.68102538
C   -0.95961128  -1.67537268  -4.78896567
H   -0.10217959  -2.11954915  -5.24985431
H   -1.32071565  -0.87659807  -5.40253054
H   -1.72631997  -2.41317521  -4.67625227
C   -0.57046353  -1.12384385  -3.40477639
N   -0.28072535  -0.71320556  -2.37418454
C    0.64987140  -0.15818101   4.72424472
H    0.39892353   0.61551142   5.41946078
H    1.53510233  -0.66066990   5.05404799
H   -0.15653793  -0.85887678   4.66400758
C    0.89760499   0.45996785   3.33567709
N    1.08205391   0.92020777   2.30182538
