22
Energy:   -369.80286626
Na   0.32057872  -0.60700011   0.88706723
O   -0.64215536   3.46613720   0.68689452
H   -1.57377653   3.68365301   0.65526056
H   -0.21048690   4.19377743   0.23919608
O    1.05645021   1.47173450   1.75784624
H    1.77108508   1.77958615   2.31530136
H    0.63365791   2.27184456   1.44591290
O   -0.47111405  -2.36406962   2.18508638
H    0.09742201  -3.07847518   2.47252906
H   -1.31787182  -2.55383165   2.58909566
C   -3.44142195   1.46938545  -1.84868477
H   -3.87478748   2.14455355  -1.14069993
H   -4.19879913   0.81546242  -2.22771454
H   -3.01363629   2.02570134  -2.65640449
C   -2.34333217   0.63812794  -1.15962034
N   -1.52575442   0.01921894  -0.64658055
C    3.38037094  -3.30673898  -2.07536009
H    4.06691738  -2.69562727  -2.62317085
H    2.64684714  -3.70650695  -2.74396124
H    3.91180902  -4.10916301  -1.60782576
C    2.68310842  -2.45602373  -0.99753426
N    2.16396477  -1.82262755  -0.19504393
