22
Energy:   -382.42194506
Na   0.15669493   0.36569142   1.69645208
O    0.37168239   0.44817645   3.99633060
H   -0.11404153  -0.12875434   4.58578372
H    0.87815866   1.01465269   4.57841161
O    0.25625398   2.39188396   0.57037050
H    0.83231149   2.53328636  -0.18089174
H   -0.19158226   3.22930565   0.69036824
O    1.78153096  -0.70514063   0.46178245
H    1.85181593  -0.42144114  -0.44970341
H    2.43704112  -1.39719552   0.54895072
C    2.11317908  -0.12854971  -4.86346885
H    2.74347418  -0.98241524  -4.99963763
H    2.56937208   0.72724488  -5.31557796
H    1.16316689  -0.30987609  -5.32117692
C    1.91675544   0.12964876  -3.35802828
N    1.77050912   0.32188926  -2.23715935
C   -4.29742004  -1.76546164   0.61432315
H   -4.57164427  -2.54125616   1.29831445
H   -4.18329225  -2.17835499  -0.36618336
H   -5.06161386  -1.01667559   0.59927839
C   -2.96713063  -1.13233073   1.06273740
N   -1.97666969  -0.66093599   1.39660218
