22
Energy:   -385.76489641
Na   0.21733815  -0.11172512   0.08462245
O    1.34382213   0.38790452   2.08725386
H    0.92840591   0.13326337   2.91115865
H    2.16504419   0.80306794   2.35081696
O   -1.12454958  -0.15721174   4.00785049
H   -1.28885800   0.70746013   4.38411786
H   -1.46333078  -0.77089443   4.65965774
O   -1.47520491  -0.98537242   1.38257571
H   -2.21817124  -1.58398423   1.30578519
H   -1.45287399  -0.74827038   2.30967646
C    1.65881439  -3.41416796  -3.43777532
H    1.64348108  -4.40197114  -3.02678877
H    2.65260389  -3.17481133  -3.75398715
H    0.99639445  -3.36659326  -4.27672440
C    1.20395764  -2.40543462  -2.36671865
N    0.86529612  -1.65438681  -1.56926827
C   -0.61716871   4.01101903  -2.78147324
H   -0.84288829   3.71831916  -3.78560353
H    0.27812782   4.59691907  -2.77345106
H   -1.42622518   4.59057134  -2.38847728
C   -0.41642209   2.75490562  -1.91344104
N   -0.26695712   1.81967209  -1.26715161
