22
Energy:   -390.46493556
Na   0.79119795   0.59253533  -0.85508301
O    1.73178969   2.38783487  -1.97280103
H    2.40585839   2.35093744  -2.65140387
H    1.54524082   3.32107210  -1.87033322
O   -1.51292293   0.44498311  -0.81941179
H   -2.26386451   0.36962207  -1.40817260
H   -1.89417217   0.43338338   0.05850980
O    0.78602896   0.65554141   1.45316263
H    1.38469448   0.70376939   2.19848505
H   -0.08427383   0.59914681   1.84765540
C    3.17270926  -3.37787713  -2.89617388
H    2.78708509  -4.25650357  -2.42266596
H    4.22681431  -3.31343239  -2.72410263
H    2.98553185  -3.42846874  -3.94845911
C    2.47999082  -2.13324780  -2.31082016
N    1.96423046  -1.20656468  -1.87499770
C   -3.93437735   0.35759668   3.94574369
H   -3.55954287   0.81033111   4.83985265
H   -4.18797759  -0.66320001   4.14211101
H   -4.80566329   0.88472335   3.61726636
C   -2.85486163   0.41651342   2.84903286
N   -2.05111311   0.46037962   2.03248180
