22
Energy:   -369.58622896
Na  -0.96794528  -1.01529766   0.14609228
O   -0.49035218  -2.50156142   1.89942363
H   -1.11499883  -2.42210490   2.62035016
H    0.26756489  -2.94028667   2.28583497
O   -0.23069792  -2.59059546  -1.53878173
H    0.17637471  -2.31701992  -2.36077938
H   -0.58025307  -3.46251658  -1.72262029
O   -3.24458879   0.04524280   0.33981727
H   -3.50182392   0.94394184   0.54573462
H   -4.03661734  -0.35481315  -0.01917835
C   -0.20252848   3.51893265  -1.96614606
H   -0.70831503   3.77720152  -2.87299628
H    0.85500370   3.55342239  -2.12531654
H   -0.47044410   4.21391598  -1.19795436
C   -0.61103223   2.09732011  -1.53749415
N   -0.91518184   1.03886495  -1.21834333
C    3.81045876   0.71944995   1.42349207
H    4.21065894   1.18440027   0.54681585
H    4.37748965  -0.15872970   1.65191175
H    3.86400047   1.40239151   2.24545509
C    2.34130638   0.33126528   1.17348416
N    1.24745566   0.04224415   0.98734190
