22
Energy:   -390.46494694
Na  -1.11116202   0.35009522  -0.59241979
O   -0.57597368  -1.59569414   0.52984727
H   -0.96651272  -2.25927009   1.09851068
H    0.33933933  -1.86213781   0.44358200
O   -2.78079938   0.23897211  -2.19150317
H   -3.55457628   0.79919799  -2.25190287
H   -2.86147435  -0.36231978  -2.93188919
O    1.07161654   0.47870798  -1.33467204
H    1.64828197   1.03290634  -1.86055512
H    1.63644698  -0.22901628  -1.02430967
C   -2.61743567   4.18566922   2.34379263
H   -2.68178443   5.09073589   1.77668264
H   -1.88570707   4.29993599   3.11607201
H   -3.56929482   3.97164381   2.78317445
C   -2.20799743   3.02662560   1.41611908
N   -1.90315204   2.16366495   0.72542396
C    4.46955645  -3.33821506   0.23590178
H    4.20441023  -4.36831118   0.35208981
H    4.98825934  -3.00270213   1.10955931
H    5.10272186  -3.22718864  -0.61947754
C    3.19333722  -2.49832806   0.04237059
N    2.24313400  -1.87299402  -0.10172217
