22
Energy:   -384.58669297
Na   0.70339699  -0.52259355  -0.19359465
O    0.04707332  -2.14172227  -1.71445238
H   -0.77796455  -2.62702637  -1.71938172
H    0.57387813  -2.55703379  -2.39725901
O   -1.06411075  -0.52085239   1.26575908
H   -1.64600725   0.22627743   1.12638427
H   -1.38351751  -0.92674779   2.07164995
O    0.64856151   1.75998088  -0.65756000
H    1.31663392   2.43600296  -0.77116133
H   -0.17829868   2.24154159  -0.63239349
C   -5.01839458   2.73734118  -0.06045088
H   -5.04245395   3.35663260  -0.93268907
H   -5.29649304   3.31595153   0.79556922
H   -5.70486005   1.92539268  -0.18046703
C   -3.59551352   2.18185603   0.13562495
N   -2.53611389   1.76827208   0.28161232
C    5.40371607  -2.13870921   0.88847528
H    5.86397409  -1.47857759   1.59366247
H    5.97759021  -2.15232892  -0.01450981
H    5.36133127  -3.12588718   1.29906299
C    3.97633868  -1.64840386   0.58221645
N    2.91359134  -1.28334925   0.35419283
