22
Energy:   -391.92769039
Na   0.32926263  -0.18851347   0.17414056
O    0.50076450   1.76919825   1.44173343
H    0.03834016   1.97970211   2.25295702
H    0.94137896   2.58338818   1.19845275
O    2.16276892  -1.25061591   1.13667192
H    2.73984809  -0.91548844   1.82289423
H    2.50896553  -2.12001618   0.93536881
O   -0.21182289  -1.93216262  -1.28747216
H   -0.84915122  -2.63247937  -1.14746899
H    0.05375402  -2.02866577  -2.20201461
C    1.82907075   2.51262632  -3.89226562
H    1.00075994   2.63566821  -4.55834526
H    2.61844873   1.99539056  -4.39649637
H    2.17759593   3.47332143  -3.57525742
C    1.38348838   1.69728658  -2.66414614
N    1.05173206   1.09022908  -1.74975536
C   -3.90312305  -1.31815106   2.79941297
H   -4.01459116  -0.63076857   3.61180473
H   -3.83369264  -2.31481683   3.18247414
H   -4.75055103  -1.24372091   2.15039443
C   -2.62295510  -0.98013750   2.01295455
N   -1.66981187  -0.72847104   1.42740050
