
                                 *****************
                                 * O   R   C   A *
                                 *****************

           --- An Ab Initio, DFT and Semiempirical electronic structure package ---

                  #######################################################
                  #                        -***-                        #
                  #  Department of molecular theory and spectroscopy    #
                  #              Directorship: Frank Neese              #
                  # Max Planck Institute for Chemical Energy Conversion #
                  #                  D-45470 Muelheim/Ruhr              #
                  #                       Germany                       #
                  #                                                     #
                  #                  All rights reserved                #
                  #                        -***-                        #
                  #######################################################


                         Program Version 3.0.3 - RELEASE   -


 With contributions from (in alphabetic order):
   Ute Becker             : Parallelization
   Dmytro Bykov           : SCF Hessian
   Dmitry Ganyushin       : Spin-Orbit,Spin-Spin,Magnetic field MRCI
   Andreas Hansen         : Spin unrestricted coupled pair/coupled cluster methods
   Dimitrios Liakos       : Extrapolation schemes; parallel MDCI
   Robert Izsak           : Overlap fitted RIJCOSX, COSX-SCS-MP3
   Christian Kollmar      : KDIIS, OOCD, Brueckner-CCSD(T), CCSD density
   Simone Kossmann        : Meta GGA functionals, TD-DFT gradient, OOMP2, MP2 Hessian
   Taras Petrenko         : DFT Hessian,TD-DFT gradient, ASA and ECA modules, normal mode analysis, Resonance Raman, ABS, FL, XAS/XES, NRVS
   Christoph Reimann      : Effective Core Potentials
   Michael Roemelt        : Restricted open shell CIS
   Christoph Riplinger    : Improved optimizer, TS searches, QM/MM, DLPNO-CCSD
   Barbara Sandhoefer     : DKH picture change effects
   Igor Schapiro          : Molecular dynamics
   Kantharuban Sivalingam : CASSCF convergence, NEVPT2
   Boris Wezisla          : Elementary symmetry handling
   Frank Wennmohs         : Technical directorship


 We gratefully acknowledge several colleagues who have allowed us to
 interface, adapt or use parts of their codes:
   Stefan Grimme, W. Hujo, H. Kruse, T. Risthaus : VdW corrections, initial TS optimization,
                                                   DFT functionals, gCP
   Ed Valeev                                     : LibInt (2-el integral package), F12 methods
   Garnet Chan, S. Sharma, R. Olivares           : DMRG
   Ulf Ekstrom                                   : XCFun DFT Library
   Mihaly Kallay                                 : mrcc  (arbitrary order and MRCC methods)
   Andreas Klamt, Michael Diedenhofen            : otool_cosmo (COSMO solvation model)
   Frank Weinhold                                : gennbo (NPA and NBO analysis)
   Christopher J. Cramer and Donald G. Truhlar   : smd solvation model


 Your calculation uses the libint2 library for the computation of 2-el integrals
 For citations please refer to: http://libint.valeyev.net

 This ORCA versions uses:
   CBLAS   interface :  Fast vector & matrix operations
   LAPACKE interface :  Fast linear algebra routines
   SCALAPACK package :  Parallel linear algebra routines


Your calculation utilizes the basis: Ahlrichs-TZV
Cite in your paper:
H - Kr: A. Schaefer, H. Horn and R. Ahlrichs, J. Chem. Phys. 97, 2571 (1992).

The def2-TZV basis will be loaded
Cite in your paper:
 	F. Weigend, R. Ahlrichs, Phys. Chem. Chem. Phys. 2005, 7, 3297.

Your calculation utilizes the atom-pairwise dispersion correction
with the Becke-Johnson damping scheme (D3BJ)
Cite in your paper:
S.Grimme, S.Ehrlich, L.Goerigk, J Comput Chem, (2011), 32, 1456–1465 
S.Grimme, J.Antony, S.Ehrlich and H.Krieg, J.Chem.Phys., 132, (2010), 154104 
   

================================================================================
                                        WARNINGS
                       Please study these warnings very carefully!
================================================================================
Now building the actual basis set


INFO   : the flag for use of LIBINT has been found!

================================================================================
                                       INPUT FILE
================================================================================
NAME = 1_B3LYP_GasPhase_onBP86_4_waters.inp
|  1> ! B3LYP Def2-TZVP def2-TZVP/J RIJCOSX TightSCF Grid4 D3BJ
|  2> 
|  3> %pal nprocs 12 end
|  4> 
|  5> %scf
|  6>         maxiter 400
|  7> end
|  8> 
|  9> * xyz  0  1
| 10> O  1.207940	-1.399164	0.315023
| 11> H  0.893517	-2.306586	0.142832
| 12> H  0.475050	-1.001883	0.899830
| 13> O  -1.161193	1.466910	-0.261679
| 14> H  -2.011260	1.195014	-0.655828
| 15> H  -0.478020	1.051450	-0.888968
| 16> O  0.580453	0.137264	-1.740469
| 17> H  1.377009	0.655683	-1.958338
| 18> H  0.901498	-0.502548	-1.017754
| 19> O  -0.650895	-0.180892	1.740035
| 20> H  -0.912111	0.507134	1.036657
| 21> H  -0.180452	0.348675	2.410744
| 22> **                         ****END OF INPUT****
================================================================================

                       ****************************
                       * Single Point Calculation *
                       ****************************

---------------------------------
CARTESIAN COORDINATES (ANGSTROEM)
---------------------------------
  O      1.207940   -1.399164    0.315023
  H      0.893517   -2.306586    0.142832
  H      0.475050   -1.001883    0.899830
  O     -1.161193    1.466910   -0.261679
  H     -2.011260    1.195014   -0.655828
  H     -0.478020    1.051450   -0.888968
  O      0.580453    0.137264   -1.740469
  H      1.377009    0.655683   -1.958338
  H      0.901498   -0.502548   -1.017754
  O     -0.650895   -0.180892    1.740035
  H     -0.912111    0.507134    1.036657
  H     -0.180452    0.348675    2.410744

----------------------------
CARTESIAN COORDINATES (A.U.)
----------------------------
  NO LB      ZA    FRAG    MASS        X           Y           Z
   0 O     8.0000    0    15.999          2.282675786208837         -2.644036776441794          0.595307195886274
   1 H     1.0000    0     1.008          1.688502426002915         -4.358815844336884          0.269913363160240
   2 H     1.0000    0     1.008          0.897714399919291         -1.893284488231425          1.700432267086360
   3 O     8.0000    0    15.999         -2.194336758626420          2.772058163110423         -0.494501644998379
   4 H     1.0000    0     1.008         -3.800730584110457          2.258249186201771         -1.239335310957307
   5 H     1.0000    0     1.008         -0.903326886537037          1.986952543511500         -1.679906061819707
   6 O     8.0000    0    15.999          1.096897203612992          0.259391368046567         -3.289009754579787
   7 H     1.0000    0     1.008          2.602169893944769          1.239061300667888         -3.700722497651076
   8 H     1.0000    0     1.008          1.703584330277740         -0.949678089149857         -1.923276331702890
   9 O     8.0000    0    15.999         -1.230013291938673         -0.341836339817283          3.288189613437665
  10 H     1.0000    0     1.008         -1.723639993737047          0.958344373200020          1.958997824812403
  11 H     1.0000    0     1.008         -0.341004860318358          0.658900259744992          4.555645938993854

--------------------------------
INTERNAL COORDINATES (ANGSTROEM)
--------------------------------
 O      0   0   0   0.000000     0.000     0.000
 H      1   0   0   0.975667     0.000     0.000
 H      1   2   0   1.018312   103.430     0.000
 O      3   1   2   3.181404   117.596   243.549
 H      4   3   1   0.975651   112.293    97.753
 H      4   3   1   1.016279    64.048     3.865
 O      6   4   3   1.637423   169.662    25.745
 H      7   6   4   0.975052   110.331   220.514
 H      7   6   4   1.017225   100.703   329.507
 O      3   1   2   1.627182   172.477   212.732
 H     10   3   1   1.018015    99.311    32.606
 H     10   3   1   0.975504   107.171   285.352

---------------------------
INTERNAL COORDINATES (A.U.)
---------------------------
 O      0   0   0   0.000000     0.000     0.000
 H      1   0   0   1.843744     0.000     0.000
 H      1   2   0   1.924331   103.430     0.000
 O      3   1   2   6.011983   117.596   243.549
 H      4   3   1   1.843713   112.293    97.753
 H      4   3   1   1.920490    64.048     3.865
 O      6   4   3   3.094282   169.662    25.745
 H      7   6   4   1.842581   110.331   220.514
 H      7   6   4   1.922276   100.703   329.507
 O      3   1   2   3.074929   172.477   212.732
 H     10   3   1   1.923769    99.311    32.606
 H     10   3   1   1.843436   107.171   285.352

---------------------
BASIS SET INFORMATION
---------------------
There are 2 groups of distinct atoms

 Group   1 Type O   : 11s6p2d1f contracted to 5s3p2d1f pattern {62111/411/11/1}
 Group   2 Type H   : 5s1p contracted to 3s1p pattern {311/1}

Atom   0O    basis set group =>   1
Atom   1H    basis set group =>   2
Atom   2H    basis set group =>   2
Atom   3O    basis set group =>   1
Atom   4H    basis set group =>   2
Atom   5H    basis set group =>   2
Atom   6O    basis set group =>   1
Atom   7H    basis set group =>   2
Atom   8H    basis set group =>   2
Atom   9O    basis set group =>   1
Atom  10H    basis set group =>   2
Atom  11H    basis set group =>   2
-------------------------------
AUXILIARY BASIS SET INFORMATION
-------------------------------
There are 2 groups of distinct atoms

 Group   1 Type O   : 12s5p4d2f1g contracted to 6s4p3d1f1g pattern {711111/2111/211/2/1}
 Group   2 Type H   : 5s2p1d contracted to 3s1p1d pattern {311/2/1}

Atom   0O    basis set group =>   1
Atom   1H    basis set group =>   2
Atom   2H    basis set group =>   2
Atom   3O    basis set group =>   1
Atom   4H    basis set group =>   2
Atom   5H    basis set group =>   2
Atom   6O    basis set group =>   1
Atom   7H    basis set group =>   2
Atom   8H    basis set group =>   2
Atom   9O    basis set group =>   1
Atom  10H    basis set group =>   2
Atom  11H    basis set group =>   2
smp-n47.crc.pitt.edu.375185hfi_wait_for_device: The /dev/hfi1_0 device failed to appear after 15.0 seconds: Connection timed out
smp-n47.crc.pitt.edu.375189hfi_wait_for_device: The /dev/hfi1_0 device failed to appear after 15.0 seconds: Connection timed out
smp-n47.crc.pitt.edu.375197hfi_wait_for_device: The /dev/hfi1_0 device failed to appear after 15.0 seconds: Connection timed out
smp-n47.crc.pitt.edu.375201hfi_wait_for_device: The /dev/hfi1_0 device failed to appear after 15.0 seconds: Connection timed out
smp-n47.crc.pitt.edu.375191hfi_wait_for_device: The /dev/hfi1_0 device failed to appear after 15.0 seconds: Connection timed out
smp-n47.crc.pitt.edu.375193hfi_wait_for_device: The /dev/hfi1_0 device failed to appear after 15.0 seconds: Connection timed out
smp-n47.crc.pitt.edu.375183hfi_wait_for_device: The /dev/hfi1_0 device failed to appear after 15.0 seconds: Connection timed out
smp-n47.crc.pitt.edu.375195hfi_wait_for_device: The /dev/hfi1_0 device failed to appear after 15.0 seconds: Connection timed out
smp-n47.crc.pitt.edu.375199hfi_wait_for_device: The /dev/hfi1_0 device failed to appear after 15.0 seconds: Connection timed out
smp-n47.crc.pitt.edu.375187hfi_wait_for_device: The /dev/hfi1_0 device failed to appear after 15.0 seconds: Connection timed out
smp-n47.crc.pitt.edu.375203hfi_wait_for_device: The /dev/hfi1_0 device failed to appear after 15.0 seconds: Connection timed out
smp-n47.crc.pitt.edu.375184hfi_wait_for_device: The /dev/hfi1_0 device failed to appear after 15.0 seconds: Connection timed out


           ************************************************************
           *        Program running with 12 parallel MPI-processes    *
           *              working on a common directory               *
           ************************************************************
------------------------------------------------------------------------------
                           ORCA GTO INTEGRAL CALCULATION
                           -- RI-GTO INTEGRALS CHOSEN --
------------------------------------------------------------------------------

                         BASIS SET STATISTICS AND STARTUP INFO

Gaussian basis set:
 # of primitive gaussian shells          ...  128
 # of primitive gaussian functions       ...  248
 # of contracted shells                  ...   76
 # of contracted basis functions         ...  172
 Highest angular momentum                ...    3
 Maximum contraction depth               ...    6
Auxiliary gaussian basis set:
 # of primitive gaussian shells          ...  160
 # of primitive gaussian functions       ...  408
 # of contracted shells                  ...  100
 # of contracted aux-basis functions     ...  284
 Highest angular momentum                ...    4
 Maximum contraction depth               ...    7
Ratio of auxiliary to basis functions    ...  1.65
Integral package used                  ... LIBINT
 One Electron integrals                  ... done
 Ordering auxiliary basis shells         ... done
 Integral threshhold             Thresh  ...  2.500e-11
 Primitive cut-off               TCut    ...  2.500e-12
 Pre-screening matrix                    ... done
 Shell pair data                         ... 
 Ordering of the shell pairs             ... done (   0.000 sec) 2698 of 2926 pairs
 Determination of significant pairs      ... done (   0.000 sec)
 Creation of shell pair data             ... done (   0.000 sec)
 Storage of shell pair data              ... done (   0.000 sec)
 Shell pair data done in (   0.001 sec)
 Computing two index integrals           ... done
 Cholesky decomposition of the V-matrix  ... done


Timings:
 Total evaluation time                   ...   0.116 sec (  0.002 min)
 One electron matrix time                ...   0.011 sec (  0.000 min) =  9.6%
 Schwartz matrix evaluation time         ...   0.084 sec (  0.001 min) = 72.5%
 Two index repulsion integral time       ...   0.004 sec (  0.000 min) =  3.6%
 Cholesky decomposition of V             ...   0.002 sec (  0.000 min) =  1.3%
 Three index repulsion integral time     ...   0.000 sec (  0.000 min) =  0.0%

           ************************************************************
           *              Shut down parallel processing               *
           ************************************************************
smp-n47.crc.pitt.edu.375227hfi_wait_for_device: The /dev/hfi1_0 device failed to appear after 15.0 seconds: Connection timed out
smp-n47.crc.pitt.edu.375209hfi_wait_for_device: The /dev/hfi1_0 device failed to appear after 15.0 seconds: Connection timed out
smp-n47.crc.pitt.edu.375211hfi_wait_for_device: The /dev/hfi1_0 device failed to appear after 15.0 seconds: Connection timed out
smp-n47.crc.pitt.edu.375217hfi_wait_for_device: The /dev/hfi1_0 device failed to appear after 15.0 seconds: Connection timed out
smp-n47.crc.pitt.edu.375219hfi_wait_for_device: The /dev/hfi1_0 device failed to appear after 15.0 seconds: Connection timed out
smp-n47.crc.pitt.edu.375223hfi_wait_for_device: The /dev/hfi1_0 device failed to appear after 15.0 seconds: Connection timed out
smp-n47.crc.pitt.edu.375215hfi_wait_for_device: The /dev/hfi1_0 device failed to appear after 15.0 seconds: Connection timed out
smp-n47.crc.pitt.edu.375210hfi_wait_for_device: The /dev/hfi1_0 device failed to appear after 15.0 seconds: Connection timed out
smp-n47.crc.pitt.edu.375221hfi_wait_for_device: The /dev/hfi1_0 device failed to appear after 15.0 seconds: Connection timed out
smp-n47.crc.pitt.edu.375213hfi_wait_for_device: The /dev/hfi1_0 device failed to appear after 15.0 seconds: Connection timed out
smp-n47.crc.pitt.edu.375225hfi_wait_for_device: The /dev/hfi1_0 device failed to appear after 15.0 seconds: Connection timed out
smp-n47.crc.pitt.edu.375230hfi_wait_for_device: The /dev/hfi1_0 device failed to appear after 15.0 seconds: Connection timed out


           ************************************************************
           *        Program running with 12 parallel MPI-processes    *
           *              working on a common directory               *
           ************************************************************
-------------------------------------------------------------------------------
                                 ORCA SCF
-------------------------------------------------------------------------------

------------
SCF SETTINGS
------------
Hamiltonian:
 Density Functional     Method          .... DFT(GTOs)
 Exchange Functional    Exchange        .... B88
   X-Alpha parameter    XAlpha          ....  0.666667
   Becke's b parameter  XBeta           ....  0.004200
 Correlation Functional Correlation     .... LYP
 LDA part of GGA corr.  LDAOpt          .... VWN-5
 Gradients option       PostSCFGGA      .... off
 Hybrid DFT is turned on
   Fraction HF Exchange ScalHFX         ....  0.200000
   Scaling of DF-GGA-X  ScalDFX         ....  0.720000
   Scaling of DF-GGA-C  ScalDFC         ....  0.810000
   Scaling of DF-LDA-C  ScalLDAC        ....  1.000000
   Perturbative correction              ....  0.000000
   NL short-range parameter             ....  4.800000
 RI-approximation to the Coulomb term is turned on
   Number of auxiliary basis functions  .... 284
   RIJ-COSX (HFX calculated with COS-X)).... on


General Settings:
 Integral files         IntName         .... 1_B3LYP_GasPhase_onBP86_4_waters
 Hartree-Fock type      HFTyp           .... RHF
 Total Charge           Charge          ....    0
 Multiplicity           Mult            ....    1
 Number of Electrons    NEL             ....   40
 Basis Dimension        Dim             ....  172
 Nuclear Repulsion      ENuc            ....    145.6081887902 Eh

Convergence Acceleration:
 DIIS                   CNVDIIS         .... on
   Start iteration      DIISMaxIt       ....    12
   Startup error        DIISStart       ....  0.200000
   # of expansion vecs  DIISMaxEq       ....     5
   Bias factor          DIISBfac        ....   1.050
   Max. coefficient     DIISMaxC        ....  10.000
 Newton-Raphson         CNVNR           .... off
 SOSCF                  CNVSOSCF        .... on
   Start iteration      SOSCFMaxIt      ....   150
   Startup grad/error   SOSCFStart      ....  0.003300
 Level Shifting         CNVShift        .... on
   Level shift para.    LevelShift      ....    0.2500
   Turn off err/grad.   ShiftErr        ....    0.0010
 Zerner damping         CNVZerner       .... off
 Static damping         CNVDamp         .... on
   Fraction old density DampFac         ....    0.7000
   Max. Damping (<1)    DampMax         ....    0.9800
   Min. Damping (>=0)   DampMin         ....    0.0000
   Turn off err/grad.   DampErr         ....    0.1000
 Fernandez-Rico         CNVRico         .... off

SCF Procedure:
 Maximum # iterations   MaxIter         ....   400
 SCF integral mode      SCFMode         .... Direct
   Integral package                     .... LIBINT
 Reset frequeny         DirectResetFreq ....    20
 Integral Threshold     Thresh          ....  2.500e-11 Eh
 Primitive CutOff       TCut            ....  2.500e-12 Eh

Convergence Tolerance:
 Convergence Check Mode ConvCheckMode   .... Total+1el-Energy
 Energy Change          TolE            ....  1.000e-08 Eh
 1-El. energy change                    ....  1.000e-05 Eh
 Orbital Gradient       TolG            ....  1.000e-05
 Orbital Rotation angle TolX            ....  1.000e-05
 DIIS Error             TolErr          ....  5.000e-07


Diagonalization of the overlap matrix:
Smallest eigenvalue                        ... 3.223e-03
Time for diagonalization                   ...    0.005 sec
Threshold for overlap eigenvalues          ... 1.000e-08
Number of eigenvalues below threshold      ... 0
Time for construction of square roots      ...    0.002 sec
Total time needed                          ...    0.007 sec

-------------------
DFT GRID GENERATION
-------------------

General Integration Accuracy     IntAcc      ...  4.670
Radial Grid Type                 RadialGrid  ... Gauss-Chebyshev
Angular Grid (max. acc.)         AngularGrid ... Lebedev-302
Angular grid pruning method      GridPruning ... 3 (G Style)
Weight generation scheme         WeightScheme... Becke
Basis function cutoff            BFCut       ...    1.0000e-11
Integration weight cutoff        WCut        ...    1.0000e-14
Grids for H and He will be reduced by one unit

# of grid points (after initial pruning)     ...  52000 (   0.0 sec)
# of grid points (after weights+screening)   ...  49029 (   0.0 sec)
nearest neighbour list constructed           ...    0.0 sec
Grid point re-assignment to atoms done       ...    0.0 sec
Grid point division into batches done        ...    0.1 sec
Reduced shell lists constructed in    0.1 sec

Total number of grid points                  ...    49029
Total number of batches                      ...      771
Average number of points per batch           ...       63
Average number of grid points per atom       ...     4086
Average number of shells per batch           ...    48.74 (64.13%)
Average number of basis functions per batch  ...   104.62 (60.83%)
Average number of large shells per batch     ...    37.32 (76.56%)
Average number of large basis fcns per batch ...    74.41 (71.12%)
Maximum spatial batch extension              ...  11.58, 12.05, 12.05 au
Average spatial batch extension              ...   0.15,  0.15,  0.16 au

Time for grid setup =    0.170 sec

------------------------------
INITIAL GUESS: MODEL POTENTIAL
------------------------------
Loading Hartree-Fock densities                     ... done
Calculating cut-offs                               ... done
Setting up the integral package                    ... done
Initializing the effective Hamiltonian             ... done
Starting the Coulomb interaction                   ... done (   0.0 sec)
Reading the grid                                   ... done
Mapping shells                                     ... done
Starting the XC term evaluation                    ... done (   0.0 sec)
  promolecular density results
     # of electrons  =     39.996165694
     EX              =    -35.146524028
     EC              =     -1.370550129
     EX+EC           =    -36.517074157
Transforming the Hamiltonian                       ... done (   0.0 sec)
Diagonalizing the Hamiltonian                      ... done (   0.0 sec)
Back transforming the eigenvectors                 ... done (   0.0 sec)
Now organizing SCF variables                       ... done
                      ------------------
                      INITIAL GUESS DONE (   0.3 sec)
                      ------------------
--------------------
COSX GRID GENERATION
--------------------

General Integration Accuracy     IntAcc      ...  3.340
Radial Grid Type                 RadialGrid  ... Gauss-Chebyshev
Angular Grid (max. acc.)         AngularGrid ... Lebedev-50
Angular grid pruning method      GridPruning ... 3 (G Style)
Weight generation scheme         WeightScheme... Becke
Basis function cutoff            BFCut       ...    1.0000e-11
Integration weight cutoff        WCut        ...    1.0000e-14
Grids for H and He will be reduced by one unit

# of grid points (after initial pruning)     ...   4880 (   0.0 sec)
# of grid points (after weights+screening)   ...   4644 (   0.0 sec)
nearest neighbour list constructed           ...    0.0 sec
Grid point re-assignment to atoms done       ...    0.0 sec
Grid point division into batches done        ...    0.0 sec
Reduced shell lists constructed in    0.0 sec

Total number of grid points                  ...     4644
Total number of batches                      ...       79
Average number of points per batch           ...       58
Average number of grid points per atom       ...      387
Average number of shells per batch           ...    50.75 (66.78%)
Average number of basis functions per batch  ...   111.25 (64.68%)
Average number of large shells per batch     ...    38.00 (74.88%)
Average number of large basis fcns per batch ...    77.75 (69.89%)
Maximum spatial batch extension              ...  12.62,  6.62, 11.60 au
Average spatial batch extension              ...   0.30,  0.26,  0.32 au

Overlap Fitting                  UseSFitting ... on
Constructing numerical overlap ... done (      0.0 sec)
Inverting numerical overlap    ... done (      0.0 sec)
Obtaining analytic overlap     ... done (      0.0 sec)
Final contraction and storage  ... done (      0.0 sec)


General Integration Accuracy     IntAcc      ...  3.670
Radial Grid Type                 RadialGrid  ... Gauss-Chebyshev
Angular Grid (max. acc.)         AngularGrid ... Lebedev-50
Angular grid pruning method      GridPruning ... 3 (G Style)
Weight generation scheme         WeightScheme... Becke
Basis function cutoff            BFCut       ...    1.0000e-11
Integration weight cutoff        WCut        ...    1.0000e-14
Grids for H and He will be reduced by one unit

# of grid points (after initial pruning)     ...   6408 (   0.0 sec)
# of grid points (after weights+screening)   ...   6088 (   0.0 sec)
nearest neighbour list constructed           ...    0.0 sec
Grid point re-assignment to atoms done       ...    0.0 sec
Grid point division into batches done        ...    0.0 sec
Reduced shell lists constructed in    0.0 sec

Total number of grid points                  ...     6088
Total number of batches                      ...      100
Average number of points per batch           ...       60
Average number of grid points per atom       ...      507
Average number of shells per batch           ...    51.70 (68.03%)
Average number of basis functions per batch  ...   113.70 (66.10%)
Average number of large shells per batch     ...    39.00 (75.44%)
Average number of large basis fcns per batch ...    79.20 (69.66%)
Maximum spatial batch extension              ...  13.23,  7.52, 12.63 au
Average spatial batch extension              ...   0.29,  0.25,  0.30 au

Overlap Fitting                  UseSFitting ... on
Constructing numerical overlap ... done (      0.0 sec)
Inverting numerical overlap    ... done (      0.0 sec)
Obtaining analytic overlap     ... done (      0.0 sec)
Final contraction and storage  ... done (      0.0 sec)


General Integration Accuracy     IntAcc      ...  4.010
Radial Grid Type                 RadialGrid  ... Gauss-Chebyshev
Angular Grid (max. acc.)         AngularGrid ... Lebedev-110
Angular grid pruning method      GridPruning ... 3 (G Style)
Weight generation scheme         WeightScheme... Becke
Basis function cutoff            BFCut       ...    1.0000e-11
Integration weight cutoff        WCut        ...    1.0000e-14
Grids for H and He will be reduced by one unit

# of grid points (after initial pruning)     ...  11032 (   0.0 sec)
# of grid points (after weights+screening)   ...  10510 (   0.0 sec)
nearest neighbour list constructed           ...    0.0 sec
Grid point re-assignment to atoms done       ...    0.0 sec
Grid point division into batches done        ...    0.0 sec
Reduced shell lists constructed in    0.0 sec

Total number of grid points                  ...    10510
Total number of batches                      ...      169
Average number of points per batch           ...       62
Average number of grid points per atom       ...      876
Average number of shells per batch           ...    50.88 (66.94%)
Average number of basis functions per batch  ...   111.38 (64.75%)
Average number of large shells per batch     ...    38.56 (75.80%)
Average number of large basis fcns per batch ...    78.06 (70.09%)
Maximum spatial batch extension              ...  12.33, 10.35, 14.15 au
Average spatial batch extension              ...   0.27,  0.23,  0.29 au

Overlap Fitting                  UseSFitting ... on
Constructing numerical overlap ... done (      0.0 sec)
Inverting numerical overlap    ... done (      0.0 sec)
Obtaining analytic overlap     ... done (      0.0 sec)
Final contraction and storage  ... done (      0.0 sec)

Time for X-Grid setup             =    0.104 sec
--------------
SCF ITERATIONS
--------------
ITER       Energy         Delta-E        Max-DP      RMS-DP      [F,P]     Damp
               ***  Starting incremental Fock matrix formation  ***
  0   -305.4141390561   0.000000000000 0.05684793  0.00189023  0.3167463 0.7000
  1   -305.5803155432  -0.166176487097 0.03455392  0.00115742  0.1308797 0.7000
                               ***Turning on DIIS***
  2   -305.6338069594  -0.053491416173 0.03250163  0.00137054  0.0297158 0.0000
  3   -305.7283907120  -0.094583752610 0.02327265  0.00072557  0.0753356 0.0000
  4   -305.7466818490  -0.018291137010 0.00553232  0.00020543  0.0128738 0.0000
                      *** Initiating the SOSCF procedure ***
                           *** Shutting down DIIS ***
                      *** Re-Reading the Fockian *** 
                      *** Removing any level shift *** 
ITER      Energy       Delta-E        Grad      Rot      Max-DP    RMS-DP
  5   -305.74732963  -0.0006477777  0.000587  0.000587  0.001552  0.000063
               *** Restarting incremental Fock matrix formation ***
  6   -305.74735699  -0.0000273678  0.000238  0.000544  0.000838  0.000035
  7   -305.74735828  -0.0000012884  0.000167  0.000104  0.000219  0.000009
  8   -305.74735917  -0.0000008887  0.000056  0.000099  0.000179  0.000007
  9   -305.74735930  -0.0000001277  0.000010  0.000014  0.000029  0.000001
 10   -305.74735930   0.0000000019  0.000015  0.000010  0.000016  0.000001
                  ***Gradient check signals convergence***
              ***Rediagonalizing the Fockian in SOSCF/NRSCF***

               *****************************************************
               *                     SUCCESS                       *
               *           SCF CONVERGED AFTER  11 CYCLES          *
               *****************************************************

Setting up the final grid:

General Integration Accuracy     IntAcc      ...  5.010
Radial Grid Type                 RadialGrid  ... Gauss-Chebyshev
Angular Grid (max. acc.)         AngularGrid ... Lebedev-434
Angular grid pruning method      GridPruning ... 3 (G Style)
Weight generation scheme         WeightScheme... Becke
Basis function cutoff            BFCut       ...    1.0000e-11
Integration weight cutoff        WCut        ...    1.0000e-14
Grids for H and He will be reduced by one unit

# of grid points (after initial pruning)     ...  96904 (   0.0 sec)
# of grid points (after weights+screening)   ...  91179 (   0.0 sec)
nearest neighbour list constructed           ...    0.0 sec
Grid point re-assignment to atoms done       ...    0.0 sec
Grid point division into batches done        ...    0.4 sec
Reduced shell lists constructed in    0.5 sec

Total number of grid points                  ...    91179
Total number of batches                      ...     1430
Average number of points per batch           ...       63
Average number of grid points per atom       ...     7598
Average number of shells per batch           ...    46.44 (61.10%)
Average number of basis functions per batch  ...    99.02 (57.57%)
Average number of large shells per batch     ...    35.99 (77.50%)
Average number of large basis fcns per batch ...    71.71 (72.42%)
Maximum spatial batch extension              ...  12.09, 11.02, 13.83 au
Average spatial batch extension              ...   0.15,  0.14,  0.15 au

Final grid set up in    0.5 sec
Final integration                            ... done (   0.1 sec)
Change in XC energy                          ...    -0.000020203
Integrated number of electrons               ...    40.000083021
Previous integrated no of electrons          ...    39.999995584
Old exchange energy                            =     -7.134902984 Eh
New exchange energy                            =     -7.134591105 Eh
Exchange energy change after final integration =      0.000311879 Eh
Total energy after final integration           =   -305.747067622 Eh
Final COS-X integration done in                =     0.296 sec

----------------
TOTAL SCF ENERGY
----------------

Total Energy       :         -305.74706762 Eh           -8319.80068 eV

Components:
Nuclear Repulsion  :          145.60818879 Eh            3962.20025 eV
Electronic Energy  :         -451.35525641 Eh          -12282.00093 eV

One Electron Energy:         -710.14249180 Eh          -19323.95961 eV
Two Electron Energy:          258.78723539 Eh            7041.95868 eV

Virial components:
Potential Energy   :         -610.23137841 Eh          -16605.24000 eV
Kinetic Energy     :          304.48431079 Eh            8285.43932 eV
Virial Ratio       :            2.00414720


DFT components:
N(Alpha)           :       20.000041510685 electrons
N(Beta)            :       20.000041510685 electrons
N(Total)           :       40.000083021371 electrons
E(X)               :      -28.444559787519 Eh       
E(C)               :       -1.628641269378 Eh       
E(XC)              :      -30.073201056897 Eh       

---------------
SCF CONVERGENCE
---------------

  Last Energy change         ...   -6.5808e-10  Tolerance :   1.0000e-08
  Last MAX-Density change    ...    2.5535e-15  Tolerance :   1.0000e-07
  Last RMS-Density change    ...    9.2051e-17  Tolerance :   5.0000e-09
  Last Orbital Gradient      ...    1.3023e-06  Tolerance :   1.0000e-05
  Last Orbital Rotation      ...    2.8209e-06  Tolerance :   1.0000e-05

             **** THE GBW FILE WAS UPDATED (1_B3LYP_GasPhase_onBP86_4_waters.gbw) ****
             **** DENSITY FILE WAS UPDATED (1_B3LYP_GasPhase_onBP86_4_waters.scfp.tmp) ****
             **** ENERGY FILE WAS UPDATED (1_B3LYP_GasPhase_onBP86_4_waters.en.tmp) ****
----------------
ORBITAL ENERGIES
----------------

  NO   OCC          E(Eh)            E(eV) 
   0   2.0000     -19.127481      -520.4852 
   1   2.0000     -19.127023      -520.4727 
   2   2.0000     -19.126845      -520.4679 
   3   2.0000     -19.126749      -520.4653 
   4   2.0000      -1.024326       -27.8733 
   5   2.0000      -1.004774       -27.3413 
   6   2.0000      -1.004484       -27.3334 
   7   2.0000      -0.985276       -26.8107 
   8   2.0000      -0.535749       -14.5785 
   9   2.0000      -0.523602       -14.2479 
  10   2.0000      -0.522541       -14.2191 
  11   2.0000      -0.518189       -14.1006 
  12   2.0000      -0.439925       -11.9710 
  13   2.0000      -0.403276       -10.9737 
  14   2.0000      -0.400659       -10.9025 
  15   2.0000      -0.369631       -10.0582 
  16   2.0000      -0.319247        -8.6872 
  17   2.0000      -0.318837        -8.6760 
  18   2.0000      -0.317248        -8.6327 
  19   2.0000      -0.313534        -8.5317 
  20   0.0000       0.006941         0.1889 
  21   0.0000       0.045596         1.2407 
  22   0.0000       0.046221         1.2577 
  23   0.0000       0.064669         1.7597 
  24   0.0000       0.179894         4.8952 
  25   0.0000       0.196917         5.3584 
  26   0.0000       0.197755         5.3812 
  27   0.0000       0.218499         5.9457 
  28   0.0000       0.283214         7.7067 
  29   0.0000       0.319199         8.6858 
  30   0.0000       0.329973         8.9790 
  31   0.0000       0.341578         9.2948 
  32   0.0000       0.342763         9.3271 
  33   0.0000       0.391403        10.6506 
  34   0.0000       0.393231        10.7004 
  35   0.0000       0.417580        11.3629 
  36   0.0000       0.430557        11.7161 
  37   0.0000       0.443960        12.0808 
  38   0.0000       0.446210        12.1420 
  39   0.0000       0.487296        13.2600 
  40   0.0000       0.547588        14.9006 
  41   0.0000       0.556019        15.1300 
  42   0.0000       0.558497        15.1975 
  43   0.0000       0.575583        15.6624 
  44   0.0000       0.632560        17.2128 
  45   0.0000       0.636989        17.3334 
  46   0.0000       0.674394        18.3512 
  47   0.0000       0.716729        19.5032 
  48   0.0000       0.814560        22.1653 
  49   0.0000       0.832665        22.6580 
  50   0.0000       0.842435        22.9238 
  51   0.0000       0.910419        24.7738 
  52   0.0000       1.069697        29.1079 
  53   0.0000       1.116911        30.3927 
  54   0.0000       1.173076        31.9210 
  55   0.0000       1.177573        32.0434 
  56   0.0000       1.197329        32.5810 
  57   0.0000       1.198776        32.6204 
  58   0.0000       1.223950        33.3054 
  59   0.0000       1.329831        36.1865 
  60   0.0000       1.352277        36.7973 
  61   0.0000       1.359756        37.0009 
  62   0.0000       1.375595        37.4318 
  63   0.0000       1.378441        37.5093 
  64   0.0000       1.553050        42.2606 
  65   0.0000       1.579735        42.9868 
  66   0.0000       1.581251        43.0280 
  67   0.0000       1.595987        43.4290 
  68   0.0000       1.642636        44.6984 
  69   0.0000       1.727371        47.0042 
  70   0.0000       1.746930        47.5364 
  71   0.0000       1.756939        47.8087 
  72   0.0000       1.760582        47.9079 
  73   0.0000       1.826694        49.7069 
  74   0.0000       1.838759        50.0352 
  75   0.0000       1.870076        50.8874 
  76   0.0000       1.977193        53.8022 
  77   0.0000       1.987727        54.0888 
  78   0.0000       2.030320        55.2478 
  79   0.0000       2.040179        55.5161 
  80   0.0000       2.069087        56.3027 
  81   0.0000       2.126140        57.8552 
  82   0.0000       2.164575        58.9011 
  83   0.0000       2.167523        58.9813 
  84   0.0000       2.251937        61.2783 
  85   0.0000       2.259268        61.4778 
  86   0.0000       2.270130        61.7734 
  87   0.0000       2.284944        62.1765 
  88   0.0000       2.308163        62.8083 
  89   0.0000       2.316270        63.0289 
  90   0.0000       2.328992        63.3751 
  91   0.0000       2.355940        64.1084 
  92   0.0000       2.371163        64.5226 
  93   0.0000       2.413797        65.6827 
  94   0.0000       2.422977        65.9326 
  95   0.0000       2.429294        66.1044 
  96   0.0000       2.498934        67.9994 
  97   0.0000       2.502166        68.0874 
  98   0.0000       2.518725        68.5380 
  99   0.0000       2.533139        68.9302 
 100   0.0000       2.591433        70.5165 
 101   0.0000       2.619468        71.2794 
 102   0.0000       2.623273        71.3829 
 103   0.0000       2.695385        73.3452 
 104   0.0000       2.830495        77.0217 
 105   0.0000       2.862732        77.8989 
 106   0.0000       2.869977        78.0960 
 107   0.0000       2.986800        81.2749 
 108   0.0000       3.036952        82.6397 
 109   0.0000       3.109950        84.6260 
 110   0.0000       3.115338        84.7727 
 111   0.0000       3.152038        85.7713 
 112   0.0000       3.659406        99.5775 
 113   0.0000       3.710193       100.9595 
 114   0.0000       3.719966       101.2254 
 115   0.0000       3.807244       103.6004 
 116   0.0000       3.885626       105.7333 
 117   0.0000       3.944166       107.3262 
 118   0.0000       3.968123       107.9781 
 119   0.0000       3.975737       108.1853 
 120   0.0000       5.090526       138.5203 
 121   0.0000       5.090964       138.5322 
 122   0.0000       5.092705       138.5796 
 123   0.0000       5.094383       138.6252 
 124   0.0000       5.221763       142.0914 
 125   0.0000       5.228656       142.2790 
 126   0.0000       5.235920       142.4766 
 127   0.0000       5.236592       142.4949 
 128   0.0000       5.326406       144.9389 
 129   0.0000       5.340768       145.3297 
 130   0.0000       5.342668       145.3814 
 131   0.0000       5.375654       146.2790 
 132   0.0000       5.375900       146.2857 
 133   0.0000       5.389666       146.6603 
 134   0.0000       5.393051       146.7524 
 135   0.0000       5.412157       147.2723 
 136   0.0000       5.425043       147.6229 
 137   0.0000       5.427195       147.6815 
 138   0.0000       5.430525       147.7721 
 139   0.0000       5.439201       148.0082 
 140   0.0000       5.948733       161.8732 
 141   0.0000       5.951105       161.9378 
 142   0.0000       5.953152       161.9935 
 143   0.0000       5.956847       162.0940 
 144   0.0000       6.129577       166.7943 
 145   0.0000       6.202370       168.7751 
 146   0.0000       6.208208       168.9339 
 147   0.0000       6.234958       169.6618 
 148   0.0000       6.318168       171.9261 
 149   0.0000       6.367805       173.2768 
 150   0.0000       6.379249       173.5882 
 151   0.0000       6.384039       173.7185 
 152   0.0000       6.408935       174.3960 
 153   0.0000       6.412429       174.4911 
 154   0.0000       6.433458       175.0633 
 155   0.0000       6.474744       176.1867 
 156   0.0000       6.518409       177.3749 
 157   0.0000       6.558512       178.4662 
 158   0.0000       6.563872       178.6120 
 159   0.0000       6.697828       182.2572 
 160   0.0000       6.871612       186.9861 
 161   0.0000       6.965969       189.5537 
 162   0.0000       6.972422       189.7292 
 163   0.0000       6.984786       190.0657 
 164   0.0000       7.028771       191.2626 
 165   0.0000       7.078260       192.6093 
 166   0.0000       7.089767       192.9224 
 167   0.0000       7.128091       193.9652 
 168   0.0000      43.371546      1180.1998 
 169   0.0000      43.438345      1182.0175 
 170   0.0000      43.452087      1182.3914 
 171   0.0000      43.479778      1183.1449 

                    ********************************
                    * MULLIKEN POPULATION ANALYSIS *
                    ********************************

-----------------------
MULLIKEN ATOMIC CHARGES
-----------------------
   0 O :   -0.683091
   1 H :    0.326548
   2 H :    0.354461
   3 O :   -0.681399
   4 H :    0.327750
   5 H :    0.357246
   6 O :   -0.686371
   7 H :    0.326829
   8 H :    0.354780
   9 O :   -0.683116
  10 H :    0.358117
  11 H :    0.328246
Sum of atomic charges:   -0.0000000

--------------------------------
MULLIKEN REDUCED ORBITAL CHARGES
--------------------------------
  0 O s       :     3.799946  s :     3.799946
      pz      :     1.731082  p :     4.861988
      px      :     1.727995
      py      :     1.402910
      dz2     :     0.002431  d :     0.020122
      dxz     :     0.005519
      dyz     :     0.001385
      dx2y2   :     0.004636
      dxy     :     0.006151
      f0      :     0.000164  f :     0.001035
      f+1     :     0.000077
      f-1     :     0.000173
      f+2     :     0.000147
      f-2     :     0.000180
      f+3     :     0.000173
      f-3     :     0.000121
  1 H s       :     0.628092  s :     0.628092
      pz      :     0.014047  p :     0.045360
      px      :     0.013455
      py      :     0.017858
  2 H s       :     0.587118  s :     0.587118
      pz      :     0.019535  p :     0.058421
      px      :     0.024237
      py      :     0.014649
  3 O s       :     3.797125  s :     3.797125
      pz      :     1.656542  p :     4.862977
      px      :     1.334206
      py      :     1.872229
      dz2     :     0.001518  d :     0.020260
      dxz     :     0.006844
      dyz     :     0.005203
      dx2y2   :     0.001884
      dxy     :     0.004811
      f0      :     0.000126  f :     0.001037
      f+1     :     0.000027
      f-1     :     0.000063
      f+2     :     0.000206
      f-2     :     0.000240
      f+3     :     0.000146
      f-3     :     0.000230
  4 H s       :     0.626938  s :     0.626938
      pz      :     0.013779  p :     0.045312
      px      :     0.016772
      py      :     0.014761
  5 H s       :     0.585042  s :     0.585042
      pz      :     0.019182  p :     0.057712
      px      :     0.021340
      py      :     0.017190
  6 O s       :     3.798597  s :     3.798597
      pz      :     1.729696  p :     4.867062
      px      :     1.545125
      py      :     1.592240
      dz2     :     0.003304  d :     0.019661
      dxz     :     0.003686
      dyz     :     0.003881
      dx2y2   :     0.002277
      dxy     :     0.006514
      f0      :     0.000117  f :     0.001052
      f+1     :     0.000089
      f-1     :     0.000251
      f+2     :     0.000104
      f-2     :     0.000235
      f+3     :     0.000013
      f-3     :     0.000243
  7 H s       :     0.627707  s :     0.627707
      pz      :     0.013287  p :     0.045464
      px      :     0.016907
      py      :     0.015271
  8 H s       :     0.587386  s :     0.587386
      pz      :     0.026505  p :     0.057834
      px      :     0.010975
      py      :     0.020354
  9 O s       :     3.797636  s :     3.797636
      pz      :     1.484339  p :     4.864387
      px      :     1.776263
      py      :     1.603785
      dz2     :     0.000139  d :     0.020053
      dxz     :     0.002719
      dyz     :     0.009475
      dx2y2   :     0.003251
      dxy     :     0.004470
      f0      :     0.000047  f :     0.001040
      f+1     :     0.000233
      f-1     :     0.000183
      f+2     :     0.000111
      f-2     :     0.000372
      f+3     :     0.000066
      f-3     :     0.000028
 10 H s       :     0.584051  s :     0.584051
      pz      :     0.024893  p :     0.057832
      px      :     0.012363
      py      :     0.020576
 11 H s       :     0.626484  s :     0.626484
      pz      :     0.015072  p :     0.045271
      px      :     0.016092
      py      :     0.014107


                     *******************************
                     * LOEWDIN POPULATION ANALYSIS *
                     *******************************

----------------------
LOEWDIN ATOMIC CHARGES
----------------------
   0 O :   -0.307188
   1 H :    0.160403
   2 H :    0.144099
   3 O :   -0.303725
   4 H :    0.161538
   5 H :    0.144743
   6 O :   -0.307447
   7 H :    0.160511
   8 H :    0.144727
   9 O :   -0.304227
  10 H :    0.145237
  11 H :    0.161329

-------------------------------
LOEWDIN REDUCED ORBITAL CHARGES
-------------------------------
  0 O s       :     3.479142  s :     3.479142
      pz      :     1.687882  p :     4.795393
      px      :     1.698556
      py      :     1.408956
      dz2     :     0.003803  d :     0.030536
      dxz     :     0.006947
      dyz     :     0.003734
      dx2y2   :     0.007600
      dxy     :     0.008452
      f0      :     0.000240  f :     0.002116
      f+1     :     0.000127
      f-1     :     0.000364
      f+2     :     0.000231
      f-2     :     0.000340
      f+3     :     0.000503
      f-3     :     0.000310
  1 H s       :     0.682368  s :     0.682368
      pz      :     0.039826  p :     0.157229
      px      :     0.043090
      py      :     0.074312
  2 H s       :     0.656297  s :     0.656297
      pz      :     0.068549  p :     0.199604
      px      :     0.086604
      py      :     0.044451
  3 O s       :     3.477796  s :     3.477796
      pz      :     1.641688  p :     4.793264
      px      :     1.344057
      py      :     1.807519
      dz2     :     0.001843  d :     0.030544
      dxz     :     0.012174
      dyz     :     0.005849
      dx2y2   :     0.003872
      dxy     :     0.006807
      f0      :     0.000277  f :     0.002121
      f+1     :     0.000121
      f-1     :     0.000120
      f+2     :     0.000437
      f-2     :     0.000626
      f+3     :     0.000177
      f-3     :     0.000362
  4 H s       :     0.681507  s :     0.681507
      pz      :     0.045755  p :     0.156955
      px      :     0.065179
      py      :     0.046021
  5 H s       :     0.657976  s :     0.657976
      pz      :     0.069329  p :     0.197281
      px      :     0.071728
      py      :     0.056224
  6 O s       :     3.476535  s :     3.476535
      pz      :     1.670757  p :     4.798562
      px      :     1.558222
      py      :     1.569583
      dz2     :     0.004428  d :     0.030214
      dxz     :     0.004933
      dyz     :     0.006840
      dx2y2   :     0.002887
      dxy     :     0.011127
      f0      :     0.000182  f :     0.002136
      f+1     :     0.000280
      f-1     :     0.000334
      f+2     :     0.000157
      f-2     :     0.000464
      f+3     :     0.000068
      f-3     :     0.000651
  7 H s       :     0.682160  s :     0.682160
      pz      :     0.039678  p :     0.157329
      px      :     0.069593
      py      :     0.048058
  8 H s       :     0.656978  s :     0.656978
      pz      :     0.091421  p :     0.198295
      px      :     0.035463
      py      :     0.071412
  9 O s       :     3.477546  s :     3.477546
      pz      :     1.456913  p :     4.794101
      px      :     1.727971
      py      :     1.609218
      dz2     :     0.000575  d :     0.030458
      dxz     :     0.005433
      dyz     :     0.015795
      dx2y2   :     0.002447
      dxy     :     0.006208
      f0      :     0.000119  f :     0.002122
      f+1     :     0.000287
      f-1     :     0.000449
      f+2     :     0.000254
      f-2     :     0.000773
      f+3     :     0.000161
      f-3     :     0.000079
 10 H s       :     0.656458  s :     0.656458
      pz      :     0.083962  p :     0.198305
      px      :     0.039243
      py      :     0.075101
 11 H s       :     0.681516  s :     0.681516
      pz      :     0.054838  p :     0.157154
      px      :     0.051400
      py      :     0.050917


                      *****************************
                      * MAYER POPULATION ANALYSIS *
                      *****************************

  NA   - Mulliken gross atomic population
  ZA   - Total nuclear charge
  QA   - Mulliken gross atomic charge
  VA   - Mayer's total valence
  BVA  - Mayer's bonded valence
  FA   - Mayer's free valence

  ATOM       NA         ZA         QA         VA         BVA        FA
  0 O      8.6831     8.0000    -0.6831     1.7990     1.7990    -0.0000
  1 H      0.6735     1.0000     0.3265     0.9074     0.9074    -0.0000
  2 H      0.6455     1.0000     0.3545     0.9410     0.9410    -0.0000
  3 O      8.6814     8.0000    -0.6814     1.8044     1.8044    -0.0000
  4 H      0.6722     1.0000     0.3278     0.9057     0.9057    -0.0000
  5 H      0.6428     1.0000     0.3572     0.9427     0.9427    -0.0000
  6 O      8.6864     8.0000    -0.6864     1.7966     1.7966     0.0000
  7 H      0.6732     1.0000     0.3268     0.9075     0.9075     0.0000
  8 H      0.6452     1.0000     0.3548     0.9424     0.9424     0.0000
  9 O      8.6831     8.0000    -0.6831     1.7992     1.7992     0.0000
 10 H      0.6419     1.0000     0.3581     0.9384     0.9384     0.0000
 11 H      0.6718     1.0000     0.3282     0.9059     0.9059     0.0000

  Mayer bond orders larger than 0.1
B(  0-O ,  1-H ) :   0.8973 B(  0-O ,  2-H ) :   0.7625 B(  0-O ,  8-H ) :   0.1710 
B(  2-H ,  9-O ) :   0.1698 B(  3-O ,  4-H ) :   0.8976 B(  3-O ,  5-H ) :   0.7656 
B(  3-O , 10-H ) :   0.1686 B(  5-H ,  6-O ) :   0.1682 B(  6-O ,  7-H ) :   0.8969 
B(  6-O ,  8-H ) :   0.7622 B(  9-O , 10-H ) :   0.7623 B(  9-O , 11-H ) :   0.8965 


-------
TIMINGS
-------

Total SCF time: 0 days 0 hours 0 min 4 sec 

Total time                  ....       4.568 sec
Sum of individual times     ....       4.596 sec  (100.6%)

Fock matrix formation       ....       3.231 sec  ( 70.7%)
  Coulomb formation         ....       2.660 sec  ( 82.3% of F)
  Split-RI-J                ....       0.838 sec  ( 25.9% of F)
  Chain of spheres X        ....       2.095 sec  ( 64.8% of F)
  COS-X 1 center corr.      ....       0.000 sec  (  0.0% of F)
  XC integration            ....       0.564 sec  ( 17.5% of F)
    Basis function eval.    ....       0.167 sec  ( 29.6% of XC)
    Density eval.           ....       0.101 sec  ( 17.9% of XC)
    XC-Functional eval.     ....       0.037 sec  (  6.6% of XC)
    XC-Potential eval.      ....       0.202 sec  ( 35.8% of XC)
Diagonalization             ....       0.040 sec  (  0.9%)
Density matrix formation    ....       0.165 sec  (  3.6%)
Population analysis         ....       0.016 sec  (  0.3%)
Initial guess               ....       0.287 sec  (  6.3%)
Orbital Transformation      ....       0.000 sec  (  0.0%)
Orbital Orthonormalization  ....       0.000 sec  (  0.0%)
DIIS solution               ....       0.008 sec  (  0.2%)
SOSCF solution              ....       0.050 sec  (  1.1%)
Grid generation             ....       0.801 sec  ( 17.5%)
           ************************************************************
           *              Shut down parallel processing               *
           ************************************************************

Entering the calculation of the dispersion correction...

Checking the input atom types...

Done


-------------------------------------------------------------------------------
                          DFT DISPERSION CORRECTION                            
                                                                               
                                DFTD3 V2.1  Rev 6                               
                          USING Becke-Johnson damping                          
-------------------------------------------------------------------------------
The B3LYP functional is recognized
Active option DFTDOPT                   ...         4   

molecular C6(AA) [au] = 712.031155 


            DFT-D V3
 parameters
 s6 scaling factor         :     1.0000 
 a1 scaling factor         :     0.3981 
 s8 scaling factor         :     1.9889 
 a2 scaling factor         :     4.4211 
 ad hoc parameters k1-k3   :    16.0000     1.3333    -4.0000 

 Edisp/kcal,au: -5.193129222284  -0.008275777312 
 E6   /kcal   :  -2.802580593 
 E8   /kcal   :  -2.390548629 
 % E8         :  46.032912463 

-------------------------   ----------------
Dispersion correction           -0.008275777
-------------------------   ----------------


-------------------------   --------------------
FINAL SINGLE POINT ENERGY      -305.755343399141
-------------------------   --------------------


                            ***************************************
                            *     ORCA property calculations      *
                            ***************************************

                                    ---------------------
                                    Active property flags
                                    ---------------------
   (+) Dipole Moment


------------------------------------------------------------------------------
                       ORCA ELECTRIC PROPERTIES CALCULATION
------------------------------------------------------------------------------

Dipole Moment Calculation                       ... on
Quadrupole Moment Calculation                   ... off
Polarizability Calculation                      ... off
GBWName                                         ... 1_B3LYP_GasPhase_onBP86_4_waters.gbw
Electron density file                           ... 1_B3LYP_GasPhase_onBP86_4_waters.scfp.tmp

-------------
DIPOLE MOMENT
-------------
                                X             Y             Z
Electronic contribution:     -0.02288       0.02388       0.02974
Nuclear contribution   :      0.09374      -0.08432      -0.11374
                        -----------------------------------------
Total Dipole Moment    :      0.07086      -0.06044      -0.08400
                        -----------------------------------------
Magnitude (a.u.)       :      0.12542
Magnitude (Debye)      :      0.31878

smp-n47.crc.pitt.edu.375236hfi_wait_for_device: The /dev/hfi1_0 device failed to appear after 15.0 seconds: Connection timed out
smp-n47.crc.pitt.edu.375238hfi_wait_for_device: The /dev/hfi1_0 device failed to appear after 15.0 seconds: Connection timed out
smp-n47.crc.pitt.edu.375246hfi_wait_for_device: The /dev/hfi1_0 device failed to appear after 15.0 seconds: Connection timed out
smp-n47.crc.pitt.edu.375237hfi_wait_for_device: The /dev/hfi1_0 device failed to appear after 15.0 seconds: Connection timed out
smp-n47.crc.pitt.edu.375244hfi_wait_for_device: The /dev/hfi1_0 device failed to appear after 15.0 seconds: Connection timed out
smp-n47.crc.pitt.edu.375250hfi_wait_for_device: The /dev/hfi1_0 device failed to appear after 15.0 seconds: Connection timed out
smp-n47.crc.pitt.edu.375252hfi_wait_for_device: The /dev/hfi1_0 device failed to appear after 15.0 seconds: Connection timed out
smp-n47.crc.pitt.edu.375242hfi_wait_for_device: The /dev/hfi1_0 device failed to appear after 15.0 seconds: Connection timed out
smp-n47.crc.pitt.edu.375248hfi_wait_for_device: The /dev/hfi1_0 device failed to appear after 15.0 seconds: Connection timed out
smp-n47.crc.pitt.edu.375254hfi_wait_for_device: The /dev/hfi1_0 device failed to appear after 15.0 seconds: Connection timed out
smp-n47.crc.pitt.edu.375240hfi_wait_for_device: The /dev/hfi1_0 device failed to appear after 15.0 seconds: Connection timed out
smp-n47.crc.pitt.edu.375256hfi_wait_for_device: The /dev/hfi1_0 device failed to appear after 15.0 seconds: Connection timed out

Timings for individual modules:

Sum of individual times         ...       35.853 sec (=   0.598 min)
GTO integral calculation        ...       15.558 sec (=   0.259 min)  43.4 %
SCF iterations                  ...       20.295 sec (=   0.338 min)  56.6 %
                             ****ORCA TERMINATED NORMALLY****
TOTAL RUN TIME: 0 days 0 hours 0 minutes 51 seconds 381 msec
cp: cannot stat ‘/scratch/slurm-1328850/*.{prop}’: No such file or directory
