
                                 *****************
                                 * O   R   C   A *
                                 *****************

           --- An Ab Initio, DFT and Semiempirical electronic structure package ---

                  #######################################################
                  #                        -***-                        #
                  #  Department of molecular theory and spectroscopy    #
                  #              Directorship: Frank Neese              #
                  # Max Planck Institute for Chemical Energy Conversion #
                  #                  D-45470 Muelheim/Ruhr              #
                  #                       Germany                       #
                  #                                                     #
                  #                  All rights reserved                #
                  #                        -***-                        #
                  #######################################################


                         Program Version 3.0.3 - RELEASE   -


 With contributions from (in alphabetic order):
   Ute Becker             : Parallelization
   Dmytro Bykov           : SCF Hessian
   Dmitry Ganyushin       : Spin-Orbit,Spin-Spin,Magnetic field MRCI
   Andreas Hansen         : Spin unrestricted coupled pair/coupled cluster methods
   Dimitrios Liakos       : Extrapolation schemes; parallel MDCI
   Robert Izsak           : Overlap fitted RIJCOSX, COSX-SCS-MP3
   Christian Kollmar      : KDIIS, OOCD, Brueckner-CCSD(T), CCSD density
   Simone Kossmann        : Meta GGA functionals, TD-DFT gradient, OOMP2, MP2 Hessian
   Taras Petrenko         : DFT Hessian,TD-DFT gradient, ASA and ECA modules, normal mode analysis, Resonance Raman, ABS, FL, XAS/XES, NRVS
   Christoph Reimann      : Effective Core Potentials
   Michael Roemelt        : Restricted open shell CIS
   Christoph Riplinger    : Improved optimizer, TS searches, QM/MM, DLPNO-CCSD
   Barbara Sandhoefer     : DKH picture change effects
   Igor Schapiro          : Molecular dynamics
   Kantharuban Sivalingam : CASSCF convergence, NEVPT2
   Boris Wezisla          : Elementary symmetry handling
   Frank Wennmohs         : Technical directorship


 We gratefully acknowledge several colleagues who have allowed us to
 interface, adapt or use parts of their codes:
   Stefan Grimme, W. Hujo, H. Kruse, T. Risthaus : VdW corrections, initial TS optimization,
                                                   DFT functionals, gCP
   Ed Valeev                                     : LibInt (2-el integral package), F12 methods
   Garnet Chan, S. Sharma, R. Olivares           : DMRG
   Ulf Ekstrom                                   : XCFun DFT Library
   Mihaly Kallay                                 : mrcc  (arbitrary order and MRCC methods)
   Andreas Klamt, Michael Diedenhofen            : otool_cosmo (COSMO solvation model)
   Frank Weinhold                                : gennbo (NPA and NBO analysis)
   Christopher J. Cramer and Donald G. Truhlar   : smd solvation model


 Your calculation uses the libint2 library for the computation of 2-el integrals
 For citations please refer to: http://libint.valeyev.net

 This ORCA versions uses:
   CBLAS   interface :  Fast vector & matrix operations
   LAPACKE interface :  Fast linear algebra routines
   SCALAPACK package :  Parallel linear algebra routines


Your calculation utilizes the basis: Ahlrichs-TZV
Cite in your paper:
H - Kr: A. Schaefer, H. Horn and R. Ahlrichs, J. Chem. Phys. 97, 2571 (1992).

The def2-TZV basis will be loaded
Cite in your paper:
 	F. Weigend, R. Ahlrichs, Phys. Chem. Chem. Phys. 2005, 7, 3297.

Your calculation utilizes the atom-pairwise dispersion correction
with the Becke-Johnson damping scheme (D3BJ)
Cite in your paper:
S.Grimme, S.Ehrlich, L.Goerigk, J Comput Chem, (2011), 32, 1456–1465 
S.Grimme, J.Antony, S.Ehrlich and H.Krieg, J.Chem.Phys., 132, (2010), 154104 
   

================================================================================
                                        WARNINGS
                       Please study these warnings very carefully!
================================================================================
Now building the actual basis set


INFO   : the flag for use of LIBINT has been found!

================================================================================
                                       INPUT FILE
================================================================================
NAME = 1_B3LYP_GasPhase_onB3LYP_4_waters.inp
|  1> ! B3LYP Def2-TZVP def2-TZVP/J RIJCOSX TightSCF Grid4 D3BJ
|  2> 
|  3> %pal nprocs 12 end
|  4> 
|  5> %scf
|  6>         maxiter 400
|  7> end
|  8> 
|  9> * xyz  0  1
| 10> O  1.193840	-1.405299	0.303535
| 11> H  0.931398	-2.326670	0.171088
| 12> H  0.487996	-1.031228	0.898777
| 13> O  -1.172771	1.453159	-0.259000
| 14> H  -2.011338	1.211346	-0.677342
| 15> H  -0.490458	1.093952	-0.887884
| 16> O  0.603253	0.157796	-1.778521
| 17> H  1.406183	0.632912	-2.030125
| 18> H  0.901719	-0.479489	-1.074138
| 19> O  -0.665675	-0.176646	1.793117
| 20> H  -0.928522	0.487544	1.098441
| 21> H  -0.214087	0.353681	2.464138
| 22> **                         ****END OF INPUT****
================================================================================

                       ****************************
                       * Single Point Calculation *
                       ****************************

---------------------------------
CARTESIAN COORDINATES (ANGSTROEM)
---------------------------------
  O      1.193840   -1.405299    0.303535
  H      0.931398   -2.326670    0.171088
  H      0.487996   -1.031228    0.898777
  O     -1.172771    1.453159   -0.259000
  H     -2.011338    1.211346   -0.677342
  H     -0.490458    1.093952   -0.887884
  O      0.603253    0.157796   -1.778521
  H      1.406183    0.632912   -2.030125
  H      0.901719   -0.479489   -1.074138
  O     -0.665675   -0.176646    1.793117
  H     -0.928522    0.487544    1.098441
  H     -0.214087    0.353681    2.464138

----------------------------
CARTESIAN COORDINATES (A.U.)
----------------------------
  NO LB      ZA    FRAG    MASS        X           Y           Z
   0 O     8.0000    0    15.999          2.256030647720547         -2.655630246273401          0.573598022059787
   1 H     1.0000    0     1.008          1.760087141681986         -4.396769104010558          0.323309464800319
   2 H     1.0000    0     1.008          0.922178794449035         -1.948738501631345          1.698442385467341
   3 O     8.0000    0    15.999         -2.216216007804960          2.746072539042872         -0.489439068685604
   4 H     1.0000    0     1.008         -3.800877982748902          2.289112193420972         -1.279990879002489
   5 H     1.0000    0     1.008         -0.926831300190749          2.067269683655421         -1.677857598690537
   6 O     8.0000    0    15.999          1.139982959466397          0.298191225028238         -3.360917613427759
   7 H     1.0000    0     1.008          2.657300764175787          1.196030346872367         -3.836380267626881
   8 H     1.0000    0     1.008          1.704001959753337         -0.906102894227767         -2.029826650037906
   9 O     8.0000    0    15.999         -1.257943444198029         -0.333812562652653          3.388500056078473
  10 H     1.0000    0     1.008         -1.754652289320828          0.921324638236503          2.075752664270594
  11 H     1.0000    0     1.008         -0.404565798832799          0.668360228771402          4.656545976188445

--------------------------------
INTERNAL COORDINATES (ANGSTROEM)
--------------------------------
 O      0   0   0   0.000000     0.000     0.000
 H      1   0   0   0.967131     0.000     0.000
 H      1   2   0   0.996222   104.317     0.000
 O      3   1   2   3.204805   116.257   239.653
 H      4   3   1   0.967821   114.297    95.601
 H      4   3   1   0.995026    65.991     1.238
 O      6   4   3   1.692875   167.206    29.158
 H      7   6   4   0.966300   113.699   215.581
 H      7   6   4   0.995675   100.103   326.396
 O      3   1   2   1.691482   171.443   210.579
 H     10   3   1   0.996399    98.515    31.253
 H     10   3   1   0.967185   108.990   283.216

---------------------------
INTERNAL COORDINATES (A.U.)
---------------------------
 O      0   0   0   0.000000     0.000     0.000
 H      1   0   0   1.827613     0.000     0.000
 H      1   2   0   1.882586   104.317     0.000
 O      3   1   2   6.056203   116.257   239.653
 H      4   3   1   1.828917   114.297    95.601
 H      4   3   1   1.880326    65.991     1.238
 O      6   4   3   3.199070   167.206    29.158
 H      7   6   4   1.826043   113.699   215.581
 H      7   6   4   1.881554   100.103   326.396
 O      3   1   2   3.196438   171.443   210.579
 H     10   3   1   1.882922    98.515    31.253
 H     10   3   1   1.827716   108.990   283.216

---------------------
BASIS SET INFORMATION
---------------------
There are 2 groups of distinct atoms

 Group   1 Type O   : 11s6p2d1f contracted to 5s3p2d1f pattern {62111/411/11/1}
 Group   2 Type H   : 5s1p contracted to 3s1p pattern {311/1}

Atom   0O    basis set group =>   1
Atom   1H    basis set group =>   2
Atom   2H    basis set group =>   2
Atom   3O    basis set group =>   1
Atom   4H    basis set group =>   2
Atom   5H    basis set group =>   2
Atom   6O    basis set group =>   1
Atom   7H    basis set group =>   2
Atom   8H    basis set group =>   2
Atom   9O    basis set group =>   1
Atom  10H    basis set group =>   2
Atom  11H    basis set group =>   2
-------------------------------
AUXILIARY BASIS SET INFORMATION
-------------------------------
There are 2 groups of distinct atoms

 Group   1 Type O   : 12s5p4d2f1g contracted to 6s4p3d1f1g pattern {711111/2111/211/2/1}
 Group   2 Type H   : 5s2p1d contracted to 3s1p1d pattern {311/2/1}

Atom   0O    basis set group =>   1
Atom   1H    basis set group =>   2
Atom   2H    basis set group =>   2
Atom   3O    basis set group =>   1
Atom   4H    basis set group =>   2
Atom   5H    basis set group =>   2
Atom   6O    basis set group =>   1
Atom   7H    basis set group =>   2
Atom   8H    basis set group =>   2
Atom   9O    basis set group =>   1
Atom  10H    basis set group =>   2
Atom  11H    basis set group =>   2
smp-n112.crc.pitt.edu.405427hfi_wait_for_device: The /dev/hfi1_0 device failed to appear after 15.0 seconds: Connection timed out
smp-n112.crc.pitt.edu.405429hfi_wait_for_device: The /dev/hfi1_0 device failed to appear after 15.0 seconds: Connection timed out
smp-n112.crc.pitt.edu.405431hfi_wait_for_device: The /dev/hfi1_0 device failed to appear after 15.0 seconds: Connection timed out
smp-n112.crc.pitt.edu.405433hfi_wait_for_device: The /dev/hfi1_0 device failed to appear after 15.0 seconds: Connection timed out
smp-n112.crc.pitt.edu.405435hfi_wait_for_device: The /dev/hfi1_0 device failed to appear after 15.0 seconds: Connection timed out
smp-n112.crc.pitt.edu.405436hfi_wait_for_device: The /dev/hfi1_0 device failed to appear after 15.0 seconds: Connection timed out
smp-n112.crc.pitt.edu.405440hfi_wait_for_device: The /dev/hfi1_0 device failed to appear after 15.0 seconds: Connection timed out
smp-n112.crc.pitt.edu.405442hfi_wait_for_device: The /dev/hfi1_0 device failed to appear after 15.0 seconds: Connection timed out
smp-n112.crc.pitt.edu.405428hfi_wait_for_device: The /dev/hfi1_0 device failed to appear after 15.0 seconds: Connection timed out
smp-n112.crc.pitt.edu.405430hfi_wait_for_device: The /dev/hfi1_0 device failed to appear after 15.0 seconds: Connection timed out
smp-n112.crc.pitt.edu.405432hfi_wait_for_device: The /dev/hfi1_0 device failed to appear after 15.0 seconds: Connection timed out
smp-n112.crc.pitt.edu.405434hfi_wait_for_device: The /dev/hfi1_0 device failed to appear after 15.0 seconds: Connection timed out


           ************************************************************
           *        Program running with 12 parallel MPI-processes    *
           *              working on a common directory               *
           ************************************************************
------------------------------------------------------------------------------
                           ORCA GTO INTEGRAL CALCULATION
                           -- RI-GTO INTEGRALS CHOSEN --
------------------------------------------------------------------------------

                         BASIS SET STATISTICS AND STARTUP INFO

Gaussian basis set:
 # of primitive gaussian shells          ...  128
 # of primitive gaussian functions       ...  248
 # of contracted shells                  ...   76
 # of contracted basis functions         ...  172
 Highest angular momentum                ...    3
 Maximum contraction depth               ...    6
Auxiliary gaussian basis set:
 # of primitive gaussian shells          ...  160
 # of primitive gaussian functions       ...  408
 # of contracted shells                  ...  100
 # of contracted aux-basis functions     ...  284
 Highest angular momentum                ...    4
 Maximum contraction depth               ...    7
Ratio of auxiliary to basis functions    ...  1.65
Integral package used                  ... LIBINT
 One Electron integrals                  ... done
 Ordering auxiliary basis shells         ... done
 Integral threshhold             Thresh  ...  2.500e-11
 Primitive cut-off               TCut    ...  2.500e-12
 Pre-screening matrix                    ... done
 Shell pair data                         ... 
 Ordering of the shell pairs             ... done (   0.000 sec) 2688 of 2926 pairs
 Determination of significant pairs      ... done (   0.000 sec)
 Creation of shell pair data             ... done (   0.000 sec)
 Storage of shell pair data              ... done (   0.000 sec)
 Shell pair data done in (   0.001 sec)
 Computing two index integrals           ... done
 Cholesky decomposition of the V-matrix  ... done


Timings:
 Total evaluation time                   ...   0.120 sec (  0.002 min)
 One electron matrix time                ...   0.011 sec (  0.000 min) =  9.4%
 Schwartz matrix evaluation time         ...   0.085 sec (  0.001 min) = 71.4%
 Two index repulsion integral time       ...   0.006 sec (  0.000 min) =  5.2%
 Cholesky decomposition of V             ...   0.001 sec (  0.000 min) =  1.1%
 Three index repulsion integral time     ...   0.000 sec (  0.000 min) =  0.0%

           ************************************************************
           *              Shut down parallel processing               *
           ************************************************************
smp-n112.crc.pitt.edu.405466hfi_wait_for_device: The /dev/hfi1_0 device failed to appear after 15.0 seconds: Connection timed out
smp-n112.crc.pitt.edu.405467hfi_wait_for_device: The /dev/hfi1_0 device failed to appear after 15.0 seconds: Connection timed out
smp-n112.crc.pitt.edu.405468hfi_wait_for_device: The /dev/hfi1_0 device failed to appear after 15.0 seconds: Connection timed out
smp-n112.crc.pitt.edu.405469hfi_wait_for_device: The /dev/hfi1_0 device failed to appear after 15.0 seconds: Connection timed out
smp-n112.crc.pitt.edu.405470hfi_wait_for_device: The /dev/hfi1_0 device failed to appear after 15.0 seconds: Connection timed out
smp-n112.crc.pitt.edu.405472hfi_wait_for_device: The /dev/hfi1_0 device failed to appear after 15.0 seconds: Connection timed out
smp-n112.crc.pitt.edu.405480hfi_wait_for_device: The /dev/hfi1_0 device failed to appear after 15.0 seconds: Connection timed out
smp-n112.crc.pitt.edu.405471hfi_wait_for_device: The /dev/hfi1_0 device failed to appear after 15.0 seconds: Connection timed out
smp-n112.crc.pitt.edu.405474hfi_wait_for_device: The /dev/hfi1_0 device failed to appear after 15.0 seconds: Connection timed out
smp-n112.crc.pitt.edu.405475hfi_wait_for_device: The /dev/hfi1_0 device failed to appear after 15.0 seconds: Connection timed out
smp-n112.crc.pitt.edu.405478hfi_wait_for_device: The /dev/hfi1_0 device failed to appear after 15.0 seconds: Connection timed out
smp-n112.crc.pitt.edu.405473hfi_wait_for_device: The /dev/hfi1_0 device failed to appear after 15.0 seconds: Connection timed out


           ************************************************************
           *        Program running with 12 parallel MPI-processes    *
           *              working on a common directory               *
           ************************************************************
-------------------------------------------------------------------------------
                                 ORCA SCF
-------------------------------------------------------------------------------

------------
SCF SETTINGS
------------
Hamiltonian:
 Density Functional     Method          .... DFT(GTOs)
 Exchange Functional    Exchange        .... B88
   X-Alpha parameter    XAlpha          ....  0.666667
   Becke's b parameter  XBeta           ....  0.004200
 Correlation Functional Correlation     .... LYP
 LDA part of GGA corr.  LDAOpt          .... VWN-5
 Gradients option       PostSCFGGA      .... off
 Hybrid DFT is turned on
   Fraction HF Exchange ScalHFX         ....  0.200000
   Scaling of DF-GGA-X  ScalDFX         ....  0.720000
   Scaling of DF-GGA-C  ScalDFC         ....  0.810000
   Scaling of DF-LDA-C  ScalLDAC        ....  1.000000
   Perturbative correction              ....  0.000000
   NL short-range parameter             ....  4.800000
 RI-approximation to the Coulomb term is turned on
   Number of auxiliary basis functions  .... 284
   RIJ-COSX (HFX calculated with COS-X)).... on


General Settings:
 Integral files         IntName         .... 1_B3LYP_GasPhase_onB3LYP_4_waters
 Hartree-Fock type      HFTyp           .... RHF
 Total Charge           Charge          ....    0
 Multiplicity           Mult            ....    1
 Number of Electrons    NEL             ....   40
 Basis Dimension        Dim             ....  172
 Nuclear Repulsion      ENuc            ....    144.4766629567 Eh

Convergence Acceleration:
 DIIS                   CNVDIIS         .... on
   Start iteration      DIISMaxIt       ....    12
   Startup error        DIISStart       ....  0.200000
   # of expansion vecs  DIISMaxEq       ....     5
   Bias factor          DIISBfac        ....   1.050
   Max. coefficient     DIISMaxC        ....  10.000
 Newton-Raphson         CNVNR           .... off
 SOSCF                  CNVSOSCF        .... on
   Start iteration      SOSCFMaxIt      ....   150
   Startup grad/error   SOSCFStart      ....  0.003300
 Level Shifting         CNVShift        .... on
   Level shift para.    LevelShift      ....    0.2500
   Turn off err/grad.   ShiftErr        ....    0.0010
 Zerner damping         CNVZerner       .... off
 Static damping         CNVDamp         .... on
   Fraction old density DampFac         ....    0.7000
   Max. Damping (<1)    DampMax         ....    0.9800
   Min. Damping (>=0)   DampMin         ....    0.0000
   Turn off err/grad.   DampErr         ....    0.1000
 Fernandez-Rico         CNVRico         .... off

SCF Procedure:
 Maximum # iterations   MaxIter         ....   400
 SCF integral mode      SCFMode         .... Direct
   Integral package                     .... LIBINT
 Reset frequeny         DirectResetFreq ....    20
 Integral Threshold     Thresh          ....  2.500e-11 Eh
 Primitive CutOff       TCut            ....  2.500e-12 Eh

Convergence Tolerance:
 Convergence Check Mode ConvCheckMode   .... Total+1el-Energy
 Energy Change          TolE            ....  1.000e-08 Eh
 1-El. energy change                    ....  1.000e-05 Eh
 Orbital Gradient       TolG            ....  1.000e-05
 Orbital Rotation angle TolX            ....  1.000e-05
 DIIS Error             TolErr          ....  5.000e-07


Diagonalization of the overlap matrix:
Smallest eigenvalue                        ... 3.497e-03
Time for diagonalization                   ...    0.005 sec
Threshold for overlap eigenvalues          ... 1.000e-08
Number of eigenvalues below threshold      ... 0
Time for construction of square roots      ...    0.001 sec
Total time needed                          ...    0.007 sec

-------------------
DFT GRID GENERATION
-------------------

General Integration Accuracy     IntAcc      ...  4.670
Radial Grid Type                 RadialGrid  ... Gauss-Chebyshev
Angular Grid (max. acc.)         AngularGrid ... Lebedev-302
Angular grid pruning method      GridPruning ... 3 (G Style)
Weight generation scheme         WeightScheme... Becke
Basis function cutoff            BFCut       ...    1.0000e-11
Integration weight cutoff        WCut        ...    1.0000e-14
Grids for H and He will be reduced by one unit

# of grid points (after initial pruning)     ...  52000 (   0.0 sec)
# of grid points (after weights+screening)   ...  49085 (   0.0 sec)
nearest neighbour list constructed           ...    0.0 sec
Grid point re-assignment to atoms done       ...    0.0 sec
Grid point division into batches done        ...    0.1 sec
Reduced shell lists constructed in    0.1 sec

Total number of grid points                  ...    49085
Total number of batches                      ...      773
Average number of points per batch           ...       63
Average number of grid points per atom       ...     4090
Average number of shells per batch           ...    47.98 (63.14%)
Average number of basis functions per batch  ...   102.62 (59.66%)
Average number of large shells per batch     ...    36.79 (76.67%)
Average number of large basis fcns per batch ...    73.42 (71.55%)
Maximum spatial batch extension              ...  13.78, 10.98, 13.13 au
Average spatial batch extension              ...   0.17,  0.15,  0.17 au

Time for grid setup =    0.173 sec

------------------------------
INITIAL GUESS: MODEL POTENTIAL
------------------------------
Loading Hartree-Fock densities                     ... done
Calculating cut-offs                               ... done
Setting up the integral package                    ... done
Initializing the effective Hamiltonian             ... done
Starting the Coulomb interaction                   ... done (   0.0 sec)
Reading the grid                                   ... done
Mapping shells                                     ... done
Starting the XC term evaluation                    ... done (   0.0 sec)
  promolecular density results
     # of electrons  =     39.996407281
     EX              =    -35.159109420
     EC              =     -1.369565817
     EX+EC           =    -36.528675236
Transforming the Hamiltonian                       ... done (   0.0 sec)
Diagonalizing the Hamiltonian                      ... done (   0.0 sec)
Back transforming the eigenvectors                 ... done (   0.0 sec)
Now organizing SCF variables                       ... done
                      ------------------
                      INITIAL GUESS DONE (   0.3 sec)
                      ------------------
--------------------
COSX GRID GENERATION
--------------------

General Integration Accuracy     IntAcc      ...  3.340
Radial Grid Type                 RadialGrid  ... Gauss-Chebyshev
Angular Grid (max. acc.)         AngularGrid ... Lebedev-50
Angular grid pruning method      GridPruning ... 3 (G Style)
Weight generation scheme         WeightScheme... Becke
Basis function cutoff            BFCut       ...    1.0000e-11
Integration weight cutoff        WCut        ...    1.0000e-14
Grids for H and He will be reduced by one unit

# of grid points (after initial pruning)     ...   4880 (   0.0 sec)
# of grid points (after weights+screening)   ...   4650 (   0.0 sec)
nearest neighbour list constructed           ...    0.0 sec
Grid point re-assignment to atoms done       ...    0.0 sec
Grid point division into batches done        ...    0.0 sec
Reduced shell lists constructed in    0.0 sec

Total number of grid points                  ...     4650
Total number of batches                      ...       79
Average number of points per batch           ...       58
Average number of grid points per atom       ...      388
Average number of shells per batch           ...    51.00 (67.11%)
Average number of basis functions per batch  ...   112.75 (65.55%)
Average number of large shells per batch     ...    38.00 (74.51%)
Average number of large basis fcns per batch ...    77.50 (68.74%)
Maximum spatial batch extension              ...  12.62,  6.62, 11.71 au
Average spatial batch extension              ...   0.31,  0.25,  0.32 au

Overlap Fitting                  UseSFitting ... on
Constructing numerical overlap ... done (      0.0 sec)
Inverting numerical overlap    ... done (      0.0 sec)
Obtaining analytic overlap     ... done (      0.0 sec)
Final contraction and storage  ... done (      0.0 sec)


General Integration Accuracy     IntAcc      ...  3.670
Radial Grid Type                 RadialGrid  ... Gauss-Chebyshev
Angular Grid (max. acc.)         AngularGrid ... Lebedev-50
Angular grid pruning method      GridPruning ... 3 (G Style)
Weight generation scheme         WeightScheme... Becke
Basis function cutoff            BFCut       ...    1.0000e-11
Integration weight cutoff        WCut        ...    1.0000e-14
Grids for H and He will be reduced by one unit

# of grid points (after initial pruning)     ...   6408 (   0.0 sec)
# of grid points (after weights+screening)   ...   6094 (   0.0 sec)
nearest neighbour list constructed           ...    0.0 sec
Grid point re-assignment to atoms done       ...    0.0 sec
Grid point division into batches done        ...    0.0 sec
Reduced shell lists constructed in    0.0 sec

Total number of grid points                  ...     6094
Total number of batches                      ...      101
Average number of points per batch           ...       60
Average number of grid points per atom       ...      508
Average number of shells per batch           ...    51.60 (67.89%)
Average number of basis functions per batch  ...   113.60 (66.05%)
Average number of large shells per batch     ...    39.10 (75.78%)
Average number of large basis fcns per batch ...    79.50 (69.98%)
Maximum spatial batch extension              ...  13.34,  5.59, 12.74 au
Average spatial batch extension              ...   0.28,  0.22,  0.30 au

Overlap Fitting                  UseSFitting ... on
Constructing numerical overlap ... done (      0.0 sec)
Inverting numerical overlap    ... done (      0.0 sec)
Obtaining analytic overlap     ... done (      0.0 sec)
Final contraction and storage  ... done (      0.0 sec)


General Integration Accuracy     IntAcc      ...  4.010
Radial Grid Type                 RadialGrid  ... Gauss-Chebyshev
Angular Grid (max. acc.)         AngularGrid ... Lebedev-110
Angular grid pruning method      GridPruning ... 3 (G Style)
Weight generation scheme         WeightScheme... Becke
Basis function cutoff            BFCut       ...    1.0000e-11
Integration weight cutoff        WCut        ...    1.0000e-14
Grids for H and He will be reduced by one unit

# of grid points (after initial pruning)     ...  11032 (   0.0 sec)
# of grid points (after weights+screening)   ...  10526 (   0.0 sec)
nearest neighbour list constructed           ...    0.0 sec
Grid point re-assignment to atoms done       ...    0.0 sec
Grid point division into batches done        ...    0.0 sec
Reduced shell lists constructed in    0.0 sec

Total number of grid points                  ...    10526
Total number of batches                      ...      173
Average number of points per batch           ...       60
Average number of grid points per atom       ...      877
Average number of shells per batch           ...    50.94 (67.02%)
Average number of basis functions per batch  ...   111.44 (64.79%)
Average number of large shells per batch     ...    38.56 (75.71%)
Average number of large basis fcns per batch ...    78.44 (70.39%)
Maximum spatial batch extension              ...  12.33, 10.35, 14.24 au
Average spatial batch extension              ...   0.27,  0.22,  0.28 au

Overlap Fitting                  UseSFitting ... on
Constructing numerical overlap ... done (      0.0 sec)
Inverting numerical overlap    ... done (      0.0 sec)
Obtaining analytic overlap     ... done (      0.0 sec)
Final contraction and storage  ... done (      0.0 sec)

Time for X-Grid setup             =    0.105 sec
--------------
SCF ITERATIONS
--------------
ITER       Energy         Delta-E        Max-DP      RMS-DP      [F,P]     Damp
               ***  Starting incremental Fock matrix formation  ***
  0   -305.4084048507   0.000000000000 0.05747678  0.00189753  0.3222718 0.7000
  1   -305.5790249267  -0.170620076020 0.03484844  0.00115715  0.1333500 0.7000
                               ***Turning on DIIS***
  2   -305.6340446568  -0.055019730028 0.03286791  0.00136754  0.0305866 0.0000
  3   -305.7314307002  -0.097386043465 0.02334360  0.00072166  0.0767186 0.0000
  4   -305.7501296452  -0.018698945006 0.00556372  0.00020322  0.0133299 0.0000
                      *** Initiating the SOSCF procedure ***
                           *** Shutting down DIIS ***
                      *** Re-Reading the Fockian *** 
                      *** Removing any level shift *** 
ITER      Energy       Delta-E        Grad      Rot      Max-DP    RMS-DP
  5   -305.75079681  -0.0006671636  0.000557  0.000557  0.001582  0.000062
               *** Restarting incremental Fock matrix formation ***
  6   -305.75082216  -0.0000253549  0.000210  0.000477  0.000874  0.000035
  7   -305.75082346  -0.0000012955  0.000173  0.000101  0.000210  0.000009
  8   -305.75082431  -0.0000008511  0.000055  0.000099  0.000178  0.000007
  9   -305.75082443  -0.0000001218  0.000008  0.000013  0.000021  0.000001
 10   -305.75082443   0.0000000034  0.000011  0.000007  0.000012  0.000000
                  ***Gradient check signals convergence***
              ***Rediagonalizing the Fockian in SOSCF/NRSCF***

               *****************************************************
               *                     SUCCESS                       *
               *           SCF CONVERGED AFTER  11 CYCLES          *
               *****************************************************

Setting up the final grid:

General Integration Accuracy     IntAcc      ...  5.010
Radial Grid Type                 RadialGrid  ... Gauss-Chebyshev
Angular Grid (max. acc.)         AngularGrid ... Lebedev-434
Angular grid pruning method      GridPruning ... 3 (G Style)
Weight generation scheme         WeightScheme... Becke
Basis function cutoff            BFCut       ...    1.0000e-11
Integration weight cutoff        WCut        ...    1.0000e-14
Grids for H and He will be reduced by one unit

# of grid points (after initial pruning)     ...  96904 (   0.0 sec)
# of grid points (after weights+screening)   ...  91274 (   0.0 sec)
nearest neighbour list constructed           ...    0.0 sec
Grid point re-assignment to atoms done       ...    0.0 sec
Grid point division into batches done        ...    0.4 sec
Reduced shell lists constructed in    0.5 sec

Total number of grid points                  ...    91274
Total number of batches                      ...     1433
Average number of points per batch           ...       63
Average number of grid points per atom       ...     7606
Average number of shells per batch           ...    45.71 (60.15%)
Average number of basis functions per batch  ...    97.43 (56.65%)
Average number of large shells per batch     ...    35.46 (77.58%)
Average number of large basis fcns per batch ...    70.67 (72.53%)
Maximum spatial batch extension              ...  15.17, 11.10, 15.33 au
Average spatial batch extension              ...   0.16,  0.15,  0.17 au

Final grid set up in    0.5 sec
Final integration                            ... done (   0.1 sec)
Change in XC energy                          ...    -0.000007255
Integrated number of electrons               ...    40.000042727
Previous integrated no of electrons          ...    40.000119087
Old exchange energy                            =     -7.143483603 Eh
New exchange energy                            =     -7.143189650 Eh
Exchange energy change after final integration =      0.000293953 Eh
Total energy after final integration           =   -305.750537734 Eh
Final COS-X integration done in                =     0.291 sec

----------------
TOTAL SCF ENERGY
----------------

Total Energy       :         -305.75053773 Eh           -8319.89511 eV

Components:
Nuclear Repulsion  :          144.47666296 Eh            3931.40987 eV
Electronic Energy  :         -450.22720069 Eh          -12251.30498 eV

One Electron Energy:         -707.84805569 Eh          -19261.52483 eV
Two Electron Energy:          257.62085499 Eh            7010.21986 eV

Virial components:
Potential Energy   :         -610.36222650 Eh          -16608.80056 eV
Kinetic Energy     :          304.61168877 Eh            8288.90545 eV
Virial Ratio       :            2.00373869


DFT components:
N(Alpha)           :       20.000021363290 electrons
N(Beta)            :       20.000021363290 electrons
N(Total)           :       40.000042726579 electrons
E(X)               :      -28.470775270798 Eh       
E(C)               :       -1.628381701862 Eh       
E(XC)              :      -30.099156972660 Eh       

---------------
SCF CONVERGENCE
---------------

  Last Energy change         ...   -3.0308e-09  Tolerance :   1.0000e-08
  Last MAX-Density change    ...    2.7339e-15  Tolerance :   1.0000e-07
  Last RMS-Density change    ...    7.6584e-17  Tolerance :   5.0000e-09
  Last Orbital Gradient      ...    1.1381e-06  Tolerance :   1.0000e-05
  Last Orbital Rotation      ...    2.9168e-06  Tolerance :   1.0000e-05

             **** THE GBW FILE WAS UPDATED (1_B3LYP_GasPhase_onB3LYP_4_waters.gbw) ****
             **** DENSITY FILE WAS UPDATED (1_B3LYP_GasPhase_onB3LYP_4_waters.scfp.tmp) ****
             **** ENERGY FILE WAS UPDATED (1_B3LYP_GasPhase_onB3LYP_4_waters.en.tmp) ****
----------------
ORBITAL ENERGIES
----------------

  NO   OCC          E(Eh)            E(eV) 
   0   2.0000     -19.125335      -520.4268 
   1   2.0000     -19.124683      -520.4091 
   2   2.0000     -19.124576      -520.4062 
   3   2.0000     -19.123755      -520.3838 
   4   2.0000      -1.025106       -27.8946 
   5   2.0000      -1.008119       -27.4323 
   6   2.0000      -1.007405       -27.4129 
   7   2.0000      -0.990799       -26.9610 
   8   2.0000      -0.539566       -14.6823 
   9   2.0000      -0.527900       -14.3649 
  10   2.0000      -0.526317       -14.3218 
  11   2.0000      -0.521622       -14.1941 
  12   2.0000      -0.435838       -11.8598 
  13   2.0000      -0.400417       -10.8959 
  14   2.0000      -0.399588       -10.8733 
  15   2.0000      -0.367301        -9.9948 
  16   2.0000      -0.320495        -8.7211 
  17   2.0000      -0.318777        -8.6744 
  18   2.0000      -0.317842        -8.6489 
  19   2.0000      -0.313855        -8.5404 
  20   0.0000       0.009213         0.2507 
  21   0.0000       0.047000         1.2789 
  22   0.0000       0.047436         1.2908 
  23   0.0000       0.066148         1.8000 
  24   0.0000       0.178334         4.8527 
  25   0.0000       0.194502         5.2927 
  26   0.0000       0.197750         5.3811 
  27   0.0000       0.217640         5.9223 
  28   0.0000       0.286836         7.8052 
  29   0.0000       0.320891         8.7319 
  30   0.0000       0.337377         9.1805 
  31   0.0000       0.347711         9.4617 
  32   0.0000       0.349218         9.5027 
  33   0.0000       0.396083        10.7780 
  34   0.0000       0.397369        10.8130 
  35   0.0000       0.423900        11.5349 
  36   0.0000       0.434817        11.8320 
  37   0.0000       0.447387        12.1740 
  38   0.0000       0.447507        12.1773 
  39   0.0000       0.492328        13.3969 
  40   0.0000       0.550246        14.9730 
  41   0.0000       0.560290        15.2463 
  42   0.0000       0.561072        15.2675 
  43   0.0000       0.577701        15.7200 
  44   0.0000       0.625746        17.0274 
  45   0.0000       0.630667        17.1613 
  46   0.0000       0.668625        18.1942 
  47   0.0000       0.712354        19.3841 
  48   0.0000       0.807722        21.9792 
  49   0.0000       0.823384        22.4054 
  50   0.0000       0.829101        22.5610 
  51   0.0000       0.899891        24.4873 
  52   0.0000       1.082698        29.4617 
  53   0.0000       1.132823        30.8257 
  54   0.0000       1.177971        32.0542 
  55   0.0000       1.180772        32.1304 
  56   0.0000       1.197830        32.5946 
  57   0.0000       1.201401        32.6918 
  58   0.0000       1.225572        33.3495 
  59   0.0000       1.325600        36.0714 
  60   0.0000       1.344493        36.5855 
  61   0.0000       1.359501        36.9939 
  62   0.0000       1.362882        37.0859 
  63   0.0000       1.371021        37.3074 
  64   0.0000       1.555747        42.3340 
  65   0.0000       1.585321        43.1388 
  66   0.0000       1.587173        43.1892 
  67   0.0000       1.621632        44.1268 
  68   0.0000       1.645075        44.7648 
  69   0.0000       1.738910        47.3182 
  70   0.0000       1.754080        47.7309 
  71   0.0000       1.766104        48.0581 
  72   0.0000       1.772897        48.2430 
  73   0.0000       1.830806        49.8188 
  74   0.0000       1.832211        49.8570 
  75   0.0000       1.898465        51.6598 
  76   0.0000       1.972819        53.6831 
  77   0.0000       1.983585        53.9761 
  78   0.0000       2.009039        54.6687 
  79   0.0000       2.025699        55.1221 
  80   0.0000       2.054509        55.9060 
  81   0.0000       2.120236        57.6945 
  82   0.0000       2.157397        58.7058 
  83   0.0000       2.165629        58.9298 
  84   0.0000       2.234689        60.8090 
  85   0.0000       2.241870        61.0044 
  86   0.0000       2.261971        61.5514 
  87   0.0000       2.275885        61.9300 
  88   0.0000       2.303649        62.6855 
  89   0.0000       2.312820        62.9350 
  90   0.0000       2.320299        63.1385 
  91   0.0000       2.353626        64.0454 
  92   0.0000       2.372857        64.5687 
  93   0.0000       2.421347        65.8882 
  94   0.0000       2.429350        66.1060 
  95   0.0000       2.435628        66.2768 
  96   0.0000       2.510765        68.3214 
  97   0.0000       2.514816        68.4316 
  98   0.0000       2.535328        68.9898 
  99   0.0000       2.563165        69.7473 
 100   0.0000       2.603489        70.8445 
 101   0.0000       2.629694        71.5576 
 102   0.0000       2.637788        71.7779 
 103   0.0000       2.706926        73.6592 
 104   0.0000       2.805953        76.3539 
 105   0.0000       2.821305        76.7716 
 106   0.0000       2.841028        77.3083 
 107   0.0000       2.939950        80.0001 
 108   0.0000       2.997156        81.5568 
 109   0.0000       3.079775        83.8049 
 110   0.0000       3.089576        84.0716 
 111   0.0000       3.121674        84.9451 
 112   0.0000       3.638956        99.0210 
 113   0.0000       3.704866       100.8145 
 114   0.0000       3.709429       100.9387 
 115   0.0000       3.808162       103.6254 
 116   0.0000       3.898506       106.0837 
 117   0.0000       3.949761       107.4785 
 118   0.0000       3.966572       107.9359 
 119   0.0000       3.979088       108.2765 
 120   0.0000       5.090796       138.5276 
 121   0.0000       5.093451       138.5998 
 122   0.0000       5.093753       138.6081 
 123   0.0000       5.096366       138.6792 
 124   0.0000       5.220249       142.0502 
 125   0.0000       5.226063       142.2084 
 126   0.0000       5.231314       142.3513 
 127   0.0000       5.235360       142.4614 
 128   0.0000       5.341700       145.3550 
 129   0.0000       5.351146       145.6121 
 130   0.0000       5.356299       145.7523 
 131   0.0000       5.377035       146.3166 
 132   0.0000       5.383755       146.4994 
 133   0.0000       5.404855       147.0736 
 134   0.0000       5.408636       147.1765 
 135   0.0000       5.430765       147.7786 
 136   0.0000       5.441119       148.0604 
 137   0.0000       5.443560       148.1268 
 138   0.0000       5.448055       148.2491 
 139   0.0000       5.451862       148.3527 
 140   0.0000       5.970545       162.4668 
 141   0.0000       5.975408       162.5991 
 142   0.0000       5.976190       162.6204 
 143   0.0000       5.980318       162.7327 
 144   0.0000       6.145440       167.2259 
 145   0.0000       6.209016       168.9559 
 146   0.0000       6.210599       168.9990 
 147   0.0000       6.240767       169.8199 
 148   0.0000       6.322018       172.0309 
 149   0.0000       6.370301       173.3447 
 150   0.0000       6.378003       173.5543 
 151   0.0000       6.385120       173.7479 
 152   0.0000       6.412216       174.4853 
 153   0.0000       6.417663       174.6335 
 154   0.0000       6.440860       175.2647 
 155   0.0000       6.462718       175.8595 
 156   0.0000       6.504643       177.0003 
 157   0.0000       6.552028       178.2897 
 158   0.0000       6.556393       178.4085 
 159   0.0000       6.678371       181.7277 
 160   0.0000       6.870222       186.9482 
 161   0.0000       6.966410       189.5657 
 162   0.0000       6.968084       189.6112 
 163   0.0000       6.985081       190.0737 
 164   0.0000       7.026352       191.1968 
 165   0.0000       7.069886       192.3814 
 166   0.0000       7.076418       192.5591 
 167   0.0000       7.117158       193.6677 
 168   0.0000      43.366233      1180.0552 
 169   0.0000      43.417654      1181.4544 
 170   0.0000      43.424380      1181.6374 
 171   0.0000      43.443174      1182.1489 

                    ********************************
                    * MULLIKEN POPULATION ANALYSIS *
                    ********************************

-----------------------
MULLIKEN ATOMIC CHARGES
-----------------------
   0 O :   -0.681313
   1 H :    0.325039
   2 H :    0.353736
   3 O :   -0.679519
   4 H :    0.326143
   5 H :    0.356123
   6 O :   -0.683536
   7 H :    0.324379
   8 H :    0.355222
   9 O :   -0.680793
  10 H :    0.358616
  11 H :    0.325903
Sum of atomic charges:   -0.0000000

--------------------------------
MULLIKEN REDUCED ORBITAL CHARGES
--------------------------------
  0 O s       :     3.795460  s :     3.795460
      pz      :     1.733157  p :     4.865246
      px      :     1.740503
      py      :     1.391585
      dz2     :     0.002473  d :     0.019492
      dxz     :     0.005631
      dyz     :     0.001103
      dx2y2   :     0.005169
      dxy     :     0.005116
      f0      :     0.000153  f :     0.001115
      f+1     :     0.000103
      f-1     :     0.000200
      f+2     :     0.000151
      f-2     :     0.000184
      f+3     :     0.000140
      f-3     :     0.000185
  1 H s       :     0.628487  s :     0.628487
      pz      :     0.014235  p :     0.046474
      px      :     0.013704
      py      :     0.018534
  2 H s       :     0.589130  s :     0.589130
      pz      :     0.019792  p :     0.057135
      px      :     0.023205
      py      :     0.014138
  3 O s       :     3.793009  s :     3.793009
      pz      :     1.646962  p :     4.865666
      px      :     1.327453
      py      :     1.891251
      dz2     :     0.001600  d :     0.019735
      dxz     :     0.007784
      dyz     :     0.004645
      dx2y2   :     0.001844
      dxy     :     0.003862
      f0      :     0.000113  f :     0.001109
      f+1     :     0.000029
      f-1     :     0.000065
      f+2     :     0.000273
      f-2     :     0.000222
      f+3     :     0.000183
      f-3     :     0.000224
  4 H s       :     0.627513  s :     0.627513
      pz      :     0.014051  p :     0.046344
      px      :     0.016977
      py      :     0.015315
  5 H s       :     0.587103  s :     0.587103
      pz      :     0.019111  p :     0.056774
      px      :     0.020953
      py      :     0.016710
  6 O s       :     3.794491  s :     3.794491
      pz      :     1.716512  p :     4.868680
      px      :     1.545123
      py      :     1.607046
      dz2     :     0.003003  d :     0.019239
      dxz     :     0.003685
      dyz     :     0.003911
      dx2y2   :     0.002813
      dxy     :     0.005827
      f0      :     0.000137  f :     0.001127
      f+1     :     0.000071
      f-1     :     0.000271
      f+2     :     0.000138
      f-2     :     0.000266
      f+3     :     0.000007
      f-3     :     0.000237
  7 H s       :     0.628932  s :     0.628932
      pz      :     0.013788  p :     0.046689
      px      :     0.017464
      py      :     0.015437
  8 H s       :     0.587471  s :     0.587471
      pz      :     0.025712  p :     0.057307
      px      :     0.011094
      py      :     0.020501
  9 O s       :     3.794677  s :     3.794677
      pz      :     1.473812  p :     4.865261
      px      :     1.784870
      py      :     1.606579
      dz2     :     0.000130  d :     0.019748
      dxz     :     0.002406
      dyz     :     0.009633
      dx2y2   :     0.003249
      dxy     :     0.004330
      f0      :     0.000045  f :     0.001107
      f+1     :     0.000253
      f-1     :     0.000209
      f+2     :     0.000118
      f-2     :     0.000386
      f+3     :     0.000071
      f-3     :     0.000025
 10 H s       :     0.584087  s :     0.584087
      pz      :     0.024412  p :     0.057297
      px      :     0.013028
      py      :     0.019857
 11 H s       :     0.627712  s :     0.627712
      pz      :     0.015416  p :     0.046385
      px      :     0.016508
      py      :     0.014460


                     *******************************
                     * LOEWDIN POPULATION ANALYSIS *
                     *******************************

----------------------
LOEWDIN ATOMIC CHARGES
----------------------
   0 O :   -0.296319
   1 H :    0.156732
   2 H :    0.139481
   3 O :   -0.293817
   4 H :    0.158144
   5 H :    0.139485
   6 O :   -0.297986
   7 H :    0.156116
   8 H :    0.138620
   9 O :   -0.296424
  10 H :    0.138909
  11 H :    0.157059

-------------------------------
LOEWDIN REDUCED ORBITAL CHARGES
-------------------------------
  0 O s       :     3.462116  s :     3.462116
      pz      :     1.690831  p :     4.801860
      px      :     1.709267
      py      :     1.401762
      dz2     :     0.003948  d :     0.030130
      dxz     :     0.007163
      dyz     :     0.003017
      dx2y2   :     0.009008
      dxy     :     0.006993
      f0      :     0.000207  f :     0.002213
      f+1     :     0.000166
      f-1     :     0.000418
      f+2     :     0.000224
      f-2     :     0.000346
      f+3     :     0.000426
      f-3     :     0.000426
  1 H s       :     0.682937  s :     0.682937
      pz      :     0.040353  p :     0.160331
      px      :     0.042941
      py      :     0.077037
  2 H s       :     0.664987  s :     0.664987
      pz      :     0.070415  p :     0.195532
      px      :     0.082657
      py      :     0.042460
  3 O s       :     3.462259  s :     3.462259
      pz      :     1.635929  p :     4.799153
      px      :     1.338708
      py      :     1.824516
      dz2     :     0.001693  d :     0.030184
      dxz     :     0.013960
      dyz     :     0.004900
      dx2y2   :     0.004051
      dxy     :     0.005579
      f0      :     0.000283  f :     0.002221
      f+1     :     0.000164
      f-1     :     0.000105
      f+2     :     0.000543
      f-2     :     0.000594
      f+3     :     0.000216
      f-3     :     0.000316
  4 H s       :     0.682060  s :     0.682060
      pz      :     0.047719  p :     0.159797
      px      :     0.065002
      py      :     0.047075
  5 H s       :     0.666184  s :     0.666184
      pz      :     0.070010  p :     0.194330
      px      :     0.070092
      py      :     0.054227
  6 O s       :     3.460764  s :     3.460764
      pz      :     1.660391  p :     4.805037
      px      :     1.560217
      py      :     1.584429
      dz2     :     0.004043  d :     0.029963
      dxz     :     0.005169
      dyz     :     0.006935
      dx2y2   :     0.003789
      dxy     :     0.010026
      f0      :     0.000225  f :     0.002222
      f+1     :     0.000249
      f-1     :     0.000346
      f+2     :     0.000213
      f-2     :     0.000475
      f+3     :     0.000068
      f-3     :     0.000646
  7 H s       :     0.683288  s :     0.683288
      pz      :     0.041347  p :     0.160597
      px      :     0.071813
      py      :     0.047437
  8 H s       :     0.665195  s :     0.665195
      pz      :     0.087957  p :     0.196185
      px      :     0.036097
      py      :     0.072130
  9 O s       :     3.463228  s :     3.463228
      pz      :     1.449850  p :     4.800839
      px      :     1.735979
      py      :     1.615010
      dz2     :     0.000623  d :     0.030155
      dxz     :     0.004986
      dyz     :     0.016315
      dx2y2   :     0.002368
      dxy     :     0.005865
      f0      :     0.000108  f :     0.002201
      f+1     :     0.000310
      f-1     :     0.000503
      f+2     :     0.000276
      f-2     :     0.000766
      f+3     :     0.000176
      f-3     :     0.000062
 10 H s       :     0.664832  s :     0.664832
      pz      :     0.081609  p :     0.196260
      px      :     0.042098
      py      :     0.072552
 11 H s       :     0.682654  s :     0.682654
      pz      :     0.055713  p :     0.160287
      px      :     0.052179
      py      :     0.052395


                      *****************************
                      * MAYER POPULATION ANALYSIS *
                      *****************************

  NA   - Mulliken gross atomic population
  ZA   - Total nuclear charge
  QA   - Mulliken gross atomic charge
  VA   - Mayer's total valence
  BVA  - Mayer's bonded valence
  FA   - Mayer's free valence

  ATOM       NA         ZA         QA         VA         BVA        FA
  0 O      8.6813     8.0000    -0.6813     1.7998     1.7998    -0.0000
  1 H      0.6750     1.0000     0.3250     0.9095     0.9095    -0.0000
  2 H      0.6463     1.0000     0.3537     0.9390     0.9390    -0.0000
  3 O      8.6795     8.0000    -0.6795     1.8059     1.8059    -0.0000
  4 H      0.6739     1.0000     0.3261     0.9076     0.9076    -0.0000
  5 H      0.6439     1.0000     0.3561     0.9415     0.9415    -0.0000
  6 O      8.6835     8.0000    -0.6835     1.8010     1.8010     0.0000
  7 H      0.6756     1.0000     0.3244     0.9102     0.9102     0.0000
  8 H      0.6448     1.0000     0.3552     0.9392     0.9392     0.0000
  9 O      8.6808     8.0000    -0.6808     1.8036     1.8036    -0.0000
 10 H      0.6414     1.0000     0.3586     0.9345     0.9345     0.0000
 11 H      0.6741     1.0000     0.3259     0.9083     0.9083     0.0000

  Mayer bond orders larger than 0.1
B(  0-O ,  1-H ) :   0.8989 B(  0-O ,  2-H ) :   0.7839 B(  0-O ,  8-H ) :   0.1462 
B(  2-H ,  9-O ) :   0.1467 B(  3-O ,  4-H ) :   0.8995 B(  3-O ,  5-H ) :   0.7871 
B(  3-O , 10-H ) :   0.1435 B(  5-H ,  6-O ) :   0.1459 B(  6-O ,  7-H ) :   0.8994 
B(  6-O ,  8-H ) :   0.7842 B(  9-O , 10-H ) :   0.7846 B(  9-O , 11-H ) :   0.8989 


-------
TIMINGS
-------

Total SCF time: 0 days 0 hours 0 min 4 sec 

Total time                  ....       4.667 sec
Sum of individual times     ....       4.613 sec  ( 98.8%)

Fock matrix formation       ....       3.223 sec  ( 69.1%)
  Coulomb formation         ....       2.651 sec  ( 82.3% of F)
  Split-RI-J                ....       0.847 sec  ( 26.3% of F)
  Chain of spheres X        ....       2.076 sec  ( 64.4% of F)
  COS-X 1 center corr.      ....       0.000 sec  (  0.0% of F)
  XC integration            ....       0.565 sec  ( 17.5% of F)
    Basis function eval.    ....       0.169 sec  ( 30.0% of XC)
    Density eval.           ....       0.099 sec  ( 17.6% of XC)
    XC-Functional eval.     ....       0.038 sec  (  6.7% of XC)
    XC-Potential eval.      ....       0.194 sec  ( 34.3% of XC)
Diagonalization             ....       0.040 sec  (  0.8%)
Density matrix formation    ....       0.196 sec  (  4.2%)
Population analysis         ....       0.016 sec  (  0.3%)
Initial guess               ....       0.292 sec  (  6.2%)
Orbital Transformation      ....       0.000 sec  (  0.0%)
Orbital Orthonormalization  ....       0.000 sec  (  0.0%)
DIIS solution               ....       0.009 sec  (  0.2%)
SOSCF solution              ....       0.032 sec  (  0.7%)
Grid generation             ....       0.806 sec  ( 17.3%)
           ************************************************************
           *              Shut down parallel processing               *
           ************************************************************

Entering the calculation of the dispersion correction...

Checking the input atom types...

Done


-------------------------------------------------------------------------------
                          DFT DISPERSION CORRECTION                            
                                                                               
                                DFTD3 V2.1  Rev 6                               
                          USING Becke-Johnson damping                          
-------------------------------------------------------------------------------
The B3LYP functional is recognized
Active option DFTDOPT                   ...         4   

molecular C6(AA) [au] = 712.055794 


            DFT-D V3
 parameters
 s6 scaling factor         :     1.0000 
 a1 scaling factor         :     0.3981 
 s8 scaling factor         :     1.9889 
 a2 scaling factor         :     4.4211 
 ad hoc parameters k1-k3   :    16.0000     1.3333    -4.0000 

 Edisp/kcal,au: -5.069194589735  -0.008078274924 
 E6   /kcal   :  -2.739231396 
 E8   /kcal   :  -2.329963194 
 % E8         :  45.963183163 

-------------------------   ----------------
Dispersion correction           -0.008078275
-------------------------   ----------------


-------------------------   --------------------
FINAL SINGLE POINT ENERGY      -305.758616009215
-------------------------   --------------------


                            ***************************************
                            *     ORCA property calculations      *
                            ***************************************

                                    ---------------------
                                    Active property flags
                                    ---------------------
   (+) Dipole Moment


------------------------------------------------------------------------------
                       ORCA ELECTRIC PROPERTIES CALCULATION
------------------------------------------------------------------------------

Dipole Moment Calculation                       ... on
Quadrupole Moment Calculation                   ... off
Polarizability Calculation                      ... off
GBWName                                         ... 1_B3LYP_GasPhase_onB3LYP_4_waters.gbw
Electron density file                           ... 1_B3LYP_GasPhase_onB3LYP_4_waters.scfp.tmp

-------------
DIPOLE MOMENT
-------------
                                X             Y             Z
Electronic contribution:     -0.02712       0.02024       0.02816
Nuclear contribution   :      0.13784      -0.09653      -0.12927
                        -----------------------------------------
Total Dipole Moment    :      0.11072      -0.07629      -0.10111
                        -----------------------------------------
Magnitude (a.u.)       :      0.16823
Magnitude (Debye)      :      0.42762

smp-n112.crc.pitt.edu.405492hfi_wait_for_device: The /dev/hfi1_0 device failed to appear after 15.0 seconds: Connection timed out
smp-n112.crc.pitt.edu.405494hfi_wait_for_device: The /dev/hfi1_0 device failed to appear after 15.0 seconds: Connection timed out
smp-n112.crc.pitt.edu.405496hfi_wait_for_device: The /dev/hfi1_0 device failed to appear after 15.0 seconds: Connection timed out
smp-n112.crc.pitt.edu.405498hfi_wait_for_device: The /dev/hfi1_0 device failed to appear after 15.0 seconds: Connection timed out
smp-n112.crc.pitt.edu.405500hfi_wait_for_device: The /dev/hfi1_0 device failed to appear after 15.0 seconds: Connection timed out
smp-n112.crc.pitt.edu.405507hfi_wait_for_device: The /dev/hfi1_0 device failed to appear after 15.0 seconds: Connection timed out
smp-n112.crc.pitt.edu.405493hfi_wait_for_device: The /dev/hfi1_0 device failed to appear after 15.0 seconds: Connection timed out
smp-n112.crc.pitt.edu.405495hfi_wait_for_device: The /dev/hfi1_0 device failed to appear after 15.0 seconds: Connection timed out
smp-n112.crc.pitt.edu.405497hfi_wait_for_device: The /dev/hfi1_0 device failed to appear after 15.0 seconds: Connection timed out
smp-n112.crc.pitt.edu.405499hfi_wait_for_device: The /dev/hfi1_0 device failed to appear after 15.0 seconds: Connection timed out
smp-n112.crc.pitt.edu.405501hfi_wait_for_device: The /dev/hfi1_0 device failed to appear after 15.0 seconds: Connection timed out
smp-n112.crc.pitt.edu.405504hfi_wait_for_device: The /dev/hfi1_0 device failed to appear after 15.0 seconds: Connection timed out

Timings for individual modules:

Sum of individual times         ...       35.773 sec (=   0.596 min)
GTO integral calculation        ...       15.470 sec (=   0.258 min)  43.2 %
SCF iterations                  ...       20.303 sec (=   0.338 min)  56.8 %
                             ****ORCA TERMINATED NORMALLY****
TOTAL RUN TIME: 0 days 0 hours 0 minutes 51 seconds 207 msec
cp: cannot stat ‘/scratch/slurm-1328845/*.{prop}’: No such file or directory
