
                                 *****************
                                 * O   R   C   A *
                                 *****************

           --- An Ab Initio, DFT and Semiempirical electronic structure package ---

                  #######################################################
                  #                        -***-                        #
                  #          Department of theory and spectroscopy      #
                  #               Directorship: Frank Neese             #
                  #        Max Planck Institute fuer Kohlenforschung    #
                  #                Kaiser Wilhelm Platz 1               #
                  #                 D-45470 Muelheim/Ruhr               #
                  #                      Germany                        #
                  #                                                     #
                  #                  All rights reserved                #
                  #                        -***-                        #
                  #######################################################


                         Program Version 4.2.0 -  RELEASE  -


 With contributions from (in alphabetic order):
   Daniel Aravena         : Magnetic Suceptibility
   Michael Atanasov       : Ab Initio Ligand Field Theory (pilot matlab implementation)
   Alexander A. Auer      : GIAO ZORA, VPT2
   Ute Becker             : Parallelization
   Giovanni Bistoni       : ED, misc. LED, open-shell LED, HFLED
   Martin Brehm           : Molecular dynamics
   Dmytro Bykov           : SCF Hessian
   Vijay G. Chilkuri      : MRCI spin determinant printing, contributions to CSF-ICE
   Dipayan Datta          : RHF DLPNO-CCSD density
   Achintya Kumar Dutta   : EOM-CC, STEOM-CC
   Dmitry Ganyushin       : Spin-Orbit,Spin-Spin,Magnetic field MRCI
   Miquel Garcia          : C-PCM Hessian, Gaussian charge scheme
   Yang Guo               : DLPNO-NEVPT2, CIM, IAO-localization
   Andreas Hansen         : Spin unrestricted coupled pair/coupled cluster methods
   Benjamin Helmich-Paris : CASSCF linear response (MC-RPA)
   Lee Huntington         : MR-EOM, pCC
   Robert Izsak           : Overlap fitted RIJCOSX, COSX-SCS-MP3, EOM
   Christian Kollmar      : KDIIS, OOCD, Brueckner-CCSD(T), CCSD density
   Simone Kossmann        : Meta GGA functionals, TD-DFT gradient, OOMP2, MP2 Hessian
   Martin Krupicka        : AUTO-CI
   Lucas Lang             : DCDCAS
   Dagmar Lenk            : GEPOL surface, SMD
   Dimitrios Liakos       : Extrapolation schemes; Compound Job, initial MDCI parallelization
   Dimitrios Manganas     : Further ROCIS development; embedding schemes
   Dimitrios Pantazis     : SARC Basis sets
   Taras Petrenko         : DFT Hessian,TD-DFT gradient, ASA, ECA, R-Raman, ABS, FL, XAS/XES, NRVS
   Peter Pinski           : DLPNO-MP2, DLPNO-MP2 Gradient
   Christoph Reimann      : Effective Core Potentials
   Marius Retegan         : Local ZFS, SOC
   Christoph Riplinger    : Optimizer, TS searches, QM/MM, DLPNO-CCSD(T), (RO)-DLPNO pert. Triples
   Tobias Risthaus        : Range-separated hybrids, TD-DFT gradient, RPA, STAB
   Michael Roemelt        : Original ROCIS implementation
   Masaaki Saitow         : Open-shell DLPNO-CCSD energy and density
   Barbara Sandhoefer     : DKH picture change effects
   Avijit Sen             : IP-ROCIS
   Kantharuban Sivalingam : CASSCF convergence, NEVPT2, FIC-MRCI
   Bernardo de Souza      : ESD, SOC TD-DFT
   Georgi Stoychev        : AutoAux, RI-MP2 NMR
   Willem Van den Heuvel  : Paramagnetic NMR
   Boris Wezisla          : Elementary symmetry handling
   Frank Wennmohs         : Technical directorship


 We gratefully acknowledge several colleagues who have allowed us to
 interface, adapt or use parts of their codes:
   Stefan Grimme, W. Hujo, H. Kruse,             : VdW corrections, initial TS optimization,
                  C. Bannwarth                     DFT functionals, gCP, sTDA/sTD-DF
   Ed Valeev, F. Pavosevic, A. Kumar             : LibInt (2-el integral package), F12 methods
   Garnet Chan, S. Sharma, J. Yang, R. Olivares  : DMRG
   Ulf Ekstrom                                   : XCFun DFT Library
   Mihaly Kallay                                 : mrcc  (arbitrary order and MRCC methods)
   Andreas Klamt, Michael Diedenhofen            : otool_cosmo (COSMO solvation model)
   Jiri Pittner, Ondrej Demel                    : Mk-CCSD
   Frank Weinhold                                : gennbo (NPA and NBO analysis)
   Christopher J. Cramer and Donald G. Truhlar   : smd solvation model
   Lars Goerigk                                  : TD-DFT with DH, B97 family of functionals
   V. Asgeirsson, H. Jonsson                     : NEB implementation
   FAccTs GmbH                                   : IRC, NEB, NEB-TS, Multilevel, MM, QM/MM, CI optimization
   S Lehtola, MJT Oliveira, MAL Marques          : LibXC Library


 Your calculation uses the libint2 library for the computation of 2-el integrals
 For citations please refer to: http://libint.valeyev.net

 Your ORCA version has been built with support for libXC version: 4.2.3
 For citations please refer to: https://tddft.org/programs/libxc/

 This ORCA versions uses:
   CBLAS   interface :  Fast vector & matrix operations
   LAPACKE interface :  Fast linear algebra routines
   SCALAPACK package :  Parallel linear algebra routines


----- Orbital basis set information -----
Your calculation utilizes the basis: def2-TZVP
   F. Weigend and R. Ahlrichs, Phys. Chem. Chem. Phys. 7, 3297 (2005).

================================================================================
                                        WARNINGS
                       Please study these warnings very carefully!
================================================================================


WARNING: The frozen-core approximation for MP2-gradient calculations is turned on by default.

INFO   : the flag for use of LIBINT has been found!

================================================================================
                                       INPUT FILE
================================================================================
NAME = 12mecn.remya.etal.2.mol1,4,10-orca.engrad-mp2.def2tzvp.frozencore.inp
|  1> # 12mecn.remya.etal.2.mol1,4,10
|  2> ! MP2 def2-TZVP EnGrad TightSCF
|  3> 
|  4> %pal
|  5>     nprocs 6
|  6> end
|  7> 
|  8> %maxcore 8000
|  9> 
| 10> %scf
| 11>     ConvForced true
| 12> end
| 13> 
| 14> *xyz 0 1
| 15> C  -4.697980000  -0.249690000   1.746215000
| 16> H  -4.927570000   0.755530000   2.111799000
| 17> H  -3.709180000  -0.561560000   2.093253000
| 18> H  -5.432280000  -0.961520000   2.128066000
| 19> C  -4.714100000  -0.247110000   0.301670000
| 20> N  -4.729750000  -0.234960000  -0.865260000
| 21> C  -1.509690000  -0.693960000  -1.610140000
| 22> H  -1.327010000  -1.692700000  -2.017370000
| 23> H  -0.742170000  -0.000650000  -1.964400000
| 24> H  -2.491920000  -0.334310000  -1.929350000
| 25> C  -1.473570000  -0.748120000  -0.167200000
| 26> N  -1.447490000  -0.793720000   0.998938000
| 27> C   4.602033000   0.321019000  -1.784800000
| 28> H   4.827650000  -0.662160000  -2.207910000
| 29> H   5.320558000   1.057980000  -2.148500000
| 30> H   3.601982000   0.643751000  -2.087520000
| 31> C   4.654967000   0.244048000  -0.343060000
| 32> N   4.691648000   0.166590000   0.820757000
| 33> *
| 34> 
| 35>                          ****END OF INPUT****
================================================================================

                     *******************************
                     * Energy+Gradient Calculation *
                     *******************************

---------------------------------
CARTESIAN COORDINATES (ANGSTROEM)
---------------------------------
  C     -4.697980   -0.249690    1.746215
  H     -4.927570    0.755530    2.111799
  H     -3.709180   -0.561560    2.093253
  H     -5.432280   -0.961520    2.128066
  C     -4.714100   -0.247110    0.301670
  N     -4.729750   -0.234960   -0.865260
  C     -1.509690   -0.693960   -1.610140
  H     -1.327010   -1.692700   -2.017370
  H     -0.742170   -0.000650   -1.964400
  H     -2.491920   -0.334310   -1.929350
  C     -1.473570   -0.748120   -0.167200
  N     -1.447490   -0.793720    0.998938
  C      4.602033    0.321019   -1.784800
  H      4.827650   -0.662160   -2.207910
  H      5.320558    1.057980   -2.148500
  H      3.601982    0.643751   -2.087520
  C      4.654967    0.244048   -0.343060
  N      4.691648    0.166590    0.820757

----------------------------
CARTESIAN COORDINATES (A.U.)
----------------------------
  NO LB      ZA    FRAG     MASS         X           Y           Z
   0 C     6.0000    0    12.011   -8.877896   -0.471846    3.299868
   1 H     1.0000    0     1.008   -9.311758    1.427745    3.990722
   2 H     1.0000    0     1.008   -7.009334   -1.061195    3.955675
   3 H     1.0000    0     1.008  -10.265521   -1.817009    4.021462
   4 C     6.0000    0    12.011   -8.908358   -0.466970    0.570074
   5 N     7.0000    0    14.007   -8.937932   -0.444010   -1.635104
   6 C     6.0000    0    12.011   -2.852901   -1.311394   -3.042724
   7 H     1.0000    0     1.008   -2.507685   -3.198739   -3.812277
   8 H     1.0000    0     1.008   -1.402498   -0.001228   -3.712178
   9 H     1.0000    0     1.008   -4.709046   -0.631754   -3.645943
  10 C     6.0000    0    12.011   -2.784644   -1.413742   -0.315962
  11 N     7.0000    0    14.007   -2.735360   -1.499913    1.887719
  12 C     6.0000    0    12.011    8.696582    0.606638   -3.372783
  13 H     1.0000    0     1.008    9.122936   -1.251301   -4.172345
  14 H     1.0000    0     1.008   10.054397    1.999292   -4.060077
  15 H     1.0000    0     1.008    6.806760    1.216513   -3.944841
  16 C     6.0000    0    12.011    8.796613    0.461184   -0.648289
  17 N     7.0000    0    14.007    8.865930    0.314809    1.551006

--------------------------------
INTERNAL COORDINATES (ANGSTROEM)
--------------------------------
 C      0   0   0     0.000000000000     0.00000000     0.00000000
 H      1   0   0     1.093997476028     0.00000000     0.00000000
 H      1   2   0     1.093354338878   110.23188073     0.00000000
 H      1   2   3     1.091654077582   109.94364040   119.12222513
 C      1   2   3     1.444637244371   109.27900475   240.05041290
 N      5   1   2     1.167098183488   179.48927802   358.44615688
 C      6   5   1     3.336811894309   102.05360307   112.84708689
 H      7   6   5     1.093933198555   111.70560639   108.16292756
 H      7   6   5     1.093282147526   131.49629836   255.54745959
 H      7   6   5     1.093626499085    32.13524685   201.45653336
 C      7   6   5     1.444407769157    78.83036115     1.46927785
 N     11   7   6     1.167320590688   179.82285150    38.98509084
 C      9   7   6     5.356886484775   136.68443158   154.79501840
 H     13   9   7     1.093876614994    97.97997154    53.84037372
 H     13   9   7     1.091635186839   133.31582567   181.21557540
 H     13   9   7     1.093570914402    25.32760184   175.33344176
 C     13   9   7     1.444763223091    93.83075383   303.72485333
 N     17  13   9     1.166968400178   179.19159853    64.80002337

---------------------------
INTERNAL COORDINATES (A.U.)
---------------------------
 C      0   0   0     0.000000000000     0.00000000     0.00000000
 H      1   0   0     2.067355620894     0.00000000     0.00000000
 H      1   2   0     2.066140267815   110.23188073     0.00000000
 H      1   2   3     2.062927239608   109.94364040   119.12222513
 C      1   2   3     2.729968754725   109.27900475   240.05041290
 N      5   1   2     2.205495938188   179.48927802   358.44615688
 C      6   5   1     6.305660640654   102.05360307   112.84708689
 H      7   6   5     2.067234154073   111.70560639   108.16292756
 H      7   6   5     2.066003845930   131.49629836   255.54745959
 H      7   6   5     2.066654576069    32.13524685   201.45653336
 C      7   6   5     2.729535109414    78.83036115     1.46927785
 N     11   7   6     2.205916226887   179.82285150    38.98509084
 C      9   7   6    10.123048386730   136.68443158   154.79501840
 H     13   9   7     2.067127226639    97.97997154    53.84037372
 H     13   9   7     2.062891541279   133.31582567   181.21557540
 H     13   9   7     2.066549536241    25.32760184   175.33344176
 C     13   9   7     2.730206820004    93.83075383   303.72485333
 N     17  13   9     2.205250683277   179.19159853    64.80002337

---------------------
BASIS SET INFORMATION
---------------------
There are 3 groups of distinct atoms

 Group   1 Type C   : 11s6p2d1f contracted to 5s3p2d1f pattern {62111/411/11/1}
 Group   2 Type H   : 5s1p contracted to 3s1p pattern {311/1}
 Group   3 Type N   : 11s6p2d1f contracted to 5s3p2d1f pattern {62111/411/11/1}

Atom   0C    basis set group =>   1
Atom   1H    basis set group =>   2
Atom   2H    basis set group =>   2
Atom   3H    basis set group =>   2
Atom   4C    basis set group =>   1
Atom   5N    basis set group =>   3
Atom   6C    basis set group =>   1
Atom   7H    basis set group =>   2
Atom   8H    basis set group =>   2
Atom   9H    basis set group =>   2
Atom  10C    basis set group =>   1
Atom  11N    basis set group =>   3
Atom  12C    basis set group =>   1
Atom  13H    basis set group =>   2
Atom  14H    basis set group =>   2
Atom  15H    basis set group =>   2
Atom  16C    basis set group =>   1
Atom  17N    basis set group =>   3


           ************************************************************
           *        Program running with 6 parallel MPI-processes     *
           *              working on a common directory               *
           ************************************************************
------------------------------------------------------------------------------
                           ORCA GTO INTEGRAL CALCULATION
------------------------------------------------------------------------------

                         BASIS SET STATISTICS AND STARTUP INFO

 # of primitive gaussian shells          ...  234
 # of primitive gaussian functions       ...  486
 # of contracted shells                  ...  135
 # of contracted basis functions         ...  333
 Highest angular momentum                ...    3
 Maximum contraction depth               ...    6
 Integral package used                   ... LIBINT
 Integral threshhold            Thresh   ...  2.500e-11
 Primitive cut-off              TCut     ...  2.500e-12


------------------------------ INTEGRAL EVALUATION ----------------------------


 * One electron integrals 
 Pre-screening matrix                    ... done
 Shell pair data                         ... done (   0.002 sec)



           ************************************************************
           *        Program running with 6 parallel MPI-processes     *
           *              working on a common directory               *
           ************************************************************
-------------------------------------------------------------------------------
                                 ORCA SCF
-------------------------------------------------------------------------------

------------
SCF SETTINGS
------------
Hamiltonian:
 Ab initio Hamiltonian  Method          .... Hartree-Fock(GTOs)


General Settings:
 Integral files         IntName         .... 12mecn.remya.etal.2.mol1,4,10-orca.engrad-mp2.def2tzvp.frozencore
 Hartree-Fock type      HFTyp           .... RHF
 Total Charge           Charge          ....    0
 Multiplicity           Mult            ....    1
 Number of Electrons    NEL             ....   66
 Basis Dimension        Dim             ....  333
 Nuclear Repulsion      ENuc            ....    311.4900738936 Eh

Convergence Acceleration:
 DIIS                   CNVDIIS         .... on
   Start iteration      DIISMaxIt       ....    12
   Startup error        DIISStart       ....  0.200000
   # of expansion vecs  DIISMaxEq       ....     5
   Bias factor          DIISBfac        ....   1.050
   Max. coefficient     DIISMaxC        ....  10.000
 Newton-Raphson         CNVNR           .... off
 SOSCF                  CNVSOSCF        .... on
   Start iteration      SOSCFMaxIt      ....   150
   Startup grad/error   SOSCFStart      ....  0.003300
 Level Shifting         CNVShift        .... on
   Level shift para.    LevelShift      ....    0.2500
   Turn off err/grad.   ShiftErr        ....    0.0010
 Zerner damping         CNVZerner       .... off
 Static damping         CNVDamp         .... on
   Fraction old density DampFac         ....    0.7000
   Max. Damping (<1)    DampMax         ....    0.9800
   Min. Damping (>=0)   DampMin         ....    0.0000
   Turn off err/grad.   DampErr         ....    0.1000
 Fernandez-Rico         CNVRico         .... off

SCF Procedure:
 Maximum # iterations   MaxIter         ....   125
 SCF integral mode      SCFMode         .... Direct
   Integral package                     .... LIBINT
 Reset frequency        DirectResetFreq ....    20
 Integral Threshold     Thresh          ....  2.500e-11 Eh
 Primitive CutOff       TCut            ....  2.500e-12 Eh

Convergence Tolerance:
 Convergence Check Mode ConvCheckMode   .... Total+1el-Energy
 Convergence forced     ConvForced      .... 1
 Energy Change          TolE            ....  1.000e-08 Eh
 1-El. energy change                    ....  1.000e-05 Eh
 Orbital Gradient       TolG            ....  1.000e-05
 Orbital Rotation angle TolX            ....  1.000e-05
 DIIS Error             TolErr          ....  5.000e-07


Diagonalization of the overlap matrix:
Smallest eigenvalue                        ... 1.479e-04
Time for diagonalization                   ...    0.016 sec
Threshold for overlap eigenvalues          ... 1.000e-08
Number of eigenvalues below threshold      ... 0
Time for construction of square roots      ...    0.008 sec
Total time needed                          ...    0.024 sec

-------------------
DFT GRID GENERATION
-------------------

General Integration Accuracy     IntAcc      ...  4.340
Radial Grid Type                 RadialGrid  ... Gauss-Chebyshev
Angular Grid (max. acc.)         AngularGrid ... Lebedev-110
Angular grid pruning method      GridPruning ... 3 (G Style)
Weight generation scheme         WeightScheme... Becke
Basis function cutoff            BFCut       ...    1.0000e-11
Integration weight cutoff        WCut        ...    1.0000e-14
Grids for H and He will be reduced by one unit

# of grid points (after initial pruning)     ...  22188 (   0.0 sec)
# of grid points (after weights+screening)   ...  21004 (   0.0 sec)
nearest neighbour list constructed           ...    0.0 sec
Grid point re-assignment to atoms done       ...    0.0 sec
Grid point division into batches done        ...    0.0 sec
Reduced shell lists constructed in    0.0 sec

Total number of grid points                  ...    21004
Total number of batches                      ...      338
Average number of points per batch           ...       62
Average number of grid points per atom       ...     1167
Average number of shells per batch           ...    56.64 (41.95%)
Average number of basis functions per batch  ...   139.22 (41.81%)
Average number of large shells per batch     ...    43.17 (76.23%)
Average number of large basis fcns per batch ...   103.45 (74.30%)
Maximum spatial batch extension              ...  22.47, 24.24, 19.63 au
Average spatial batch extension              ...   0.77,  0.84,  0.82 au

Time for grid setup =    0.070 sec

------------------------------
INITIAL GUESS: MODEL POTENTIAL
------------------------------
Loading Hartree-Fock densities                     ... done
Calculating cut-offs                               ... done
Setting up the integral package                    ... done
Initializing the effective Hamiltonian             ... done
Starting the Coulomb interaction                   ... done (   0.0 sec)
Reading the grid                                   ... done
Mapping shells                                     ... done
Starting the XC term evaluation                    ... done (   0.0 sec)
Transforming the Hamiltonian                       ... done (   0.0 sec)
Diagonalizing the Hamiltonian                      ... done (   0.0 sec)
Back transforming the eigenvectors                 ... done (   0.0 sec)
Now organizing SCF variables                       ... done
                      ------------------
                      INITIAL GUESS DONE (   0.2 sec)
                      ------------------
--------------
SCF ITERATIONS
--------------
ITER       Energy         Delta-E        Max-DP      RMS-DP      [F,P]     Damp
               ***  Starting incremental Fock matrix formation  ***
  0   -395.4418512691   0.000000000000 0.03795659  0.00084682  0.2827022 0.7000
  1   -395.6153153944  -0.173464125277 0.02717422  0.00066782  0.1879216 0.7000
                               ***Turning on DIIS***
  2   -395.7171828027  -0.101867408287 0.01616958  0.00044239  0.1421742 0.7000
  3   -396.6717084655  -0.954525662843 0.01076653  0.00029191  0.1056455 0.7000
  4   -396.6177882492   0.053920216297 0.02910858  0.00071425  0.0744172 0.0000
  5   -395.9551189075   0.662669341705 0.00631915  0.00011478  0.0061521 0.0000
                      *** Initiating the SOSCF procedure ***
                           *** Shutting down DIIS ***
                      *** Re-Reading the Fockian *** 
                      *** Removing any level shift *** 
ITER      Energy       Delta-E        Grad      Rot      Max-DP    RMS-DP
  6   -395.93686533   0.0182535735  0.001158  0.001158  0.004398  0.000071
               *** Restarting incremental Fock matrix formation ***
  7   -395.92733617   0.0095291603  0.000464  0.000739  0.002979  0.000050
  8   -395.92735559  -0.0000194151  0.000303  0.000468  0.002557  0.000042
  9   -395.92736013  -0.0000045418  0.000110  0.000137  0.000789  0.000012
 10   -395.92736080  -0.0000006720  0.000017  0.000028  0.000089  0.000001
 11   -395.92736083  -0.0000000245  0.000014  0.000037  0.000051  0.000001
 12   -395.92736084  -0.0000000115  0.000005  0.000009  0.000035  0.000001
 13   -395.92736084  -0.0000000020  0.000004  0.000006  0.000014  0.000000
                  ***Gradient check signals convergence***
              ***Rediagonalizing the Fockian in SOSCF/NRSCF***

               *****************************************************
               *                     SUCCESS                       *
               *           SCF CONVERGED AFTER  14 CYCLES          *
               *****************************************************


----------------
TOTAL SCF ENERGY
----------------

Total Energy       :         -395.92736084 Eh          -10773.73121 eV

Components:
Nuclear Repulsion  :          311.49007389 Eh            8476.07583 eV
Electronic Energy  :         -707.41743474 Eh          -19249.80704 eV
One Electron Energy:        -1151.98142858 Eh          -31347.00832 eV
Two Electron Energy:          444.56399385 Eh           12097.20128 eV

Virial components:
Potential Energy   :         -791.08291559 Eh          -21526.46052 eV
Kinetic Energy     :          395.15555475 Eh           10752.72930 eV
Virial Ratio       :            2.00195317


---------------
SCF CONVERGENCE
---------------

  Last Energy change         ...   -1.9172e-09  Tolerance :   1.0000e-08
  Last MAX-Density change    ...    3.2668e-06  Tolerance :   1.0000e-07
  Last RMS-Density change    ...    5.3813e-08  Tolerance :   5.0000e-09
  Last Orbital Gradient      ...    1.3574e-06  Tolerance :   1.0000e-05
  Last Orbital Rotation      ...    3.6873e-06  Tolerance :   1.0000e-05

             **** THE GBW FILE WAS UPDATED (12mecn.remya.etal.2.mol1,4,10-orca.engrad-mp2.def2tzvp.frozencore.gbw) ****
             **** DENSITY FILE WAS UPDATED (12mecn.remya.etal.2.mol1,4,10-orca.engrad-mp2.def2tzvp.frozencore.scfp) ****
             **** ENERGY FILE WAS UPDATED (12mecn.remya.etal.2.mol1,4,10-orca.engrad-mp2.def2tzvp.frozencore.en.tmp) ****
             **** THE GBW FILE WAS UPDATED (12mecn.remya.etal.2.mol1,4,10-orca.engrad-mp2.def2tzvp.frozencore.gbw) ****
             **** DENSITY FILE WAS UPDATED (12mecn.remya.etal.2.mol1,4,10-orca.engrad-mp2.def2tzvp.frozencore.scfp) ****
----------------
ORBITAL ENERGIES
----------------

  NO   OCC          E(Eh)            E(eV) 
   0   2.0000     -15.573256      -423.7698 
   1   2.0000     -15.571954      -423.7344 
   2   2.0000     -15.571232      -423.7148 
   3   2.0000     -11.286543      -307.1224 
   4   2.0000     -11.284005      -307.0534 
   5   2.0000     -11.282470      -307.0116 
   6   2.0000     -11.279781      -306.9384 
   7   2.0000     -11.273607      -306.7704 
   8   2.0000     -11.271930      -306.7248 
   9   2.0000      -1.218207       -33.1491 
  10   2.0000      -1.214239       -33.0411 
  11   2.0000      -1.213918       -33.0324 
  12   2.0000      -1.045408       -28.4470 
  13   2.0000      -1.037734       -28.2382 
  14   2.0000      -1.034808       -28.1586 
  15   2.0000      -0.701090       -19.0776 
  16   2.0000      -0.695356       -18.9216 
  17   2.0000      -0.690925       -18.8010 
  18   2.0000      -0.635791       -17.3008 
  19   2.0000      -0.631515       -17.1844 
  20   2.0000      -0.631231       -17.1767 
  21   2.0000      -0.625885       -17.0312 
  22   2.0000      -0.623740       -16.9728 
  23   2.0000      -0.614308       -16.7162 
  24   2.0000      -0.559481       -15.2243 
  25   2.0000      -0.555897       -15.1267 
  26   2.0000      -0.555441       -15.1143 
  27   2.0000      -0.460479       -12.5303 
  28   2.0000      -0.458846       -12.4858 
  29   2.0000      -0.457674       -12.4539 
  30   2.0000      -0.457085       -12.4379 
  31   2.0000      -0.457047       -12.4369 
  32   2.0000      -0.455841       -12.4041 
  33   0.0000       0.105311         2.8657 
  34   0.0000       0.130149         3.5415 
  35   0.0000       0.140957         3.8356 
  36   0.0000       0.163025         4.4361 
  37   0.0000       0.168735         4.5915 
  38   0.0000       0.170561         4.6412 
  39   0.0000       0.175190         4.7672 
  40   0.0000       0.181671         4.9435 
  41   0.0000       0.195564         5.3216 
  42   0.0000       0.198893         5.4122 
  43   0.0000       0.208370         5.6700 
  44   0.0000       0.212466         5.7815 
  45   0.0000       0.220817         6.0087 
  46   0.0000       0.224018         6.0958 
  47   0.0000       0.227492         6.1904 
  48   0.0000       0.244174         6.6443 
  49   0.0000       0.257119         6.9966 
  50   0.0000       0.265380         7.2213 
  51   0.0000       0.271251         7.3811 
  52   0.0000       0.282911         7.6984 
  53   0.0000       0.309403         8.4193 
  54   0.0000       0.313882         8.5412 
  55   0.0000       0.319186         8.6855 
  56   0.0000       0.324314         8.8250 
  57   0.0000       0.326845         8.8939 
  58   0.0000       0.336149         9.1471 
  59   0.0000       0.350517         9.5380 
  60   0.0000       0.377758        10.2793 
  61   0.0000       0.381383        10.3780 
  62   0.0000       0.390878        10.6363 
  63   0.0000       0.400909        10.9093 
  64   0.0000       0.410030        11.1575 
  65   0.0000       0.419681        11.4201 
  66   0.0000       0.453686        12.3454 
  67   0.0000       0.468967        12.7612 
  68   0.0000       0.479336        13.0434 
  69   0.0000       0.491772        13.3818 
  70   0.0000       0.499015        13.5789 
  71   0.0000       0.523537        14.2462 
  72   0.0000       0.532332        14.4855 
  73   0.0000       0.554169        15.0797 
  74   0.0000       0.559782        15.2324 
  75   0.0000       0.587033        15.9740 
  76   0.0000       0.592217        16.1150 
  77   0.0000       0.597753        16.2657 
  78   0.0000       0.599344        16.3090 
  79   0.0000       0.606568        16.5056 
  80   0.0000       0.612090        16.6558 
  81   0.0000       0.627006        17.0617 
  82   0.0000       0.638042        17.3620 
  83   0.0000       0.653866        17.7926 
  84   0.0000       0.659840        17.9552 
  85   0.0000       0.666612        18.1394 
  86   0.0000       0.672863        18.3095 
  87   0.0000       0.681856        18.5543 
  88   0.0000       0.696628        18.9562 
  89   0.0000       0.708960        19.2918 
  90   0.0000       0.728237        19.8163 
  91   0.0000       0.743712        20.2374 
  92   0.0000       0.753762        20.5109 
  93   0.0000       0.791289        21.5321 
  94   0.0000       0.801429        21.8080 
  95   0.0000       0.809825        22.0365 
  96   0.0000       0.812900        22.1201 
  97   0.0000       0.814806        22.1720 
  98   0.0000       0.825574        22.4650 
  99   0.0000       0.850415        23.1410 
 100   0.0000       0.858568        23.3628 
 101   0.0000       0.914244        24.8779 
 102   0.0000       0.917691        24.9716 
 103   0.0000       0.919186        25.0123 
 104   0.0000       0.930303        25.3148 
 105   0.0000       0.932039        25.3621 
 106   0.0000       0.967692        26.3322 
 107   0.0000       1.029575        28.0162 
 108   0.0000       1.034507        28.1504 
 109   0.0000       1.058078        28.7918 
 110   0.0000       1.094513        29.7832 
 111   0.0000       1.119843        30.4725 
 112   0.0000       1.120826        30.4992 
 113   0.0000       1.133279        30.8381 
 114   0.0000       1.142384        31.0858 
 115   0.0000       1.149613        31.2826 
 116   0.0000       1.177604        32.0442 
 117   0.0000       1.321931        35.9716 
 118   0.0000       1.336283        36.3621 
 119   0.0000       1.338032        36.4097 
 120   0.0000       1.388761        37.7901 
 121   0.0000       1.419548        38.6279 
 122   0.0000       1.419781        38.6342 
 123   0.0000       1.423767        38.7427 
 124   0.0000       1.428835        38.8806 
 125   0.0000       1.443120        39.2693 
 126   0.0000       1.448892        39.4263 
 127   0.0000       1.457176        39.6518 
 128   0.0000       1.466024        39.8925 
 129   0.0000       1.469584        39.9894 
 130   0.0000       1.470757        40.0213 
 131   0.0000       1.475855        40.1601 
 132   0.0000       1.486212        40.4419 
 133   0.0000       1.495078        40.6831 
 134   0.0000       1.509969        41.0883 
 135   0.0000       1.520087        41.3637 
 136   0.0000       1.531168        41.6652 
 137   0.0000       1.561593        42.4931 
 138   0.0000       1.692702        46.0608 
 139   0.0000       1.698620        46.2218 
 140   0.0000       1.699204        46.2377 
 141   0.0000       1.720655        46.8214 
 142   0.0000       1.733991        47.1843 
 143   0.0000       1.734900        47.2090 
 144   0.0000       1.744601        47.4730 
 145   0.0000       1.761104        47.9221 
 146   0.0000       1.763193        47.9789 
 147   0.0000       1.765693        48.0470 
 148   0.0000       1.785880        48.5963 
 149   0.0000       1.787711        48.6461 
 150   0.0000       1.798295        48.9341 
 151   0.0000       1.805885        49.1406 
 152   0.0000       1.819518        49.5116 
 153   0.0000       1.833225        49.8846 
 154   0.0000       1.841352        50.1057 
 155   0.0000       1.865401        50.7601 
 156   0.0000       1.935049        52.6554 
 157   0.0000       1.936132        52.6848 
 158   0.0000       1.939987        52.7897 
 159   0.0000       1.944749        52.9193 
 160   0.0000       1.968304        53.5603 
 161   0.0000       1.973438        53.7000 
 162   0.0000       1.976638        53.7871 
 163   0.0000       2.012927        54.7745 
 164   0.0000       2.035673        55.3935 
 165   0.0000       2.218086        60.3572 
 166   0.0000       2.225272        60.5527 
 167   0.0000       2.234608        60.8068 
 168   0.0000       2.237616        60.8886 
 169   0.0000       2.247374        61.1542 
 170   0.0000       2.257301        61.4243 
 171   0.0000       2.263558        61.5946 
 172   0.0000       2.271767        61.8179 
 173   0.0000       2.301358        62.6231 
 174   0.0000       2.339331        63.6564 
 175   0.0000       2.366053        64.3836 
 176   0.0000       2.367617        64.4261 
 177   0.0000       2.541365        69.1541 
 178   0.0000       2.544474        69.2387 
 179   0.0000       2.552889        69.4676 
 180   0.0000       2.560745        69.6814 
 181   0.0000       2.570242        69.9399 
 182   0.0000       2.579856        70.2015 
 183   0.0000       2.583865        70.3105 
 184   0.0000       2.599406        70.7334 
 185   0.0000       2.615136        71.1615 
 186   0.0000       2.618196        71.2447 
 187   0.0000       2.628716        71.5310 
 188   0.0000       2.630671        71.5842 
 189   0.0000       2.637724        71.7761 
 190   0.0000       2.649025        72.0836 
 191   0.0000       2.674886        72.7873 
 192   0.0000       2.703009        73.5526 
 193   0.0000       2.710133        73.7465 
 194   0.0000       2.733969        74.3951 
 195   0.0000       2.744754        74.6886 
 196   0.0000       2.746693        74.7413 
 197   0.0000       2.752672        74.9040 
 198   0.0000       2.758853        75.0722 
 199   0.0000       2.765264        75.2467 
 200   0.0000       2.812108        76.5213 
 201   0.0000       2.909892        79.1822 
 202   0.0000       2.912309        79.2480 
 203   0.0000       2.913254        79.2737 
 204   0.0000       2.913806        79.2887 
 205   0.0000       2.915574        79.3368 
 206   0.0000       2.922782        79.5329 
 207   0.0000       2.945429        80.1492 
 208   0.0000       2.952040        80.3291 
 209   0.0000       2.954986        80.4092 
 210   0.0000       2.956693        80.4557 
 211   0.0000       2.964769        80.6755 
 212   0.0000       3.001654        81.6792 
 213   0.0000       3.021649        82.2232 
 214   0.0000       3.034639        82.5767 
 215   0.0000       3.048625        82.9573 
 216   0.0000       3.084894        83.9442 
 217   0.0000       3.094480        84.2051 
 218   0.0000       3.095985        84.2460 
 219   0.0000       3.099899        84.3525 
 220   0.0000       3.102693        84.4286 
 221   0.0000       3.151126        85.7465 
 222   0.0000       3.216645        87.5294 
 223   0.0000       3.230782        87.9141 
 224   0.0000       3.236707        88.0753 
 225   0.0000       3.244124        88.2771 
 226   0.0000       3.246336        88.3373 
 227   0.0000       3.258166        88.6592 
 228   0.0000       3.264699        88.8370 
 229   0.0000       3.270952        89.0071 
 230   0.0000       3.308836        90.0380 
 231   0.0000       3.330343        90.6232 
 232   0.0000       3.331770        90.6621 
 233   0.0000       3.336376        90.7874 
 234   0.0000       3.348550        91.1187 
 235   0.0000       3.364297        91.5472 
 236   0.0000       3.402152        92.5773 
 237   0.0000       3.440648        93.6248 
 238   0.0000       3.443289        93.6967 
 239   0.0000       3.445848        93.7663 
 240   0.0000       3.450775        93.9004 
 241   0.0000       3.464163        94.2647 
 242   0.0000       3.483775        94.7984 
 243   0.0000       3.487128        94.8896 
 244   0.0000       3.545511        96.4782 
 245   0.0000       3.547366        96.5287 
 246   0.0000       3.635373        98.9235 
 247   0.0000       3.653544        99.4180 
 248   0.0000       3.659733        99.5864 
 249   0.0000       3.667572        99.7997 
 250   0.0000       3.671409        99.9041 
 251   0.0000       3.672000        99.9202 
 252   0.0000       3.798405       103.3598 
 253   0.0000       3.799171       103.3807 
 254   0.0000       3.806235       103.5729 
 255   0.0000       3.807592       103.6098 
 256   0.0000       3.809719       103.6677 
 257   0.0000       3.860445       105.0480 
 258   0.0000       3.927399       106.8700 
 259   0.0000       3.940315       107.2214 
 260   0.0000       3.946896       107.4005 
 261   0.0000       3.948126       107.4340 
 262   0.0000       3.952662       107.5574 
 263   0.0000       3.960363       107.7670 
 264   0.0000       3.961089       107.7867 
 265   0.0000       3.969885       108.0261 
 266   0.0000       3.979943       108.2998 
 267   0.0000       4.240425       115.3878 
 268   0.0000       4.247312       115.5752 
 269   0.0000       4.251346       115.6850 
 270   0.0000       4.254964       115.7835 
 271   0.0000       4.257849       115.8620 
 272   0.0000       4.301766       117.0570 
 273   0.0000       4.339712       118.0896 
 274   0.0000       4.342392       118.1625 
 275   0.0000       4.343336       118.1882 
 276   0.0000       4.347147       118.2919 
 277   0.0000       4.347185       118.2929 
 278   0.0000       4.353089       118.4536 
 279   0.0000       4.564007       124.1929 
 280   0.0000       4.582528       124.6969 
 281   0.0000       4.587174       124.8233 
 282   0.0000       4.737482       128.9134 
 283   0.0000       4.745236       129.1244 
 284   0.0000       4.757072       129.4465 
 285   0.0000       4.758947       129.4975 
 286   0.0000       4.768239       129.7504 
 287   0.0000       4.792863       130.4204 
 288   0.0000       4.837887       131.6456 
 289   0.0000       4.858831       132.2155 
 290   0.0000       4.867714       132.4572 
 291   0.0000       4.960787       134.9899 
 292   0.0000       4.961984       135.0225 
 293   0.0000       4.962830       135.0455 
 294   0.0000       4.968619       135.2030 
 295   0.0000       4.980431       135.5244 
 296   0.0000       5.007562       136.2627 
 297   0.0000       5.061985       137.7436 
 298   0.0000       5.067208       137.8857 
 299   0.0000       5.068594       137.9235 
 300   0.0000       5.075549       138.1127 
 301   0.0000       5.076384       138.1354 
 302   0.0000       5.097430       138.7081 
 303   0.0000       5.197768       141.4385 
 304   0.0000       5.211539       141.8132 
 305   0.0000       5.221415       142.0819 
 306   0.0000       5.557574       151.2293 
 307   0.0000       5.558168       151.2454 
 308   0.0000       5.558487       151.2541 
 309   0.0000       5.560203       151.3008 
 310   0.0000       5.587692       152.0488 
 311   0.0000       5.588340       152.0664 
 312   0.0000       6.022111       163.8700 
 313   0.0000       6.024782       163.9427 
 314   0.0000       6.025044       163.9498 
 315   0.0000       6.080780       165.4664 
 316   0.0000       6.082550       165.5146 
 317   0.0000       6.087072       165.6376 
 318   0.0000       6.090628       165.7344 
 319   0.0000       6.095103       165.8562 
 320   0.0000       6.171418       167.9328 
 321   0.0000       6.464458       175.9068 
 322   0.0000       6.468595       176.0194 
 323   0.0000       6.483014       176.4118 
 324   0.0000      23.469627       638.6410 
 325   0.0000      23.487085       639.1161 
 326   0.0000      23.494326       639.3131 
 327   0.0000      24.381692       663.4596 
 328   0.0000      24.386170       663.5814 
 329   0.0000      24.400276       663.9653 
 330   0.0000      33.388885       908.5577 
 331   0.0000      33.431094       909.7063 
 332   0.0000      33.467777       910.7045 

                    ********************************
                    * MULLIKEN POPULATION ANALYSIS *
                    ********************************

-----------------------
MULLIKEN ATOMIC CHARGES
-----------------------
   0 C :   -0.178341
   1 H :    0.149739
   2 H :    0.199213
   3 H :    0.149929
   4 C :   -0.053039
   5 N :   -0.266917
   6 C :   -0.175879
   7 H :    0.149246
   8 H :    0.142882
   9 H :    0.198863
  10 C :   -0.058734
  11 N :   -0.256963
  12 C :   -0.164373
  13 H :    0.156572
  14 H :    0.156300
  15 H :    0.150431
  16 C :   -0.107828
  17 N :   -0.191102
Sum of atomic charges:   -0.0000000

--------------------------------
MULLIKEN REDUCED ORBITAL CHARGES
--------------------------------
  0 C s       :     3.156629  s :     3.156629
      pz      :     0.776654  p :     2.957301
      px      :     1.109440
      py      :     1.071207
      dz2     :     0.017888  d :     0.060936
      dxz     :     0.010875
      dyz     :     0.010326
      dx2y2   :     0.010586
      dxy     :     0.011260
      f0      :     0.001749  f :     0.003475
      f+1     :     0.000196
      f-1     :     0.000181
      f+2     :     0.000046
      f-2     :     0.000075
      f+3     :     0.000494
      f-3     :     0.000733
  1 H s       :     0.827881  s :     0.827881
      pz      :     0.004859  p :     0.022380
      px      :     0.004230
      py      :     0.013291
  2 H s       :     0.777545  s :     0.777545
      pz      :     0.004558  p :     0.023241
      px      :     0.014119
      py      :     0.004564
  3 H s       :     0.827683  s :     0.827683
      pz      :     0.005034  p :     0.022388
      px      :     0.008785
      py      :     0.008569
  4 C s       :     3.246727  s :     3.246727
      pz      :     0.956019  p :     2.672692
      px      :     0.849474
      py      :     0.867200
      dz2     :     0.024752  d :     0.116244
      dxz     :     0.046011
      dyz     :     0.044634
      dx2y2   :     0.000517
      dxy     :     0.000331
      f0      :     0.004048  f :     0.017376
      f+1     :     0.006689
      f-1     :     0.006567
      f+2     :     0.000036
      f-2     :     0.000031
      f+3     :     0.000003
      f-3     :     0.000002
  5 N s       :     3.740191  s :     3.740191
      pz      :     1.277097  p :     3.470473
      px      :     1.104033
      py      :     1.089344
      dz2     :     0.011069  d :     0.053315
      dxz     :     0.021055
      dyz     :     0.021063
      dx2y2   :     0.000099
      dxy     :     0.000029
      f0      :     0.000618  f :     0.002937
      f+1     :     0.001151
      f-1     :     0.001165
      f+2     :     0.000002
      f-2     :     0.000001
      f+3     :     0.000001
      f-3     :     0.000000
  6 C s       :     3.156275  s :     3.156275
      pz      :     0.779206  p :     2.954831
      px      :     1.104907
      py      :     1.070718
      dz2     :     0.017914  d :     0.061294
      dxz     :     0.010473
      dyz     :     0.010978
      dx2y2   :     0.010236
      dxy     :     0.011693
      f0      :     0.001713  f :     0.003478
      f+1     :     0.000212
      f-1     :     0.000199
      f+2     :     0.000062
      f-2     :     0.000058
      f+3     :     0.000353
      f-3     :     0.000881
  7 H s       :     0.828388  s :     0.828388
      pz      :     0.005190  p :     0.022366
      px      :     0.004035
      py      :     0.013141
  8 H s       :     0.834894  s :     0.834894
      pz      :     0.004787  p :     0.022224
      px      :     0.009147
      py      :     0.008290
  9 H s       :     0.777813  s :     0.777813
      pz      :     0.004356  p :     0.023325
      px      :     0.014144
      py      :     0.004825
 10 C s       :     3.245088  s :     3.245088
      pz      :     0.954478  p :     2.680328
      px      :     0.854522
      py      :     0.871328
      dz2     :     0.024899  d :     0.115918
      dxz     :     0.045504
      dyz     :     0.044512
      dx2y2   :     0.000474
      dxy     :     0.000528
      f0      :     0.004082  f :     0.017400
      f+1     :     0.006648
      f-1     :     0.006539
      f+2     :     0.000054
      f-2     :     0.000072
      f+3     :     0.000003
      f-3     :     0.000002
 11 N s       :     3.741758  s :     3.741758
      pz      :     1.275028  p :     3.458733
      px      :     1.098789
      py      :     1.084915
      dz2     :     0.011168  d :     0.053537
      dxz     :     0.021075
      dyz     :     0.021072
      dx2y2   :     0.000142
      dxy     :     0.000080
      f0      :     0.000622  f :     0.002935
      f+1     :     0.001145
      f-1     :     0.001155
      f+2     :     0.000007
      f-2     :     0.000006
      f+3     :     0.000001
      f-3     :     0.000000
 12 C s       :     3.148423  s :     3.148423
      pz      :     0.797121  p :     2.950211
      px      :     1.076358
      py      :     1.076732
      dz2     :     0.017887  d :     0.062260
      dxz     :     0.010405
      dyz     :     0.012539
      dx2y2   :     0.010322
      dxy     :     0.011107
      f0      :     0.001681  f :     0.003479
      f+1     :     0.000222
      f-1     :     0.000223
      f+2     :     0.000061
      f-2     :     0.000077
      f+3     :     0.000516
      f-3     :     0.000699
 13 H s       :     0.821098  s :     0.821098
      pz      :     0.005302  p :     0.022330
      px      :     0.004117
      py      :     0.012911
 14 H s       :     0.821256  s :     0.821256
      pz      :     0.004861  p :     0.022443
      px      :     0.008634
      py      :     0.008948
 15 H s       :     0.827231  s :     0.827231
      pz      :     0.004429  p :     0.022338
      px      :     0.013208
      py      :     0.004701
 16 C s       :     3.232597  s :     3.232597
      pz      :     0.966111  p :     2.744278
      px      :     0.888881
      py      :     0.889285
      dz2     :     0.026800  d :     0.113593
      dxz     :     0.042728
      dyz     :     0.043068
      dx2y2   :     0.000389
      dxy     :     0.000609
      f0      :     0.004204  f :     0.017360
      f+1     :     0.006469
      f-1     :     0.006461
      f+2     :     0.000107
      f-2     :     0.000117
      f+3     :     0.000000
      f-3     :     0.000001
 17 N s       :     3.718911  s :     3.718911
      pz      :     1.284346  p :     3.414052
      px      :     1.065094
      py      :     1.064612
      dz2     :     0.011848  d :     0.055174
      dxz     :     0.021589
      dyz     :     0.021509
      dx2y2   :     0.000117
      dxy     :     0.000112
      f0      :     0.000638  f :     0.002965
      f+1     :     0.001153
      f-1     :     0.001142
      f+2     :     0.000016
      f-2     :     0.000015
      f+3     :     0.000000
      f-3     :     0.000000


                     *******************************
                     * LOEWDIN POPULATION ANALYSIS *
                     *******************************

----------------------
LOEWDIN ATOMIC CHARGES
----------------------
   0 C :   -0.242639
   1 H :    0.144304
   2 H :    0.151702
   3 H :    0.141986
   4 C :   -0.182095
   5 N :   -0.011966
   6 C :   -0.244430
   7 H :    0.143726
   8 H :    0.140182
   9 H :    0.151341
  10 C :   -0.185318
  11 N :   -0.006791
  12 C :   -0.245516
  13 H :    0.144377
  14 H :    0.143158
  15 H :    0.142977
  16 C :   -0.200796
  17 N :    0.015799

-------------------------------
LOEWDIN REDUCED ORBITAL CHARGES
-------------------------------
  0 C s       :     2.813371  s :     2.813371
      pz      :     1.019750  p :     3.147269
      px      :     1.071950
      py      :     1.055568
      dz2     :     0.079416  d :     0.256852
      dxz     :     0.057508
      dyz     :     0.059610
      dx2y2   :     0.029320
      dxy     :     0.030997
      f0      :     0.007617  f :     0.025148
      f+1     :     0.004952
      f-1     :     0.004968
      f+2     :     0.002055
      f-2     :     0.002297
      f+3     :     0.001316
      f-3     :     0.001943
  1 H s       :     0.795126  s :     0.795126
      pz      :     0.012605  p :     0.060570
      px      :     0.013642
      py      :     0.034323
  2 H s       :     0.784176  s :     0.784176
      pz      :     0.012275  p :     0.064122
      px      :     0.037529
      py      :     0.014318
  3 H s       :     0.797042  s :     0.797042
      pz      :     0.012974  p :     0.060972
      px      :     0.024512
      py      :     0.023485
  4 C s       :     2.840797  s :     2.840797
      pz      :     1.195187  p :     2.822906
      px      :     0.809933
      py      :     0.817785
      dz2     :     0.154342  d :     0.458850
      dxz     :     0.153170
      dyz     :     0.150135
      dx2y2   :     0.000797
      dxy     :     0.000405
      f0      :     0.022893  f :     0.059542
      f+1     :     0.018522
      f-1     :     0.017992
      f+2     :     0.000073
      f-2     :     0.000052
      f+3     :     0.000006
      f-3     :     0.000003
  5 N s       :     3.308002  s :     3.308002
      pz      :     1.495446  p :     3.581816
      px      :     1.045384
      py      :     1.040986
      dz2     :     0.045503  d :     0.108055
      dxz     :     0.031108
      dyz     :     0.031277
      dx2y2   :     0.000140
      dxy     :     0.000028
      f0      :     0.006245  f :     0.014093
      f+1     :     0.003888
      f-1     :     0.003949
      f+2     :     0.000006
      f-2     :     0.000003
      f+3     :     0.000002
      f-3     :     0.000000
  6 C s       :     2.813915  s :     2.813915
      pz      :     1.021764  p :     3.147349
      px      :     1.069888
      py      :     1.055697
      dz2     :     0.079194  d :     0.257925
      dxz     :     0.055744
      dyz     :     0.062053
      dx2y2   :     0.028159
      dxy     :     0.032775
      f0      :     0.007564  f :     0.025242
      f+1     :     0.005228
      f-1     :     0.004851
      f+2     :     0.002228
      f-2     :     0.002086
      f+3     :     0.000949
      f-3     :     0.002335
  7 H s       :     0.795726  s :     0.795726
      pz      :     0.013265  p :     0.060549
      px      :     0.013188
      py      :     0.034096
  8 H s       :     0.799422  s :     0.799422
      pz      :     0.012490  p :     0.060397
      px      :     0.025237
      py      :     0.022670
  9 H s       :     0.784314  s :     0.784314
      pz      :     0.011862  p :     0.064345
      px      :     0.037516
      py      :     0.014966
 10 C s       :     2.840291  s :     2.840291
      pz      :     1.193952  p :     2.827622
      px      :     0.812740
      py      :     0.820929
      dz2     :     0.154554  d :     0.457956
      dxz     :     0.151808
      dyz     :     0.149821
      dx2y2   :     0.000826
      dxy     :     0.000947
      f0      :     0.022863  f :     0.059449
      f+1     :     0.018350
      f-1     :     0.017944
      f+2     :     0.000118
      f-2     :     0.000164
      f+3     :     0.000007
      f-3     :     0.000004
 11 N s       :     3.308884  s :     3.308884
      pz      :     1.494352  p :     3.575157
      px      :     1.042321
      py      :     1.038484
      dz2     :     0.045506  d :     0.108628
      dxz     :     0.031304
      dyz     :     0.031552
      dx2y2   :     0.000178
      dxy     :     0.000088
      f0      :     0.006211  f :     0.014122
      f+1     :     0.003899
      f-1     :     0.003968
      f+2     :     0.000023
      f-2     :     0.000019
      f+3     :     0.000001
      f-3     :     0.000000
 12 C s       :     2.813922  s :     2.813922
      pz      :     1.026608  p :     3.143079
      px      :     1.059127
      py      :     1.057344
      dz2     :     0.077488  d :     0.263039
      dxz     :     0.057485
      dyz     :     0.065928
      dx2y2   :     0.029885
      dxy     :     0.032253
      f0      :     0.007309  f :     0.025476
      f+1     :     0.005528
      f-1     :     0.004874
      f+2     :     0.002258
      f-2     :     0.002201
      f+3     :     0.001407
      f-3     :     0.001900
 13 H s       :     0.795002  s :     0.795002
      pz      :     0.013600  p :     0.060621
      px      :     0.013253
      py      :     0.033768
 14 H s       :     0.795807  s :     0.795807
      pz      :     0.012736  p :     0.061035
      px      :     0.023942
      py      :     0.024356
 15 H s       :     0.796498  s :     0.796498
      pz      :     0.011876  p :     0.060525
      px      :     0.034184
      py      :     0.014465
 16 C s       :     2.838412  s :     2.838412
      pz      :     1.190092  p :     2.855250
      px      :     0.832024
      py      :     0.833134
      dz2     :     0.154302  d :     0.448412
      dxz     :     0.145557
      dyz     :     0.146507
      dx2y2   :     0.000805
      dxy     :     0.001241
      f0      :     0.022956  f :     0.058721
      f+1     :     0.017493
      f-1     :     0.017713
      f+2     :     0.000270
      f-2     :     0.000286
      f+3     :     0.000001
      f-3     :     0.000002
 17 N s       :     3.314827  s :     3.314827
      pz      :     1.492734  p :     3.543222
      px      :     1.024929
      py      :     1.025560
      dz2     :     0.045725  d :     0.111768
      dxz     :     0.032763
      dyz     :     0.032928
      dx2y2   :     0.000180
      dxy     :     0.000173
      f0      :     0.006162  f :     0.014383
      f+1     :     0.004033
      f-1     :     0.004077
      f+2     :     0.000056
      f-2     :     0.000054
      f+3     :     0.000000
      f-3     :     0.000000


                      *****************************
                      * MAYER POPULATION ANALYSIS *
                      *****************************

  NA   - Mulliken gross atomic population
  ZA   - Total nuclear charge
  QA   - Mulliken gross atomic charge
  VA   - Mayer's total valence
  BVA  - Mayer's bonded valence
  FA   - Mayer's free valence

  ATOM       NA         ZA         QA         VA         BVA        FA
  0 C      6.1783     6.0000    -0.1783     3.7839     3.7839     0.0000
  1 H      0.8503     1.0000     0.1497     0.9638     0.9638     0.0000
  2 H      0.8008     1.0000     0.1992     0.9610     0.9610     0.0000
  3 H      0.8501     1.0000     0.1499     0.9623     0.9623    -0.0000
  4 C      6.0530     6.0000    -0.0530     3.8686     3.8686    -0.0000
  5 N      7.2669     7.0000    -0.2669     2.9870     2.9870     0.0000
  6 C      6.1759     6.0000    -0.1759     3.7855     3.7855    -0.0000
  7 H      0.8508     1.0000     0.1492     0.9641     0.9641    -0.0000
  8 H      0.8571     1.0000     0.1429     0.9626     0.9626    -0.0000
  9 H      0.8011     1.0000     0.1989     0.9615     0.9615    -0.0000
 10 C      6.0587     6.0000    -0.0587     3.8681     3.8681    -0.0000
 11 N      7.2570     7.0000    -0.2570     2.9894     2.9894     0.0000
 12 C      6.1644     6.0000    -0.1644     3.8097     3.8097    -0.0000
 13 H      0.8434     1.0000     0.1566     0.9616     0.9616     0.0000
 14 H      0.8437     1.0000     0.1563     0.9621     0.9621    -0.0000
 15 H      0.8496     1.0000     0.1504     0.9624     0.9624     0.0000
 16 C      6.1078     6.0000    -0.1078     3.9183     3.9183    -0.0000
 17 N      7.1911     7.0000    -0.1911     3.0359     3.0359    -0.0000

  Mayer bond orders larger than 0.100000
B(  0-C ,  1-H ) :   0.9605 B(  0-C ,  2-H ) :   0.9500 B(  0-C ,  3-H ) :   0.9640 
B(  0-C ,  4-C ) :   0.9240 B(  4-C ,  5-N ) :   2.9517 B(  6-C ,  7-H ) :   0.9617 
B(  6-C ,  8-H ) :   0.9663 B(  6-C ,  9-H ) :   0.9497 B(  6-C , 10-C ) :   0.9233 
B( 10-C , 11-N ) :   2.9535 B( 12-C , 13-H ) :   0.9628 B( 12-C , 14-H ) :   0.9636 
B( 12-C , 15-H ) :   0.9651 B( 12-C , 16-C ) :   0.9286 B( 16-C , 17-N ) :   3.0101 


-------
TIMINGS
-------

Total SCF time: 0 days 0 hours 0 min 35 sec 

Total time                  ....      35.751 sec
Sum of individual times     ....      35.459 sec  ( 99.2%)

Fock matrix formation       ....      34.901 sec  ( 97.6%)
Diagonalization             ....       0.138 sec  (  0.4%)
Density matrix formation    ....       0.018 sec  (  0.1%)
Population analysis         ....       0.013 sec  (  0.0%)
Initial guess               ....       0.169 sec  (  0.5%)
Orbital Transformation      ....       0.000 sec  (  0.0%)
Orbital Orthonormalization  ....       0.000 sec  (  0.0%)
DIIS solution               ....       0.052 sec  (  0.1%)
SOSCF solution              ....       0.097 sec  (  0.3%)


           ************************************************************
           *        Program running with 6 parallel MPI-processes     *
           *              working on a common directory               *
           ************************************************************

------------------------------------------------------------------------------
                                ORCA  MP2 
------------------------------------------------------------------------------

Freezing NCore=18 chemical core electrons
MP2 will be done in the AO integral direct mode
The Q1-step will be done using symmetric double matrices
Dimension of the basis                    ...  333
Memory devoted for MP2                    ... 8000 MB   
Memory needed for all in one shot         ...  566 MB
Number of MOs that can be treated together...   55      
MP2 density construction                  ... relaxed
The MP2 gradient is requested => amplitudes will be stored on disk
Total number of MOs              ...   24
Number of MOs treated per batch  ...    4 
Number of batches necessary      ...    1 
OPERATORS   0/  0 PASS   0
-----------------------------------------------
 MP2 CORRELATION ENERGY   :     -1.530983041 Eh
-----------------------------------------------


---------------------
MP2 DENSITY FORMATION
---------------------

Completing the external part of the density      ... done
Storing the unrelaxed density                    ... done

Calculating G(D)                                 ... done
Completing the Lagrangian                        ... done
Solving the Z-vector equations                   ... 

------------------------------------------------------------------------------
                           ORCA CP-SCF CALCULATION
------------------------------------------------------------------------------

Input orbitals are from        ... 12mecn.remya.etal.2.mol1,4,10-orca.engrad-mp2.def2tzvp.frozencore.gbw
Input Perturbation             ... 12mecn.remya.etal.2.mol1,4,10-orca.engrad-mp2.def2tzvp.frozencore.pin.tmp
Wavefunction output            ... 12mecn.remya.etal.2.mol1,4,10-orca.engrad-mp2.def2tzvp.frozencore.pout.tmp
Perturbation mode              ... Real perturbation (singlet)
Solver                         ... POPLE
Max. number of iterations      ... 128
Convergence tolerance          ... 1.000e-08
Integral handling              ... Direct
Number of perturbations        ... 1
Number of operators            ... 1
Orbital ranges used for CP-SCF:
 Operator 0:  Orbitals   0... 32  to  33...332
Variables per vector in CP-SCF ... 9900
Number of vectors sought       ... 1
     CP-SCF ITERATION   0: 
     CP-SCF ITERATION   1:      0.001527732673
     CP-SCF ITERATION   2:      0.000267755940
     CP-SCF ITERATION   3:      0.000009756182
     CP-SCF ITERATION   4:      0.000002311780
     CP-SCF ITERATION   5:      0.000001082163
     CP-SCF ITERATION   6:      0.000000132991
     CP-SCF ITERATION   7:      0.000000014397
     CP-SCF ITERATION   8:      0.000000001075
                                                 ... done
Finalizing the relaxed density                   ... done
Transforming P to the AO basis                   ... done
Storing the relaxed density                      ... done

------------------------------------
ENERGY WEIGHTED DENSITY FINALIZATION
------------------------------------

Gathering the parts of the W-matrix              ...                                                      done
Forming the Z-density                            ... done
Transforming Z to the AO basis                   ... done
Calculating G(Z)                                 ... done
Finalizing the W-matrix                          ...                                                      done
Transforming W to the AO basis and storing       ... done

                *********************************************
                * UNRELAXED MP2 DENSITY POPULATION ANALYSIS *
                *********************************************

------------------------------------------------------------------------------
                           ORCA POPULATION ANALYSIS
------------------------------------------------------------------------------
Input electron density              ... 12mecn.remya.etal.2.mol1,4,10-orca.engrad-mp2.def2tzvp.frozencore.pmp2ur
BaseName (.gbw .S,...)              ... 12mecn.remya.etal.2.mol1,4,10-orca.engrad-mp2.def2tzvp.frozencore

                    ********************************
                    * MULLIKEN POPULATION ANALYSIS *
                    ********************************

-----------------------
MULLIKEN ATOMIC CHARGES
-----------------------
   0 C :   -0.190747
   1 H :    0.152424
   2 H :    0.200996
   3 H :    0.152613
   4 C :   -0.063731
   5 N :   -0.250956
   6 C :   -0.188376
   7 H :    0.151943
   8 H :    0.145588
   9 H :    0.200640
  10 C :   -0.069147
  11 N :   -0.241248
  12 C :   -0.177627
  13 H :    0.159139
  14 H :    0.158875
  15 H :    0.153013
  16 C :   -0.116400
  17 N :   -0.176998
Sum of atomic charges:   -0.0000000

--------------------------------
MULLIKEN REDUCED ORBITAL CHARGES
--------------------------------
  0 C s       :     3.154829  s :     3.154829
      pz      :     0.775586  p :     2.941837
      px      :     1.101739
      py      :     1.064512
      dz2     :     0.020351  d :     0.086735
      dxz     :     0.017035
      dyz     :     0.016426
      dx2y2   :     0.016130
      dxy     :     0.016792
      f0      :     0.002145  f :     0.007346
      f+1     :     0.000863
      f-1     :     0.000850
      f+2     :     0.000589
      f-2     :     0.000616
      f+3     :     0.001035
      f-3     :     0.001250
  1 H s       :     0.822371  s :     0.822371
      pz      :     0.005855  p :     0.025205
      px      :     0.005267
      py      :     0.014084
  2 H s       :     0.773087  s :     0.773087
      pz      :     0.005537  p :     0.025917
      px      :     0.014830
      py      :     0.005550
  3 H s       :     0.822158  s :     0.822158
      pz      :     0.006029  p :     0.025229
      px      :     0.009711
      py      :     0.009489
  4 C s       :     3.245851  s :     3.245851
      pz      :     0.946952  p :     2.666047
      px      :     0.851114
      py      :     0.867981
      dz2     :     0.027166  d :     0.131512
      dxz     :     0.047967
      dyz     :     0.046636
      dx2y2   :     0.004952
      dxy     :     0.004791
      f0      :     0.004516  f :     0.020322
      f+1     :     0.007115
      f-1     :     0.007003
      f+2     :     0.000593
      f-2     :     0.000586
      f+3     :     0.000255
      f-3     :     0.000254
  5 N s       :     3.727809  s :     3.727809
      pz      :     1.264757  p :     3.441366
      px      :     1.095270
      py      :     1.081339
      dz2     :     0.015383  d :     0.076111
      dxz     :     0.025310
      dyz     :     0.025231
      dx2y2   :     0.005133
      dxy     :     0.005054
      f0      :     0.001048  f :     0.005671
      f+1     :     0.001601
      f-1     :     0.001614
      f+2     :     0.000421
      f-2     :     0.000419
      f+3     :     0.000285
      f-3     :     0.000283
  6 C s       :     3.154471  s :     3.154471
      pz      :     0.778102  p :     2.939472
      px      :     1.097300
      py      :     1.064069
      dz2     :     0.020397  d :     0.087083
      dxz     :     0.016668
      dyz     :     0.017024
      dx2y2   :     0.015811
      dxy     :     0.017184
      f0      :     0.002114  f :     0.007350
      f+1     :     0.000875
      f-1     :     0.000866
      f+2     :     0.000603
      f-2     :     0.000601
      f+3     :     0.000908
      f-3     :     0.001384
  7 H s       :     0.822861  s :     0.822861
      pz      :     0.006178  p :     0.025196
      px      :     0.005079
      py      :     0.013939
  8 H s       :     0.829319  s :     0.829319
      pz      :     0.005798  p :     0.025093
      px      :     0.010073
      py      :     0.009222
  9 H s       :     0.773362  s :     0.773362
      pz      :     0.005343  p :     0.025998
      px      :     0.014851
      py      :     0.005803
 10 C s       :     3.244277  s :     3.244277
      pz      :     0.945445  p :     2.673236
      px      :     0.855913
      py      :     0.871878
      dz2     :     0.027325  d :     0.131284
      dxz     :     0.047493
      dyz     :     0.046539
      dx2y2   :     0.004926
      dxy     :     0.005000
      f0      :     0.004549  f :     0.020351
      f+1     :     0.007076
      f-1     :     0.006976
      f+2     :     0.000610
      f-2     :     0.000627
      f+3     :     0.000257
      f-3     :     0.000255
 11 N s       :     3.729318  s :     3.729318
      pz      :     1.262695  p :     3.430051
      px      :     1.090249
      py      :     1.077108
      dz2     :     0.015467  d :     0.076215
      dxz     :     0.025297
      dyz     :     0.025214
      dx2y2   :     0.005153
      dxy     :     0.005083
      f0      :     0.001052  f :     0.005663
      f+1     :     0.001594
      f-1     :     0.001602
      f+2     :     0.000425
      f-2     :     0.000423
      f+3     :     0.000284
      f-3     :     0.000283
 12 C s       :     3.146801  s :     3.146801
      pz      :     0.795871  p :     2.935709
      px      :     1.069717
      py      :     1.070121
      dz2     :     0.020407  d :     0.087777
      dxz     :     0.016522
      dyz     :     0.018537
      dx2y2   :     0.015777
      dxy     :     0.016534
      f0      :     0.002083  f :     0.007341
      f+1     :     0.000881
      f-1     :     0.000894
      f+2     :     0.000602
      f-2     :     0.000620
      f+3     :     0.001048
      f-3     :     0.001214
 13 H s       :     0.815719  s :     0.815719
      pz      :     0.006281  p :     0.025142
      px      :     0.005149
      py      :     0.013712
 14 H s       :     0.815864  s :     0.815864
      pz      :     0.005856  p :     0.025261
      px      :     0.009550
      py      :     0.009855
 15 H s       :     0.821811  s :     0.821811
      pz      :     0.005442  p :     0.025176
      px      :     0.014010
      py      :     0.005724
 16 C s       :     3.232106  s :     3.232106
      pz      :     0.957268  p :     2.734663
      px      :     0.888522
      py      :     0.888873
      dz2     :     0.029277  d :     0.129302
      dxz     :     0.044862
      dyz     :     0.045200
      dx2y2   :     0.004874
      dxy     :     0.005089
      f0      :     0.004666  f :     0.020329
      f+1     :     0.006913
      f-1     :     0.006906
      f+2     :     0.000658
      f-2     :     0.000669
      f+3     :     0.000258
      f-3     :     0.000258
 17 N s       :     3.706126  s :     3.706126
      pz      :     1.272074  p :     3.388164
      px      :     1.058266
      py      :     1.057823
      dz2     :     0.016020  d :     0.077046
      dxz     :     0.025590
      dyz     :     0.025509
      dx2y2   :     0.004965
      dxy     :     0.004961
      f0      :     0.001065  f :     0.005662
      f+1     :     0.001598
      f-1     :     0.001586
      f+2     :     0.000430
      f-2     :     0.000429
      f+3     :     0.000277
      f-3     :     0.000277


                     *******************************
                     * LOEWDIN POPULATION ANALYSIS *
                     *******************************

----------------------
LOEWDIN ATOMIC CHARGES
----------------------
   0 C :   -0.250622
   1 H :    0.145988
   2 H :    0.153252
   3 H :    0.143661
   4 C :   -0.188153
   5 N :   -0.002817
   6 C :   -0.252451
   7 H :    0.145409
   8 H :    0.141827
   9 H :    0.152885
  10 C :   -0.191248
  11 N :    0.002271
  12 C :   -0.253612
  13 H :    0.146051
  14 H :    0.144834
  15 H :    0.144618
  16 C :   -0.205880
  17 N :    0.023988

-------------------------------
LOEWDIN REDUCED ORBITAL CHARGES
-------------------------------
  0 C s       :     2.811589  s :     2.811589
      pz      :     1.011236  p :     3.122195
      px      :     1.063441
      py      :     1.047519
      dz2     :     0.084577  d :     0.285647
      dxz     :     0.063550
      dyz     :     0.065547
      dx2y2   :     0.035174
      dxy     :     0.036799
      f0      :     0.008734  f :     0.031191
      f+1     :     0.006024
      f-1     :     0.006032
      f+2     :     0.002722
      f-2     :     0.002972
      f+3     :     0.002022
      f-3     :     0.002684
  1 H s       :     0.788682  s :     0.788682
      pz      :     0.014015  p :     0.065330
      px      :     0.014879
      py      :     0.036437
  2 H s       :     0.778043  s :     0.778043
      pz      :     0.013660  p :     0.068705
      px      :     0.039477
      py      :     0.015568
  3 H s       :     0.790584  s :     0.790584
      pz      :     0.014400  p :     0.065756
      px      :     0.026213
      py      :     0.025142
  4 C s       :     2.837374  s :     2.837374
      pz      :     1.182572  p :     2.805955
      px      :     0.807996
      py      :     0.815387
      dz2     :     0.161633  d :     0.477654
      dxz     :     0.154389
      dyz     :     0.151488
      dx2y2   :     0.005276
      dxy     :     0.004868
      f0      :     0.024515  f :     0.067171
      f+1     :     0.020586
      f-1     :     0.020080
      f+2     :     0.000748
      f-2     :     0.000726
      f+3     :     0.000260
      f-3     :     0.000256
  5 N s       :     3.300242  s :     3.300242
      pz      :     1.479358  p :     3.545303
      px      :     1.034973
      py      :     1.030973
      dz2     :     0.052484  d :     0.138702
      dxz     :     0.038046
      dyz     :     0.038073
      dx2y2   :     0.005118
      dxy     :     0.004981
      f0      :     0.007317  f :     0.018570
      f+1     :     0.004876
      f-1     :     0.004924
      f+2     :     0.000444
      f-2     :     0.000440
      f+3     :     0.000285
      f-3     :     0.000283
  6 C s       :     2.812134  s :     2.812134
      pz      :     1.013234  p :     3.122302
      px      :     1.061414
      py      :     1.047654
      dz2     :     0.084383  d :     0.286726
      dxz     :     0.061768
      dyz     :     0.067976
      dx2y2   :     0.034023
      dxy     :     0.038576
      f0      :     0.008680  f :     0.031289
      f+1     :     0.006305
      f-1     :     0.005912
      f+2     :     0.002900
      f-2     :     0.002757
      f+3     :     0.001635
      f-3     :     0.003102
  7 H s       :     0.789270  s :     0.789270
      pz      :     0.014709  p :     0.065321
      px      :     0.014410
      py      :     0.036201
  8 H s       :     0.792942  s :     0.792942
      pz      :     0.013907  p :     0.065231
      px      :     0.027007
      py      :     0.024317
  9 H s       :     0.778184  s :     0.778184
      pz      :     0.013233  p :     0.068931
      px      :     0.039452
      py      :     0.016245
 10 C s       :     2.836890  s :     2.836890
      pz      :     1.181349  p :     2.810358
      px      :     0.810641
      py      :     0.818368
      dz2     :     0.161833  d :     0.476902
      dxz     :     0.153098
      dyz     :     0.151231
      dx2y2   :     0.005325
      dxy     :     0.005415
      f0      :     0.024490  f :     0.067098
      f+1     :     0.020413
      f-1     :     0.020032
      f+2     :     0.000797
      f-2     :     0.000845
      f+3     :     0.000262
      f-3     :     0.000259
 11 N s       :     3.301103  s :     3.301103
      pz      :     1.478270  p :     3.538896
      px      :     1.032033
      py      :     1.028593
      dz2     :     0.052468  d :     0.139139
      dxz     :     0.038197
      dyz     :     0.038309
      dx2y2   :     0.005139
      dxy     :     0.005026
      f0      :     0.007282  f :     0.018592
      f+1     :     0.004883
      f-1     :     0.004940
      f+2     :     0.000462
      f-2     :     0.000458
      f+3     :     0.000284
      f-3     :     0.000283
 12 C s       :     2.812115  s :     2.812115
      pz      :     1.018100  p :     3.118652
      px      :     1.051157
      py      :     1.049395
      dz2     :     0.082691  d :     0.291348
      dxz     :     0.063330
      dyz     :     0.071770
      dx2y2   :     0.035588
      dxy     :     0.037969
      f0      :     0.008426  f :     0.031498
      f+1     :     0.006589
      f-1     :     0.005931
      f+2     :     0.002931
      f-2     :     0.002877
      f+3     :     0.002111
      f-3     :     0.002632
 13 H s       :     0.788597  s :     0.788597
      pz      :     0.015051  p :     0.065353
      px      :     0.014481
      py      :     0.035820
 14 H s       :     0.789388  s :     0.789388
      pz      :     0.014143  p :     0.065777
      px      :     0.025593
      py      :     0.026041
 15 H s       :     0.790078  s :     0.790078
      pz      :     0.013249  p :     0.065304
      px      :     0.036302
      py      :     0.015752
 16 C s       :     2.835144  s :     2.835144
      pz      :     1.177590  p :     2.836351
      px      :     0.828851
      py      :     0.829909
      dz2     :     0.161581  d :     0.467946
      dxz     :     0.147203
      dyz     :     0.148173
      dx2y2   :     0.005285
      dxy     :     0.005704
      f0      :     0.024580  f :     0.066440
      f+1     :     0.019601
      f-1     :     0.019818
      f+2     :     0.000950
      f-2     :     0.000971
      f+3     :     0.000260
      f-3     :     0.000261
 17 N s       :     3.306984  s :     3.306984
      pz      :     1.476868  p :     3.508979
      px      :     1.015731
      py      :     1.016379
      dz2     :     0.052542  d :     0.141244
      dxz     :     0.039305
      dyz     :     0.039467
      dx2y2   :     0.004968
      dxy     :     0.004962
      f0      :     0.007230  f :     0.018805
      f+1     :     0.004993
      f-1     :     0.005038
      f+2     :     0.000496
      f-2     :     0.000493
      f+3     :     0.000278
      f-3     :     0.000278


                      *****************************
                      * MAYER POPULATION ANALYSIS *
                      *****************************

  NA   - Mulliken gross atomic population
  ZA   - Total nuclear charge
  QA   - Mulliken gross atomic charge
  VA   - Mayer's total valence
  BVA  - Mayer's bonded valence
  FA   - Mayer's free valence

  ATOM       NA         ZA         QA         VA         BVA        FA
  0 C      6.1907     6.0000    -0.1907     3.9021     3.6180     0.2841
  1 H      0.8476     1.0000     0.1524     0.9714     0.9234     0.0480
  2 H      0.7990     1.0000     0.2010     0.9678     0.9208     0.0470
  3 H      0.8474     1.0000     0.1526     0.9700     0.9219     0.0480
  4 C      6.0637     6.0000    -0.0637     3.9692     3.5346     0.4346
  5 N      7.2510     7.0000    -0.2510     3.1925     2.7000     0.4925
  6 C      6.1884     6.0000    -0.1884     3.9036     3.6191     0.2844
  7 H      0.8481     1.0000     0.1519     0.9717     0.9236     0.0481
  8 H      0.8544     1.0000     0.1456     0.9705     0.9220     0.0486
  9 H      0.7994     1.0000     0.2006     0.9683     0.9212     0.0470
 10 C      6.0691     6.0000    -0.0691     3.9691     3.5332     0.4360
 11 N      7.2412     7.0000    -0.2412     3.1936     2.7014     0.4922
 12 C      6.1776     6.0000    -0.1776     3.9270     3.6442     0.2828
 13 H      0.8409     1.0000     0.1591     0.9691     0.9216     0.0475
 14 H      0.8411     1.0000     0.1589     0.9696     0.9222     0.0474
 15 H      0.8470     1.0000     0.1530     0.9701     0.9221     0.0480
 16 C      6.1164     6.0000    -0.1164     4.0199     3.5809     0.4390
 17 N      7.1770     7.0000    -0.1770     3.2308     2.7450     0.4857

  Mayer bond orders larger than 0.100000
B(  0-C ,  1-H ) :   0.9230 B(  0-C ,  2-H ) :   0.9128 B(  0-C ,  3-H ) :   0.9264 
B(  0-C ,  4-C ) :   0.8722 B(  4-C ,  5-N ) :   2.6723 B(  6-C ,  7-H ) :   0.9241 
B(  6-C ,  8-H ) :   0.9284 B(  6-C ,  9-H ) :   0.9124 B(  6-C , 10-C ) :   0.8715 
B( 10-C , 11-N ) :   2.6731 B( 12-C , 13-H ) :   0.9255 B( 12-C , 14-H ) :   0.9263 
B( 12-C , 15-H ) :   0.9274 B( 12-C , 16-C ) :   0.8771 B( 16-C , 17-N ) :   2.7261 



                *******************************************
                * RELAXED MP2 DENSITY POPULATION ANALYSIS *
                *******************************************

------------------------------------------------------------------------------
                           ORCA POPULATION ANALYSIS
------------------------------------------------------------------------------
Input electron density              ... 12mecn.remya.etal.2.mol1,4,10-orca.engrad-mp2.def2tzvp.frozencore.pmp2re
BaseName (.gbw .S,...)              ... 12mecn.remya.etal.2.mol1,4,10-orca.engrad-mp2.def2tzvp.frozencore

                    ********************************
                    * MULLIKEN POPULATION ANALYSIS *
                    ********************************

-----------------------
MULLIKEN ATOMIC CHARGES
-----------------------
   0 C :   -0.285035
   1 H :    0.166920
   2 H :    0.206566
   3 H :    0.166908
   4 C :   -0.101104
   5 N :   -0.153508
   6 C :   -0.283538
   7 H :    0.166745
   8 H :    0.160168
   9 H :    0.205927
  10 C :   -0.104196
  11 N :   -0.145853
  12 C :   -0.278640
  13 H :    0.172615
  14 H :    0.172713
  15 H :    0.167236
  16 C :   -0.145582
  17 N :   -0.088342
Sum of atomic charges:   -0.0000000

--------------------------------
MULLIKEN REDUCED ORBITAL CHARGES
--------------------------------
  0 C s       :     3.189372  s :     3.189372
      pz      :     0.822367  p :     3.012421
      px      :     1.111519
      py      :     1.078535
      dz2     :     0.016019  d :     0.076169
      dxz     :     0.017170
      dyz     :     0.016562
      dx2y2   :     0.012978
      dxy     :     0.013440
      f0      :     0.001896  f :     0.007073
      f+1     :     0.000922
      f-1     :     0.000910
      f+2     :     0.000580
      f-2     :     0.000605
      f+3     :     0.000985
      f-3     :     0.001175
  1 H s       :     0.808982  s :     0.808982
      pz      :     0.005887  p :     0.024098
      px      :     0.005429
      py      :     0.012781
  2 H s       :     0.768689  s :     0.768689
      pz      :     0.005639  p :     0.024744
      px      :     0.013489
      py      :     0.005616
  3 H s       :     0.808957  s :     0.808957
      pz      :     0.006027  p :     0.024135
      px      :     0.009185
      py      :     0.008923
  4 C s       :     3.225452  s :     3.225452
      pz      :     0.972498  p :     2.750290
      px      :     0.885660
      py      :     0.892133
      dz2     :     0.022578  d :     0.106402
      dxz     :     0.037541
      dyz     :     0.036588
      dx2y2   :     0.004935
      dxy     :     0.004760
      f0      :     0.004357  f :     0.018959
      f+1     :     0.006498
      f-1     :     0.006426
      f+2     :     0.000589
      f-2     :     0.000582
      f+3     :     0.000255
      f-3     :     0.000253
  5 N s       :     3.677631  s :     3.677631
      pz      :     1.252723  p :     3.403364
      px      :     1.077117
      py      :     1.073525
      dz2     :     0.014297  d :     0.067310
      dxz     :     0.021490
      dyz     :     0.021322
      dx2y2   :     0.005150
      dxy     :     0.005051
[...]
      f+1     :     0.006464
      f-1     :     0.006404
      f+2     :     0.000604
      f-2     :     0.000619
      f+3     :     0.000257
      f-3     :     0.000255
 11 N s       :     3.679379  s :     3.679379
      pz      :     1.250394  p :     3.393903
      px      :     1.073178
      py      :     1.070331
      dz2     :     0.014369  d :     0.067376
      dxz     :     0.021473
      dyz     :     0.021306
      dx2y2   :     0.005156
      dxy     :     0.005072
      f0      :     0.000929  f :     0.005195
      f+1     :     0.001422
      f-1     :     0.001430
      f+2     :     0.000424
      f-2     :     0.000422
      f+3     :     0.000284
      f-3     :     0.000283
 12 C s       :     3.182984  s :     3.182984
      pz      :     0.842262  p :     3.011111
      px      :     1.084086
      py      :     1.084764
      dz2     :     0.016182  d :     0.077458
      dxz     :     0.016859
      dyz     :     0.018420
      dx2y2   :     0.012694
      dxy     :     0.013302
      f0      :     0.001851  f :     0.007087
      f+1     :     0.000939
      f-1     :     0.000952
      f+2     :     0.000591
      f-2     :     0.000609
      f+3     :     0.000998
      f-3     :     0.001146
 13 H s       :     0.803378  s :     0.803378
      pz      :     0.006248  p :     0.024008
      px      :     0.005297
      py      :     0.012463
 14 H s       :     0.803172  s :     0.803172
      pz      :     0.005885  p :     0.024115
      px      :     0.009002
      py      :     0.009227
 15 H s       :     0.808705  s :     0.808705
      pz      :     0.005559  p :     0.024059
      px      :     0.012721
      py      :     0.005778
 16 C s       :     3.210958  s :     3.210958
      pz      :     0.991662  p :     2.811035
      px      :     0.909820
      py      :     0.909553
      dz2     :     0.024421  d :     0.104605
      dxz     :     0.035000
      dyz     :     0.035382
      dx2y2   :     0.004805
      dxy     :     0.004997
      f0      :     0.004472  f :     0.018984
      f+1     :     0.006347
      f-1     :     0.006346
      f+2     :     0.000647
      f-2     :     0.000656
      f+3     :     0.000258
      f-3     :     0.000258
 17 N s       :     3.647971  s :     3.647971
      pz      :     1.262029  p :     3.367151
      px      :     1.052525
      py      :     1.052598
      dz2     :     0.014977  d :     0.068031
      dxz     :     0.021619
      dyz     :     0.021551
      dx2y2   :     0.004944
      dxy     :     0.004940
      f0      :     0.000947  f :     0.005189
      f+1     :     0.001423
      f-1     :     0.001411
      f+2     :     0.000427
      f-2     :     0.000427
      f+3     :     0.000277
      f-3     :     0.000277


                     *******************************
                     * LOEWDIN POPULATION ANALYSIS *
                     *******************************

----------------------
LOEWDIN ATOMIC CHARGES
----------------------
   0 C :   -0.281338
   1 H :    0.153115
   2 H :    0.157705
   3 H :    0.150778
   4 C :   -0.207319
   5 N :    0.028447
   6 C :   -0.283227
   7 H :    0.152590
   8 H :    0.149148
   9 H :    0.157248
  10 C :   -0.209821
  11 N :    0.032676
  12 C :   -0.284378
  13 H :    0.152786
  14 H :    0.151568
  15 H :    0.151516
  16 C :   -0.220469
  17 N :    0.048975

-------------------------------
LOEWDIN REDUCED ORBITAL CHARGES
-------------------------------
  0 C s       :     2.816621  s :     2.816621
      pz      :     1.030013  p :     3.158211
      px      :     1.071353
      py      :     1.056845
      dz2     :     0.076583  d :     0.275092
      dxz     :     0.065818
      dyz     :     0.067079
      dx2y2   :     0.032147
      dxy     :     0.033466
      f0      :     0.008170  f :     0.031414
      f+1     :     0.006523
      f-1     :     0.006452
      f+2     :     0.002710
      f-2     :     0.002957
      f+3     :     0.001981
      f-3     :     0.002623
  1 H s       :     0.781171  s :     0.781171
      pz      :     0.014533  p :     0.065715
      px      :     0.015327
      py      :     0.035855
  2 H s       :     0.773604  s :     0.773604
      pz      :     0.014194  p :     0.068690
      px      :     0.038565
      py      :     0.015931
  3 H s       :     0.783056  s :     0.783056
      pz      :     0.014896  p :     0.066166
      px      :     0.026199
      py      :     0.025070
  4 C s       :     2.841667  s :     2.841667
      pz      :     1.171539  p :     2.838839
      px      :     0.833553
      py      :     0.833748
      dz2     :     0.163763  d :     0.459994
      dxz     :     0.143997
      dyz     :     0.142252
      dx2y2   :     0.005181
      dxy     :     0.004802
      f0      :     0.025590  f :     0.066820
      f+1     :     0.019724
      f-1     :     0.019545
      f+2     :     0.000733
      f-2     :     0.000713
      f+3     :     0.000259
      f-3     :     0.000256
  5 N s       :     3.300803  s :     3.300803
      pz      :     1.467107  p :     3.516474
      px      :     1.023568
      py      :     1.025799
      dz2     :     0.053016  d :     0.135271
      dxz     :     0.036311
      dyz     :     0.035834
      dx2y2   :     0.005130
      dxy     :     0.004979
      f0      :     0.007399  f :     0.019005
      f+1     :     0.005086
      f-1     :     0.005067
      f+2     :     0.000444
      f-2     :     0.000440
      f+3     :     0.000286
      f-3     :     0.000283
  6 C s       :     2.817198  s :     2.817198
      pz      :     1.031927  p :     3.158448
      px      :     1.069424
      py      :     1.057098
      dz2     :     0.076507  d :     0.276071
      dxz     :     0.064080
      dyz     :     0.069259
      dx2y2   :     0.031084
      dxy     :     0.035140
      f0      :     0.008134  f :     0.031511
      f+1     :     0.006798
      f-1     :     0.006318
      f+2     :     0.002886
      f-2     :     0.002742
      f+3     :     0.001605
      f-3     :     0.003027
  7 H s       :     0.781690  s :     0.781690
      pz      :     0.015193  p :     0.065719
      px      :     0.014878
      py      :     0.035649
  8 H s       :     0.785153  s :     0.785153
      pz      :     0.014454  p :     0.065699
      px      :     0.026963
      py      :     0.024282
  9 H s       :     0.773845  s :     0.773845
      pz      :     0.013806  p :     0.068906
      px      :     0.038527
      py      :     0.016573
 10 C s       :     2.841320  s :     2.841320
      pz      :     1.170582  p :     2.842245
      px      :     0.835561
      py      :     0.836101
      dz2     :     0.163940  d :     0.459469
      dxz     :     0.142861
      dyz     :     0.142126
      dx2y2   :     0.005233
      dxy     :     0.005308
      f0      :     0.025540  f :     0.066787
      f+1     :     0.019596
      f-1     :     0.019523
      f+2     :     0.000788
      f-2     :     0.000821
      f+3     :     0.000261
      f-3     :     0.000258
 11 N s       :     3.301665  s :     3.301665
      pz      :     1.465856  p :     3.511064
      px      :     1.021164
      py      :     1.024044
      dz2     :     0.053014  d :     0.135579
      dxz     :     0.036389
      dyz     :     0.036013
      dx2y2   :     0.005143
      dxy     :     0.005020
      f0      :     0.007368  f :     0.019016
      f+1     :     0.005083
      f-1     :     0.005075
      f+2     :     0.000463
      f-2     :     0.000459
      f+3     :     0.000284
      f-3     :     0.000283
 12 C s       :     2.817021  s :     2.817021
      pz      :     1.036038  p :     3.155345
      px      :     1.060690
      py      :     1.058617
      dz2     :     0.075191  d :     0.280302
      dxz     :     0.065049
      dyz     :     0.072964
      dx2y2   :     0.032427
      dxy     :     0.034672
      f0      :     0.007945  f :     0.031709
      f+1     :     0.007011
      f-1     :     0.006340
      f+2     :     0.002916
      f-2     :     0.002863
      f+3     :     0.002065
      f-3     :     0.002570
 13 H s       :     0.781564  s :     0.781564
      pz      :     0.015510  p :     0.065650
      px      :     0.014920
      py      :     0.035220
 14 H s       :     0.782342  s :     0.782342
      pz      :     0.014661  p :     0.066089
      px      :     0.025528
      py      :     0.025901
 15 H s       :     0.782830  s :     0.782830
      pz      :     0.013834  p :     0.065654
      px      :     0.035703
      py      :     0.016117
 16 C s       :     2.840717  s :     2.840717
      pz      :     1.168917  p :     2.861335
      px      :     0.845898
      py      :     0.846520
      dz2     :     0.163626  d :     0.451955
      dxz     :     0.138276
      dyz     :     0.139271
      dx2y2   :     0.005197
      dxy     :     0.005585
      f0      :     0.025537  f :     0.066463
      f+1     :     0.019153
      f-1     :     0.019370
      f+2     :     0.000936
      f-2     :     0.000946
      f+3     :     0.000260
      f-3     :     0.000261
 17 N s       :     3.307125  s :     3.307125
      pz      :     1.463928  p :     3.487707
      px      :     1.011406
      py      :     1.012372
      dz2     :     0.053175  d :     0.137022
      dxz     :     0.036892
      dyz     :     0.037052
      dx2y2   :     0.004954
      dxy     :     0.004950
      f0      :     0.007329  f :     0.019171
      f+1     :     0.005126
      f-1     :     0.005167
      f+2     :     0.000497
      f-2     :     0.000495
      f+3     :     0.000278
      f-3     :     0.000278


                      *****************************
                      * MAYER POPULATION ANALYSIS *
                      *****************************

  NA   - Mulliken gross atomic population
  ZA   - Total nuclear charge
  QA   - Mulliken gross atomic charge
  VA   - Mayer's total valence
  BVA  - Mayer's bonded valence
  FA   - Mayer's free valence

  ATOM       NA         ZA         QA         VA         BVA        FA
  0 C      6.2850     6.0000    -0.2850     3.9076     3.6248     0.2828
  1 H      0.8331     1.0000     0.1669     0.9653     0.9179     0.0474
  2 H      0.7934     1.0000     0.2066     0.9704     0.9240     0.0464
  3 H      0.8331     1.0000     0.1669     0.9638     0.9164     0.0474
  4 C      6.1011     6.0000    -0.1011     4.0848     3.6609     0.4239
  5 N      7.1535     7.0000    -0.1535     3.3041     2.8246     0.4795
  6 C      6.2835     6.0000    -0.2835     3.9092     3.6260     0.2831
  7 H      0.8333     1.0000     0.1667     0.9654     0.9180     0.0474
  8 H      0.8398     1.0000     0.1602     0.9646     0.9167     0.0479
  9 H      0.7941     1.0000     0.2059     0.9712     0.9248     0.0464
 10 C      6.1042     6.0000    -0.1042     4.0836     3.6584     0.4252
 11 N      7.1459     7.0000    -0.1459     3.3041     2.8248     0.4793
 12 C      6.2786     6.0000    -0.2786     3.9309     3.6492     0.2817
 13 H      0.8274     1.0000     0.1726     0.9633     0.9164     0.0469
 14 H      0.8273     1.0000     0.1727     0.9634     0.9166     0.0469
 15 H      0.8328     1.0000     0.1672     0.9641     0.9167     0.0474
 16 C      6.1456     6.0000    -0.1456     4.1428     3.7146     0.4281
 17 N      7.0883     7.0000    -0.0883     3.3441     2.8707     0.4734

  Mayer bond orders larger than 0.100000
B(  0-C ,  1-H ) :   0.9139 B(  0-C ,  2-H ) :   0.9018 B(  0-C ,  3-H ) :   0.9165 
B(  0-C ,  4-C ) :   0.9009 B(  4-C ,  5-N ) :   2.7701 B(  6-C ,  7-H ) :   0.9150 
B(  6-C ,  8-H ) :   0.9183 B(  6-C ,  9-H ) :   0.9013 B(  6-C , 10-C ) :   0.8999 
B( 10-C , 11-N ) :   2.7705 B( 12-C , 13-H ) :   0.9163 B( 12-C , 14-H ) :   0.9170 
B( 12-C , 15-H ) :   0.9181 B( 12-C , 16-C ) :   0.9012 B( 16-C , 17-N ) :   2.8342 



----------------------------------
MP2 DERIVATIVE INTEGRAL GENERATION
----------------------------------


Input Wavefunction Amplitudes       ... 12mecn.remya.etal.2.mol1,4,10-orca.engrad-mp2.def2tzvp.frozencore.mp2tsaa.tmp
Input Correlated Electron Density   ... 12mecn.remya.etal.2.mol1,4,10-orca.engrad-mp2.def2tzvp.frozencore.pmp2re
Input Energy Weighted Density       ... 12mecn.remya.etal.2.mol1,4,10-orca.engrad-mp2.def2tzvp.frozencore.wmp2.tmp
Input SCF Electron Density          ... 12mecn.remya.etal.2.mol1,4,10-orca.engrad-mp2.def2tzvp.frozencore.scfp

One-Electron Terms    ...
                        ... One-Electron Terms done
Prescreening matrices              ... done

Batch handling in the gradient evaluation:
Memory available                      ... 8000.0 MB
Memory per occupied orbital in Q2     ...   20.3 MB
Memory per occupied orbital in Q3     ...    0.1 MB
Total memory requirement per |i>      ...   20.4 MB
Max. Number of orbitals possible      ...    391
Number of orbitals treated per batch  ...     24
Number of batches to be done          ...      1
Batch   0: i=    9 ...    32

---------------------------------------
MP2 TOTAL ENERGY:     -397.458343884 Eh
---------------------------------------

The final MP2 gradient
  0:  -0.00111846   0.00122155  -0.00795975
  1:  -0.00100955   0.00373866  -0.00092020
  2:   0.00102981  -0.00294136   0.00039022
  3:   0.00071621  -0.00240235   0.00053018
  4:   0.00087934   0.00019196   0.00361412
  5:  -0.00053867   0.00008638   0.00389140
  6:  -0.00035895  -0.00179637   0.00736518
  7:   0.00068676  -0.00361982   0.00050969
  8:   0.00111641   0.00271397   0.00068684
  9:  -0.00187462   0.00230852   0.00013895
 10:  -0.00002682   0.00052394  -0.00475004
 11:   0.00064843   0.00000386  -0.00349545
 12:   0.00211586  -0.00155457   0.00679547
 13:   0.00128062  -0.00398945   0.00114132
 14:  -0.00003973   0.00237937   0.00014602
 15:  -0.00229790   0.00273074   0.00138143
 16:  -0.00089722   0.00060396  -0.00629748
 17:  -0.00031153  -0.00019900  -0.00316792

-----------------------------------
NORM OF THE MP2 GRADIENT:  0.019895
-----------------------------------

-------------------------   --------------------
FINAL SINGLE POINT ENERGY      -397.458343883936
-------------------------   --------------------


                            ***************************************
                            *     ORCA property calculations      *
                            ***************************************

                                    ---------------------
                                    Active property flags
                                    ---------------------
   (+) Dipole Moment


------------------------------------------------------------------------------
                       ORCA ELECTRIC PROPERTIES CALCULATION
------------------------------------------------------------------------------

Dipole Moment Calculation                       ... on
Quadrupole Moment Calculation                   ... off
Polarizability Calculation                      ... off
GBWName                                         ... 12mecn.remya.etal.2.mol1,4,10-orca.engrad-mp2.def2tzvp.frozencore.gbw
Electron density file                           ... 12mecn.remya.etal.2.mol1,4,10-orca.engrad-mp2.def2tzvp.frozencore.scfp
The origin for moment calculation is the CENTER OF MASS  = (-0.973138, -0.465620 -0.230303)

-------------
DIPOLE MOMENT
-------------
                                X             Y             Z
Electronic contribution:      0.14629      -0.28327       3.01538
Nuclear contribution   :     -0.22979       0.43269      -4.61333
                        -----------------------------------------
Total Dipole Moment    :     -0.08350       0.14942      -1.59796
                        -----------------------------------------
Magnitude (a.u.)       :      1.60710
Magnitude (Debye)      :      4.08492



--------------------
Rotational spectrum 
--------------------
 
Rotational constants in cm-1:     0.093490     0.008862     0.008228 
Rotational constants in MHz :  2802.745012   265.678759   246.681500 

 Dipole components along the rotational axes: 
x,y,z [a.u.] :     0.084668    -1.594565     0.181533 
x,y,z [Debye]:     0.215209    -4.053062     0.461421 

 

                         *** MP2 UNRELAXED DENSITY ***

------------------------------------------------------------------------------
                       ORCA ELECTRIC PROPERTIES CALCULATION
------------------------------------------------------------------------------

Dipole Moment Calculation                       ... on
Quadrupole Moment Calculation                   ... off
Polarizability Calculation                      ... off
GBWName                                         ... 12mecn.remya.etal.2.mol1,4,10-orca.engrad-mp2.def2tzvp.frozencore.gbw
Electron density file                           ... 12mecn.remya.etal.2.mol1,4,10-orca.engrad-mp2.def2tzvp.frozencore.pmp2ur
The origin for moment calculation is the CENTER OF MASS  = (-0.973138, -0.465620 -0.230303)

-------------
DIPOLE MOMENT
-------------
                                X             Y             Z
Electronic contribution:      0.14762      -0.28677       3.05067
Nuclear contribution   :     -0.22979       0.43269      -4.61333
                        -----------------------------------------
Total Dipole Moment    :     -0.08217       0.14592      -1.56266
                        -----------------------------------------
Magnitude (a.u.)       :      1.57161
Magnitude (Debye)      :      3.99472



--------------------
Rotational spectrum 
--------------------
 
Rotational constants in cm-1:     0.093490     0.008862     0.008228 
Rotational constants in MHz :  2802.745012   265.678759   246.681500 

 Dipole components along the rotational axes: 
x,y,z [a.u.] :     0.082272    -1.559403     0.177356 
x,y,z [Debye]:     0.209118    -3.963688     0.450803 

 

                           *** MP2 RELAXED DENSITY ***

------------------------------------------------------------------------------
                       ORCA ELECTRIC PROPERTIES CALCULATION
------------------------------------------------------------------------------

Dipole Moment Calculation                       ... on
Quadrupole Moment Calculation                   ... off
Polarizability Calculation                      ... off
GBWName                                         ... 12mecn.remya.etal.2.mol1,4,10-orca.engrad-mp2.def2tzvp.frozencore.gbw
Electron density file                           ... 12mecn.remya.etal.2.mol1,4,10-orca.engrad-mp2.def2tzvp.frozencore.pmp2re
The origin for moment calculation is the CENTER OF MASS  = (-0.973138, -0.465620 -0.230303)

-------------
DIPOLE MOMENT
-------------
                                X             Y             Z
Electronic contribution:      0.15205      -0.29611       3.14703
Nuclear contribution   :     -0.22979       0.43269      -4.61333
                        -----------------------------------------
Total Dipole Moment    :     -0.07774       0.13658      -1.46631
                        -----------------------------------------
Magnitude (a.u.)       :      1.47471
Magnitude (Debye)      :      3.74841



--------------------
Rotational spectrum 
--------------------
 
Rotational constants in cm-1:     0.093490     0.008862     0.008228 
Rotational constants in MHz :  2802.745012   265.678759   246.681500 

 Dipole components along the rotational axes: 
x,y,z [a.u.] :     0.076546    -1.463319     0.166123 
x,y,z [Debye]:     0.194566    -3.719461     0.422252 

 

Timings for individual modules:

Sum of individual times         ...      170.979 sec (=   2.850 min)
GTO integral calculation        ...        1.913 sec (=   0.032 min)   1.1 %
SCF iterations                  ...       36.760 sec (=   0.613 min)  21.5 %
MP2 module                      ...      132.307 sec (=   2.205 min)  77.4 %
                             ****ORCA TERMINATED NORMALLY****
TOTAL RUN TIME: 0 days 0 hours 2 minutes 52 seconds 383 msec
