61
Energy:   -590.82082607
C    4.35284851  -3.12051149  -1.34076472
H    4.30380781  -3.98098158  -0.70666188
H    5.29645754  -3.10229510  -1.84491675
H    3.56380209  -3.16365475  -2.06218241
C    4.20097559  -1.84619946  -0.48949304
N    4.08789930  -0.89741623   0.14431742
C   -3.91396456   0.95599195  -4.76107102
H   -4.13338563   0.10691579  -5.37411608
H   -3.93889653   1.84329108  -5.35854717
H   -4.64264261   1.03061736  -3.98109767
C   -2.51352466   0.79357438  -4.14140286
N   -1.47083351   0.67264712  -3.68003174
C   -1.79688052   3.64623634  -1.98849478
H   -2.77654671   3.36099181  -2.31065918
H   -1.08022254   3.35989020  -2.72964680
H   -1.76181945   4.70656868  -1.84933604
C   -1.46880647   2.94281244  -0.65839620
N   -1.22454043   2.41908137   0.33192265
C   -1.15085266   2.87416049   5.40953425
H   -1.22159711   2.34177371   6.33498534
H   -1.97654450   3.54908504   5.32230508
H   -0.23468080   3.42635538   5.38485569
C   -1.17925718   1.87426303   4.23863790
N   -1.20040564   1.12979393   3.36685235
C    0.10404886  -4.23158530   1.41841863
H   -0.41877368  -5.15147134   1.25915019
H   -0.55630043  -3.51904976   1.86689495
H    0.93768810  -4.40280873   2.06697645
C    0.60711538  -3.68672086   0.06873467
N    0.98167128  -3.28104452  -0.93616640
C   -4.40175380   1.10280623   1.43718799
H   -5.41463051   1.25392243   1.74726032
H   -3.79613910   1.91092590   1.79084392
H   -4.03856921   0.18127657   1.84188434
C   -4.33831517   1.04853736  -0.10054750
N   -4.29108223   1.00813173  -1.24546146
C    3.63185087  -1.32282235   3.57158031
H    4.35818642  -1.62159008   2.84489283
H    3.60806608  -2.03806832   4.36704030
H    3.89360525  -0.36217387   3.96341986
C    2.24396984  -1.24601621   2.90864211
N    1.21062932  -1.18883054   2.41505449
C    1.67344430  -0.67821226  -3.20111847
H    2.73232404  -0.60367023  -3.33571923
H    1.17596422  -0.14485968  -3.98402823
H    1.38187376  -1.70732924  -3.22947247
C    1.28509136  -0.07196585  -1.83977822
N    0.99594495   0.37941216  -0.82619852
C   -2.37165338  -2.08447770  -1.88332710
H   -3.21524968  -1.55674811  -2.27670599
H   -2.62644094  -3.11502065  -1.74929864
H   -1.55159424  -2.00570425  -2.56611318
C   -1.97107315  -1.47417612  -0.52735237
N   -1.67282297  -1.01977886   0.48223246
C    4.07185474   2.45151470   0.57366587
H    3.93567461   2.15325316  -0.44486013
H    4.87812643   1.89475282   1.00359757
H    4.29956954   3.49630107   0.61196073
C    2.77968241   2.17839741   1.36568710
N    1.81760138   1.97504917   1.95538290
Na  -0.05997400   0.55685264   1.32904755
