6
Energy:    -20.76891850
O    0.25939124   1.14038530   0.35985187
H    0.70660766   1.39030191  -0.44870921
H    0.31869862   1.91667903   0.91670242
O   -0.38869114  -1.56048182  -0.59206000
H   -0.80160787  -1.93122861   0.18786208
H   -0.02379283  -0.72625732  -0.29684728
