6
Energy:    -21.20650386
O   -0.34521092   0.46421228  -1.02505780
H   -0.11062153   0.81356972  -1.88479558
H   -1.30145774   0.50122275  -1.00374865
O    0.53653678  -0.52117315   1.58759430
H    0.82164800  -1.31251819   1.13073933
H    0.29462976   0.08579071   0.88808896
