6
Energy:    -23.96748449
O    0.90008814  -0.85409097   0.99302531
H    0.52436061  -1.73248883   0.93405193
H    0.23973499  -0.28369716   0.59955807
O   -0.69400976   0.73593273  -0.62100465
H   -0.85842688   1.67695189  -0.68168256
H   -0.22427853   0.52191399  -1.42709422
