6
Energy:    -24.74289479
O   -0.64424823   0.96876226   0.43694053
H   -0.28224561   1.62721656   1.02991936
H   -1.31741036   0.52521070   0.95302831
O    0.80248212  -1.29020534  -0.55947540
H    0.95216100  -1.19339681  -1.49993071
H    0.40285567  -0.46205973  -0.29357051
