
                                 *****************
                                 * O   R   C   A *
                                 *****************

           --- An Ab Initio, DFT and Semiempirical electronic structure package ---

                  #######################################################
                  #                        -***-                        #
                  #          Department of theory and spectroscopy      #
                  #               Directorship: Frank Neese             #
                  #        Max Planck Institute fuer Kohlenforschung    #
                  #                Kaiser Wilhelm Platz 1               #
                  #                 D-45470 Muelheim/Ruhr               #
                  #                      Germany                        #
                  #                                                     #
                  #                  All rights reserved                #
                  #                        -***-                        #
                  #######################################################


                         Program Version 4.2.0 -  RELEASE  -


 With contributions from (in alphabetic order):
   Daniel Aravena         : Magnetic Suceptibility
   Michael Atanasov       : Ab Initio Ligand Field Theory (pilot matlab implementation)
   Alexander A. Auer      : GIAO ZORA, VPT2
   Ute Becker             : Parallelization
   Giovanni Bistoni       : ED, misc. LED, open-shell LED, HFLED
   Martin Brehm           : Molecular dynamics
   Dmytro Bykov           : SCF Hessian
   Vijay G. Chilkuri      : MRCI spin determinant printing, contributions to CSF-ICE
   Dipayan Datta          : RHF DLPNO-CCSD density
   Achintya Kumar Dutta   : EOM-CC, STEOM-CC
   Dmitry Ganyushin       : Spin-Orbit,Spin-Spin,Magnetic field MRCI
   Miquel Garcia          : C-PCM Hessian, Gaussian charge scheme
   Yang Guo               : DLPNO-NEVPT2, CIM, IAO-localization
   Andreas Hansen         : Spin unrestricted coupled pair/coupled cluster methods
   Benjamin Helmich-Paris : CASSCF linear response (MC-RPA)
   Lee Huntington         : MR-EOM, pCC
   Robert Izsak           : Overlap fitted RIJCOSX, COSX-SCS-MP3, EOM
   Christian Kollmar      : KDIIS, OOCD, Brueckner-CCSD(T), CCSD density
   Simone Kossmann        : Meta GGA functionals, TD-DFT gradient, OOMP2, MP2 Hessian
   Martin Krupicka        : AUTO-CI
   Lucas Lang             : DCDCAS
   Dagmar Lenk            : GEPOL surface, SMD
   Dimitrios Liakos       : Extrapolation schemes; Compound Job, initial MDCI parallelization
   Dimitrios Manganas     : Further ROCIS development; embedding schemes
   Dimitrios Pantazis     : SARC Basis sets
   Taras Petrenko         : DFT Hessian,TD-DFT gradient, ASA, ECA, R-Raman, ABS, FL, XAS/XES, NRVS
   Peter Pinski           : DLPNO-MP2, DLPNO-MP2 Gradient
   Christoph Reimann      : Effective Core Potentials
   Marius Retegan         : Local ZFS, SOC
   Christoph Riplinger    : Optimizer, TS searches, QM/MM, DLPNO-CCSD(T), (RO)-DLPNO pert. Triples
   Tobias Risthaus        : Range-separated hybrids, TD-DFT gradient, RPA, STAB
   Michael Roemelt        : Original ROCIS implementation
   Masaaki Saitow         : Open-shell DLPNO-CCSD energy and density
   Barbara Sandhoefer     : DKH picture change effects
   Avijit Sen             : IP-ROCIS
   Kantharuban Sivalingam : CASSCF convergence, NEVPT2, FIC-MRCI
   Bernardo de Souza      : ESD, SOC TD-DFT
   Georgi Stoychev        : AutoAux, RI-MP2 NMR
   Willem Van den Heuvel  : Paramagnetic NMR
   Boris Wezisla          : Elementary symmetry handling
   Frank Wennmohs         : Technical directorship


 We gratefully acknowledge several colleagues who have allowed us to
 interface, adapt or use parts of their codes:
   Stefan Grimme, W. Hujo, H. Kruse,             : VdW corrections, initial TS optimization,
                  C. Bannwarth                     DFT functionals, gCP, sTDA/sTD-DF
   Ed Valeev, F. Pavosevic, A. Kumar             : LibInt (2-el integral package), F12 methods
   Garnet Chan, S. Sharma, J. Yang, R. Olivares  : DMRG
   Ulf Ekstrom                                   : XCFun DFT Library
   Mihaly Kallay                                 : mrcc  (arbitrary order and MRCC methods)
   Andreas Klamt, Michael Diedenhofen            : otool_cosmo (COSMO solvation model)
   Jiri Pittner, Ondrej Demel                    : Mk-CCSD
   Frank Weinhold                                : gennbo (NPA and NBO analysis)
   Christopher J. Cramer and Donald G. Truhlar   : smd solvation model
   Lars Goerigk                                  : TD-DFT with DH, B97 family of functionals
   V. Asgeirsson, H. Jonsson                     : NEB implementation
   FAccTs GmbH                                   : IRC, NEB, NEB-TS, Multilevel, MM, QM/MM, CI optimization
   S Lehtola, MJT Oliveira, MAL Marques          : LibXC Library


 Your calculation uses the libint2 library for the computation of 2-el integrals
 For citations please refer to: http://libint.valeyev.net

 Your ORCA version has been built with support for libXC version: 4.2.3
 For citations please refer to: https://tddft.org/programs/libxc/

 This ORCA versions uses:
   CBLAS   interface :  Fast vector & matrix operations
   LAPACKE interface :  Fast linear algebra routines
   SCALAPACK package :  Parallel linear algebra routines


----- Orbital basis set information -----
Your calculation utilizes the basis: def2-TZVP
   F. Weigend and R. Ahlrichs, Phys. Chem. Chem. Phys. 7, 3297 (2005).

================================================================================
                                        WARNINGS
                       Please study these warnings very carefully!
================================================================================


WARNING: The frozen-core approximation for MP2-gradient calculations is turned on by default.

INFO   : the flag for use of LIBINT has been found!

================================================================================
                                       INPUT FILE
================================================================================
NAME = 12h2o.su.etal.mol1,2,5,7,11-orca.engrad-mp2.def2tzvp.frozencore.inp
|  1> # 12h2o.su.etal.mol1,2,5,7,11
|  2> ! MP2 def2-TZVP EnGrad TightSCF
|  3> 
|  4> %pal
|  5>     nprocs 6
|  6> end
|  7> 
|  8> %maxcore 8000
|  9> 
| 10> %scf
| 11>     ConvForced true
| 12> end
| 13> 
| 14> *xyz 0 1
| 15> O  -1.794470000  -0.923410000   2.768350000
| 16> H  -2.338250000  -1.359750000   3.430940000
| 17> H  -0.879480000  -1.303000000   2.865760000
| 18> O   0.923410000  -1.794470000  -2.768350000
| 19> H   1.359750000  -2.338250000  -3.430940000
| 20> H   1.303000000  -0.879480000  -2.865760000
| 21> O   0.885520000  -1.737840000   0.052730000
| 22> H   1.284090000  -0.839590000   0.017130000
| 23> H   1.032320000  -2.090180000  -0.841890000
| 24> O  -1.737840000  -0.885520000  -0.052730000
| 25> H  -2.090180000  -1.032320000   0.841890000
| 26> H  -0.839590000  -1.284090000  -0.017130000
| 27> O  -0.741530000   1.752130000   2.896280000
| 28> H  -0.920500000   2.036450000   1.984040000
| 29> H  -1.242140000   0.921210000   2.984230000
| 30> *
| 31> 
| 32>                          ****END OF INPUT****
================================================================================

                     *******************************
                     * Energy+Gradient Calculation *
                     *******************************

---------------------------------
CARTESIAN COORDINATES (ANGSTROEM)
---------------------------------
  O     -1.794470   -0.923410    2.768350
  H     -2.338250   -1.359750    3.430940
  H     -0.879480   -1.303000    2.865760
  O      0.923410   -1.794470   -2.768350
  H      1.359750   -2.338250   -3.430940
  H      1.303000   -0.879480   -2.865760
  O      0.885520   -1.737840    0.052730
  H      1.284090   -0.839590    0.017130
  H      1.032320   -2.090180   -0.841890
  O     -1.737840   -0.885520   -0.052730
  H     -2.090180   -1.032320    0.841890
  H     -0.839590   -1.284090   -0.017130
  O     -0.741530    1.752130    2.896280
  H     -0.920500    2.036450    1.984040
  H     -1.242140    0.921210    2.984230

----------------------------
CARTESIAN COORDINATES (A.U.)
----------------------------
  NO LB      ZA    FRAG     MASS         X           Y           Z
   0 O     8.0000    0    15.999   -3.391057   -1.744992    5.231423
   1 H     1.0000    0     1.008   -4.418652   -2.569555    6.483537
   2 H     1.0000    0     1.008   -1.661976   -2.462313    5.415502
   3 O     8.0000    0    15.999    1.744992   -3.391057   -5.231423
   4 H     1.0000    0     1.008    2.569555   -4.418652   -6.483537
   5 H     1.0000    0     1.008    2.462313   -1.661976   -5.415502
   6 O     8.0000    0    15.999    1.673390   -3.284042    0.099645
   7 H     1.0000    0     1.008    2.426578   -1.586595    0.032371
   8 H     1.0000    0     1.008    1.950802   -3.949868   -1.590942
   9 O     8.0000    0    15.999   -3.284042   -1.673390   -0.099645
  10 H     1.0000    0     1.008   -3.949868   -1.950802    1.590942
  11 H     1.0000    0     1.008   -1.586595   -2.426578   -0.032371
  12 O     8.0000    0    15.999   -1.401289    3.311046    5.473176
  13 H     1.0000    0     1.008   -1.739493    3.848333    3.749292
  14 H     1.0000    0     1.008   -2.347304    1.740835    5.639377

--------------------------------
INTERNAL COORDINATES (ANGSTROEM)
--------------------------------
 O      0   0   0     0.000000000000     0.00000000     0.00000000
 H      1   0   0     0.961828878803     0.00000000     0.00000000
 H      1   2   0     0.995381322057   106.21731035     0.00000000
 O      3   1   2     5.935920367146   102.58474291   140.89009172
 H      4   3   1     0.961828878803   146.97742434   224.01286022
 H      4   3   1     0.995381322057    97.62005672    87.72090689
 O      4   3   1     2.821902722526    17.32744736   169.52589616
 H      7   4   3     0.983350632989    88.66470709   258.45499027
 H      7   4   3     0.972645187106    21.75017499   124.29821266
 O      7   4   3     2.760360281485    88.89773968   354.32454084
 H     10   7   4     0.972645187106   105.22009255   163.79109705
 H     10   7   4     0.983350632989     5.92595386    88.14524976
 O      1   2   3     2.878117964938   126.72240291   256.40918860
 H     13   1   2     0.972136791249    99.37069922   223.07499144
 H     13   1   2     0.974050112161    12.30570018   335.59052045

---------------------------
INTERNAL COORDINATES (A.U.)
---------------------------
 O      0   0   0     0.000000000000     0.00000000     0.00000000
 H      1   0   0     1.817593168635     0.00000000     0.00000000
 H      1   2   0     1.880998097508   106.21731035     0.00000000
 O      3   1   2    11.217263846671   102.58474291   140.89009172
 H      4   3   1     1.817593168635   146.97742434   224.01286022
 H      4   3   1     1.880998097508    97.62005672    87.72090689
 O      4   3   1     5.332623322141    17.32744736   169.52589616
 H      7   4   3     1.858263389967    88.66470709   258.45499027
 H      7   4   3     1.838033029106    21.75017499   124.29821266
 O      7   4   3     5.216324962960    88.89773968   354.32454084
 H     10   7   4     1.838033029106   105.22009255   163.79109705
 H     10   7   4     1.858263389967     5.92595386    88.14524976
 O      1   2   3     5.438854734852   126.72240291   256.40918860
 H     13   1   2     1.837072300170    99.37069922   223.07499144
 H     13   1   2     1.840687952699    12.30570018   335.59052045

---------------------
BASIS SET INFORMATION
---------------------
There are 2 groups of distinct atoms

 Group   1 Type O   : 11s6p2d1f contracted to 5s3p2d1f pattern {62111/411/11/1}
 Group   2 Type H   : 5s1p contracted to 3s1p pattern {311/1}

Atom   0O    basis set group =>   1
Atom   1H    basis set group =>   2
Atom   2H    basis set group =>   2
Atom   3O    basis set group =>   1
Atom   4H    basis set group =>   2
Atom   5H    basis set group =>   2
Atom   6O    basis set group =>   1
Atom   7H    basis set group =>   2
Atom   8H    basis set group =>   2
Atom   9O    basis set group =>   1
Atom  10H    basis set group =>   2
Atom  11H    basis set group =>   2
Atom  12O    basis set group =>   1
Atom  13H    basis set group =>   2
Atom  14H    basis set group =>   2


           ************************************************************
           *        Program running with 6 parallel MPI-processes     *
           *              working on a common directory               *
           ************************************************************
------------------------------------------------------------------------------
                           ORCA GTO INTEGRAL CALCULATION
------------------------------------------------------------------------------

                         BASIS SET STATISTICS AND STARTUP INFO

 # of primitive gaussian shells          ...  160
 # of primitive gaussian functions       ...  310
 # of contracted shells                  ...   95
 # of contracted basis functions         ...  215
 Highest angular momentum                ...    3
 Maximum contraction depth               ...    6
 Integral package used                   ... LIBINT
 Integral threshhold            Thresh   ...  2.500e-11
 Primitive cut-off              TCut     ...  2.500e-12


------------------------------ INTEGRAL EVALUATION ----------------------------


 * One electron integrals 
 Pre-screening matrix                    ... done
 Shell pair data                         ... done (   0.001 sec)



           ************************************************************
           *        Program running with 6 parallel MPI-processes     *
           *              working on a common directory               *
           ************************************************************
-------------------------------------------------------------------------------
                                 ORCA SCF
-------------------------------------------------------------------------------

------------
SCF SETTINGS
------------
Hamiltonian:
 Ab initio Hamiltonian  Method          .... Hartree-Fock(GTOs)


General Settings:
 Integral files         IntName         .... 12h2o.su.etal.mol1,2,5,7,11-orca.engrad-mp2.def2tzvp.frozencore
 Hartree-Fock type      HFTyp           .... RHF
 Total Charge           Charge          ....    0
 Multiplicity           Mult            ....    1
 Number of Electrons    NEL             ....   50
 Basis Dimension        Dim             ....  215
 Nuclear Repulsion      ENuc            ....    187.9228097342 Eh

Convergence Acceleration:
 DIIS                   CNVDIIS         .... on
   Start iteration      DIISMaxIt       ....    12
   Startup error        DIISStart       ....  0.200000
   # of expansion vecs  DIISMaxEq       ....     5
   Bias factor          DIISBfac        ....   1.050
   Max. coefficient     DIISMaxC        ....  10.000
 Newton-Raphson         CNVNR           .... off
 SOSCF                  CNVSOSCF        .... on
   Start iteration      SOSCFMaxIt      ....   150
   Startup grad/error   SOSCFStart      ....  0.003300
 Level Shifting         CNVShift        .... on
   Level shift para.    LevelShift      ....    0.2500
   Turn off err/grad.   ShiftErr        ....    0.0010
 Zerner damping         CNVZerner       .... off
 Static damping         CNVDamp         .... on
   Fraction old density DampFac         ....    0.7000
   Max. Damping (<1)    DampMax         ....    0.9800
   Min. Damping (>=0)   DampMin         ....    0.0000
   Turn off err/grad.   DampErr         ....    0.1000
 Fernandez-Rico         CNVRico         .... off

SCF Procedure:
 Maximum # iterations   MaxIter         ....   125
 SCF integral mode      SCFMode         .... Direct
   Integral package                     .... LIBINT
 Reset frequency        DirectResetFreq ....    20
 Integral Threshold     Thresh          ....  2.500e-11 Eh
 Primitive CutOff       TCut            ....  2.500e-12 Eh

Convergence Tolerance:
 Convergence Check Mode ConvCheckMode   .... Total+1el-Energy
 Convergence forced     ConvForced      .... 1
 Energy Change          TolE            ....  1.000e-08 Eh
 1-El. energy change                    ....  1.000e-05 Eh
 Orbital Gradient       TolG            ....  1.000e-05
 Orbital Rotation angle TolX            ....  1.000e-05
 DIIS Error             TolErr          ....  5.000e-07


Diagonalization of the overlap matrix:
Smallest eigenvalue                        ... 4.771e-03
Time for diagonalization                   ...    0.031 sec
Threshold for overlap eigenvalues          ... 1.000e-08
Number of eigenvalues below threshold      ... 0
Time for construction of square roots      ...    0.084 sec
Total time needed                          ...    0.115 sec

-------------------
DFT GRID GENERATION
-------------------

General Integration Accuracy     IntAcc      ...  4.340
Radial Grid Type                 RadialGrid  ... Gauss-Chebyshev
Angular Grid (max. acc.)         AngularGrid ... Lebedev-110
Angular grid pruning method      GridPruning ... 3 (G Style)
Weight generation scheme         WeightScheme... Becke
Basis function cutoff            BFCut       ...    1.0000e-11
Integration weight cutoff        WCut        ...    1.0000e-14
Grids for H and He will be reduced by one unit

# of grid points (after initial pruning)     ...  16520 (   0.0 sec)
# of grid points (after weights+screening)   ...  15795 (   0.0 sec)
nearest neighbour list constructed           ...    0.0 sec
Grid point re-assignment to atoms done       ...    0.0 sec
Grid point division into batches done        ...    0.0 sec
Reduced shell lists constructed in    0.0 sec

Total number of grid points                  ...    15795
Total number of batches                      ...      255
Average number of points per batch           ...       61
Average number of grid points per atom       ...     1053
Average number of shells per batch           ...    50.07 (52.70%)
Average number of basis functions per batch  ...   103.93 (48.34%)
Average number of large shells per batch     ...    36.32 (72.54%)
Average number of large basis fcns per batch ...    73.09 (70.33%)
Maximum spatial batch extension              ...  15.22, 15.25, 14.72 au
Average spatial batch extension              ...   0.65,  0.68,  0.62 au

Time for grid setup =    0.126 sec

------------------------------
INITIAL GUESS: MODEL POTENTIAL
------------------------------
Loading Hartree-Fock densities                     ... done
Calculating cut-offs                               ... done
Setting up the integral package                    ... done
Initializing the effective Hamiltonian             ... done
Starting the Coulomb interaction                   ... done (   0.0 sec)
Reading the grid                                   ... done
Mapping shells                                     ... done
Starting the XC term evaluation                    ... done (   0.0 sec)
Transforming the Hamiltonian                       ... done (   0.0 sec)
Diagonalizing the Hamiltonian                      ... done (   0.0 sec)
Back transforming the eigenvectors                 ... done (   0.0 sec)
Now organizing SCF variables                       ... done
                      ------------------
                      INITIAL GUESS DONE (   0.3 sec)
                      ------------------
--------------
SCF ITERATIONS
--------------
ITER       Energy         Delta-E        Max-DP      RMS-DP      [F,P]     Damp
               ***  Starting incremental Fock matrix formation  ***
  0   -379.8458942775   0.000000000000 0.04459927  0.00106513  0.3471095 0.7000
  1   -380.0250602875  -0.179166010068 0.02947695  0.00073627  0.2167364 0.7000
                               ***Turning on DIIS***
  2   -380.1197107195  -0.094650431933 0.01640463  0.00041022  0.1635567 0.7000
  3   -380.9686614900  -0.848950770543 0.00765581  0.00018801  0.1218346 0.7000
  4   -380.7974209393   0.171240550741 0.01737330  0.00043888  0.0862250 0.0000
  5   -380.3384964638   0.458924475456 0.00223045  0.00007127  0.0054850 0.0000
                      *** Initiating the SOSCF procedure ***
                           *** Shutting down DIIS ***
                      *** Re-Reading the Fockian *** 
                      *** Removing any level shift *** 
ITER      Energy       Delta-E        Grad      Rot      Max-DP    RMS-DP
  6   -380.31132827   0.0271681984  0.000873  0.000873  0.001431  0.000044
               *** Restarting incremental Fock matrix formation ***
  7   -380.30243760   0.0088906641  0.000313  0.000441  0.000681  0.000019
  8   -380.30244539  -0.0000077908  0.000118  0.000332  0.000497  0.000016
  9   -380.30244723  -0.0000018329  0.000057  0.000034  0.000097  0.000003
 10   -380.30244738  -0.0000001500  0.000010  0.000009  0.000020  0.000000
                  ***Gradient check signals convergence***
              ***Rediagonalizing the Fockian in SOSCF/NRSCF***

               *****************************************************
               *                     SUCCESS                       *
               *           SCF CONVERGED AFTER  11 CYCLES          *
               *****************************************************


----------------
TOTAL SCF ENERGY
----------------

Total Energy       :         -380.30244738 Eh          -10348.55570 eV

Components:
Nuclear Repulsion  :          187.92280973 Eh            5113.63963 eV
Electronic Energy  :         -568.22525711 Eh          -15462.19533 eV
One Electron Energy:         -899.60540808 Eh          -24479.50767 eV
Two Electron Energy:          331.38015097 Eh            9017.31234 eV

Virial components:
Potential Energy   :         -760.06023204 Eh          -20682.29038 eV
Kinetic Energy     :          379.75778466 Eh           10333.73468 eV
Virial Ratio       :            2.00143424


---------------
SCF CONVERGENCE
---------------

  Last Energy change         ...   -3.5160e-09  Tolerance :   1.0000e-08
  Last MAX-Density change    ...    5.0399e-06  Tolerance :   1.0000e-07
  Last RMS-Density change    ...    1.4532e-07  Tolerance :   5.0000e-09
  Last Orbital Gradient      ...    1.9090e-06  Tolerance :   1.0000e-05
  Last Orbital Rotation      ...    2.3733e-06  Tolerance :   1.0000e-05

             **** THE GBW FILE WAS UPDATED (12h2o.su.etal.mol1,2,5,7,11-orca.engrad-mp2.def2tzvp.frozencore.gbw) ****
             **** DENSITY FILE WAS UPDATED (12h2o.su.etal.mol1,2,5,7,11-orca.engrad-mp2.def2tzvp.frozencore.scfp) ****
             **** ENERGY FILE WAS UPDATED (12h2o.su.etal.mol1,2,5,7,11-orca.engrad-mp2.def2tzvp.frozencore.en.tmp) ****
             **** THE GBW FILE WAS UPDATED (12h2o.su.etal.mol1,2,5,7,11-orca.engrad-mp2.def2tzvp.frozencore.gbw) ****
             **** DENSITY FILE WAS UPDATED (12h2o.su.etal.mol1,2,5,7,11-orca.engrad-mp2.def2tzvp.frozencore.scfp) ****
----------------
ORBITAL ENERGIES
----------------

  NO   OCC          E(Eh)            E(eV) 
   0   2.0000     -20.597882      -560.4969 
   1   2.0000     -20.597115      -560.4760 
   2   2.0000     -20.567462      -559.6691 
   3   2.0000     -20.527371      -558.5782 
   4   2.0000     -20.495750      -557.7177 
   5   2.0000      -1.378086       -37.4996 
   6   2.0000      -1.375544       -37.4304 
   7   2.0000      -1.350243       -36.7420 
   8   2.0000      -1.309807       -35.6417 
   9   2.0000      -1.280220       -34.8366 
  10   2.0000      -0.743712       -20.2374 
  11   2.0000      -0.741902       -20.1882 
  12   2.0000      -0.714408       -19.4400 
  13   2.0000      -0.680507       -18.5175 
  14   2.0000      -0.665760       -18.1162 
  15   2.0000      -0.620050       -16.8724 
  16   2.0000      -0.614130       -16.7113 
  17   2.0000      -0.587764       -15.9939 
  18   2.0000      -0.564473       -15.3601 
  19   2.0000      -0.540520       -14.7083 
  20   2.0000      -0.535122       -14.5614 
  21   2.0000      -0.520342       -14.1592 
  22   2.0000      -0.492732       -13.4079 
  23   2.0000      -0.475202       -12.9309 
  24   2.0000      -0.446533       -12.1508 
  25   0.0000       0.095017         2.5856 
  26   0.0000       0.113730         3.0947 
  27   0.0000       0.150421         4.0932 
  28   0.0000       0.176942         4.8148 
  29   0.0000       0.187226         5.0947 
  30   0.0000       0.204507         5.5649 
  31   0.0000       0.246319         6.7027 
  32   0.0000       0.268708         7.3119 
  33   0.0000       0.293705         7.9921 
  34   0.0000       0.341116         9.2822 
  35   0.0000       0.456361        12.4182 
  36   0.0000       0.479584        13.0501 
  37   0.0000       0.506447        13.7811 
  38   0.0000       0.527718        14.3599 
  39   0.0000       0.530224        14.4281 
  40   0.0000       0.553061        15.0496 
  41   0.0000       0.560776        15.2595 
  42   0.0000       0.572172        15.5696 
  43   0.0000       0.598567        16.2878 
  44   0.0000       0.602190        16.3864 
  45   0.0000       0.613906        16.7052 
  46   0.0000       0.631343        17.1797 
  47   0.0000       0.638294        17.3689 
  48   0.0000       0.648626        17.6500 
  49   0.0000       0.657388        17.8884 
  50   0.0000       0.694838        18.9075 
  51   0.0000       0.712119        19.3777 
  52   0.0000       0.727383        19.7931 
  53   0.0000       0.739892        20.1335 
  54   0.0000       0.749156        20.3856 
  55   0.0000       0.757712        20.6184 
  56   0.0000       0.775006        21.0890 
  57   0.0000       0.816125        22.2079 
  58   0.0000       0.841135        22.8884 
  59   0.0000       0.855504        23.2795 
  60   0.0000       0.876352        23.8467 
  61   0.0000       0.960895        26.1473 
  62   0.0000       0.999699        27.2032 
  63   0.0000       1.031630        28.0721 
  64   0.0000       1.061081        28.8735 
  65   0.0000       1.370595        37.2958 
  66   0.0000       1.381299        37.5871 
  67   0.0000       1.391560        37.8663 
  68   0.0000       1.404057        38.2063 
  69   0.0000       1.409814        38.3630 
  70   0.0000       1.441686        39.2303 
  71   0.0000       1.444564        39.3086 
  72   0.0000       1.471633        40.0452 
  73   0.0000       1.497542        40.7502 
  74   0.0000       1.528656        41.5968 
  75   0.0000       1.545091        42.0441 
  76   0.0000       1.576707        42.9044 
  77   0.0000       1.603065        43.6216 
  78   0.0000       1.618042        44.0292 
  79   0.0000       1.673737        45.5447 
  80   0.0000       1.802362        49.0448 
  81   0.0000       1.823047        49.6076 
  82   0.0000       1.826125        49.6914 
  83   0.0000       1.852505        50.4092 
  84   0.0000       1.874033        50.9950 
  85   0.0000       1.875150        51.0254 
  86   0.0000       1.938304        52.7439 
  87   0.0000       1.965214        53.4762 
  88   0.0000       1.980085        53.8809 
  89   0.0000       1.994872        54.2832 
  90   0.0000       2.040525        55.5255 
  91   0.0000       2.073456        56.4216 
  92   0.0000       2.104636        57.2700 
  93   0.0000       2.152202        58.5644 
  94   0.0000       2.169385        59.0320 
  95   0.0000       2.253071        61.3092 
  96   0.0000       2.285048        62.1793 
  97   0.0000       2.305203        62.7278 
  98   0.0000       2.309867        62.8547 
  99   0.0000       2.326135        63.2974 
 100   0.0000       2.337114        63.5961 
 101   0.0000       2.349583        63.9354 
 102   0.0000       2.376150        64.6583 
 103   0.0000       2.385190        64.9043 
 104   0.0000       2.395110        65.1742 
 105   0.0000       2.409165        65.5567 
 106   0.0000       2.470508        67.2259 
 107   0.0000       2.502422        68.0944 
 108   0.0000       2.532190        68.9044 
 109   0.0000       2.555860        69.5485 
 110   0.0000       2.577187        70.1288 
 111   0.0000       2.598043        70.6963 
 112   0.0000       2.617891        71.2364 
 113   0.0000       2.631823        71.6155 
 114   0.0000       2.661818        72.4318 
 115   0.0000       2.697136        73.3928 
 116   0.0000       2.708720        73.7080 
 117   0.0000       2.719870        74.0114 
 118   0.0000       2.735380        74.4335 
 119   0.0000       2.776904        75.5634 
 120   0.0000       2.877901        78.3117 
 121   0.0000       2.903218        79.0006 
 122   0.0000       2.946920        80.1898 
 123   0.0000       2.951754        80.3213 
 124   0.0000       2.969313        80.7991 
 125   0.0000       2.983137        81.1753 
 126   0.0000       2.993485        81.4569 
 127   0.0000       3.016630        82.0867 
 128   0.0000       3.023202        82.2655 
 129   0.0000       3.058631        83.2296 
 130   0.0000       3.068066        83.4863 
 131   0.0000       3.109318        84.6088 
 132   0.0000       3.145669        85.5980 
 133   0.0000       3.182755        86.6072 
 134   0.0000       3.238549        88.1254 
 135   0.0000       3.253301        88.5268 
 136   0.0000       3.283496        89.3485 
 137   0.0000       3.322658        90.4141 
 138   0.0000       3.343758        90.9883 
 139   0.0000       3.459820        94.1465 
 140   0.0000       3.963032       107.8396 
 141   0.0000       3.987519       108.5059 
 142   0.0000       4.056457       110.3818 
 143   0.0000       4.072581       110.8206 
 144   0.0000       4.149106       112.9029 
 145   0.0000       4.277861       116.4065 
 146   0.0000       4.282858       116.5425 
 147   0.0000       4.303153       117.0947 
 148   0.0000       4.346854       118.2839 
 149   0.0000       4.400466       119.7428 
 150   0.0000       5.516756       150.1186 
 151   0.0000       5.520036       150.2078 
 152   0.0000       5.536491       150.6556 
 153   0.0000       5.578890       151.8093 
 154   0.0000       5.605475       152.5327 
 155   0.0000       5.606925       152.5722 
 156   0.0000       5.611685       152.7017 
 157   0.0000       5.668428       154.2458 
 158   0.0000       5.685039       154.6978 
 159   0.0000       5.715125       155.5164 
 160   0.0000       5.779118       157.2578 
 161   0.0000       5.780707       157.3010 
 162   0.0000       5.808855       158.0670 
 163   0.0000       5.817476       158.3016 
 164   0.0000       5.821700       158.4165 
 165   0.0000       5.855938       159.3482 
 166   0.0000       5.856830       159.3725 
 167   0.0000       5.881640       160.0476 
 168   0.0000       5.885100       160.1417 
 169   0.0000       5.886309       160.1746 
 170   0.0000       5.888988       160.2475 
 171   0.0000       5.903096       160.6314 
 172   0.0000       5.926147       161.2587 
 173   0.0000       5.932286       161.4257 
 174   0.0000       5.960540       162.1946 
 175   0.0000       6.397011       174.0715 
 176   0.0000       6.397826       174.0937 
 177   0.0000       6.459487       175.7716 
 178   0.0000       6.513576       177.2434 
 179   0.0000       6.528152       177.6401 
 180   0.0000       6.660806       181.2498 
 181   0.0000       6.672038       181.5554 
 182   0.0000       6.688016       181.9902 
 183   0.0000       6.740484       183.4179 
 184   0.0000       6.771452       184.2606 
 185   0.0000       6.844081       186.2369 
 186   0.0000       6.848964       186.3698 
 187   0.0000       6.858710       186.6350 
 188   0.0000       6.868080       186.8900 
 189   0.0000       6.877317       187.1413 
 190   0.0000       6.882505       187.2825 
 191   0.0000       6.893628       187.5852 
 192   0.0000       6.906268       187.9291 
 193   0.0000       6.913095       188.1149 
 194   0.0000       6.923343       188.3937 
 195   0.0000       6.957700       189.3286 
 196   0.0000       6.982713       190.0093 
 197   0.0000       7.000408       190.4908 
 198   0.0000       7.029520       191.2830 
 199   0.0000       7.041784       191.6167 
 200   0.0000       7.345402       199.8786 
 201   0.0000       7.353127       200.0888 
 202   0.0000       7.395483       201.2413 
 203   0.0000       7.431061       202.2095 
 204   0.0000       7.458979       202.9691 
 205   0.0000       7.476084       203.4346 
 206   0.0000       7.502576       204.1555 
 207   0.0000       7.552887       205.5245 
 208   0.0000       7.572103       206.0474 
 209   0.0000       7.646158       208.0625 
 210   0.0000      44.836423      1220.0611 
 211   0.0000      44.900960      1221.8172 
 212   0.0000      44.946782      1223.0641 
 213   0.0000      44.961792      1223.4726 
 214   0.0000      45.072925      1226.4967 

                    ********************************
                    * MULLIKEN POPULATION ANALYSIS *
                    ********************************

-----------------------
MULLIKEN ATOMIC CHARGES
-----------------------
   0 O :   -0.737779
   1 H :    0.367729
   2 H :    0.383738
   3 O :   -0.712028
   4 H :    0.362246
   5 H :    0.362057
   6 O :   -0.733206
   7 H :    0.348078
   8 H :    0.398820
   9 O :   -0.763322
  10 H :    0.366484
  11 H :    0.369589
  12 O :   -0.731676
  13 H :    0.343808
  14 H :    0.375461
Sum of atomic charges:   -0.0000000

--------------------------------
MULLIKEN REDUCED ORBITAL CHARGES
--------------------------------
  0 O s       :     3.808377  s :     3.808377
      pz      :     1.731464  p :     4.903671
      px      :     1.381177
      py      :     1.791031
      dz2     :     0.004176  d :     0.024252
      dxz     :     0.004636
      dyz     :     0.005522
      dx2y2   :     0.002543
      dxy     :     0.007376
      f0      :     0.000086  f :     0.001478
      f+1     :     0.000336
      f-1     :     0.000180
      f+2     :     0.000062
      f-2     :     0.000348
      f+3     :     0.000093
      f-3     :     0.000373
  1 H s       :     0.587193  s :     0.587193
      pz      :     0.017044  p :     0.045077
      px      :     0.013332
      py      :     0.014702
  2 H s       :     0.575658  s :     0.575658
      pz      :     0.010477  p :     0.040603
      px      :     0.018010
      py      :     0.012117
  3 O s       :     3.810504  s :     3.810504
      pz      :     1.716475  p :     4.875190
      px      :     1.803318
      py      :     1.355397
      dz2     :     0.003935  d :     0.024816
      dxz     :     0.005879
      dyz     :     0.004260
      dx2y2   :     0.002497
      dxy     :     0.008246
      f0      :     0.000083  f :     0.001518
      f+1     :     0.000186
      f-1     :     0.000329
      f+2     :     0.000071
      f-2     :     0.000350
      f+3     :     0.000399
      f-3     :     0.000100
  4 H s       :     0.592291  s :     0.592291
      pz      :     0.016985  p :     0.045463
      px      :     0.014954
      py      :     0.013523
  5 H s       :     0.596125  s :     0.596125
      pz      :     0.010828  p :     0.041818
      px      :     0.013230
      py      :     0.017759
  6 O s       :     3.802657  s :     3.802657
      pz      :     1.603561  p :     4.904130
      px      :     1.847024
      py      :     1.453545
      dz2     :     0.011303  d :     0.025020
      dxz     :     0.002266
      dyz     :     0.002791
      dx2y2   :     0.003546
      dxy     :     0.005115
      f0      :     0.000152  f :     0.001399
      f+1     :     0.000115
      f-1     :     0.000456
      f+2     :     0.000069
      f-2     :     0.000041
      f+3     :     0.000455
      f-3     :     0.000111
  7 H s       :     0.608996  s :     0.608996
      pz      :     0.010135  p :     0.042926
      px      :     0.014357
      py      :     0.018434
  8 H s       :     0.552883  s :     0.552883
      pz      :     0.024921  p :     0.048298
      px      :     0.012514
      py      :     0.010863
  9 O s       :     3.805699  s :     3.805699
      pz      :     1.568526  p :     4.931868
      px      :     1.487665
      py      :     1.875677
      dz2     :     0.011009  d :     0.024351
      dxz     :     0.002879
      dyz     :     0.002557
      dx2y2   :     0.002948
      dxy     :     0.004959
      f0      :     0.000169  f :     0.001404
      f+1     :     0.000440
      f-1     :     0.000120
      f+2     :     0.000076
      f-2     :     0.000040
      f+3     :     0.000116
      f-3     :     0.000444
 10 H s       :     0.584442  s :     0.584442
      pz      :     0.023622  p :     0.049073
      px      :     0.011665
      py      :     0.013786
 11 H s       :     0.576105  s :     0.576105
      pz      :     0.009999  p :     0.054306
      px      :     0.028414
      py      :     0.015892
 12 O s       :     3.808490  s :     3.808490
      pz      :     1.499987  p :     4.896391
      px      :     1.824009
      py      :     1.572395
      dz2     :     0.011916  d :     0.025303
      dxz     :     0.002946
      dyz     :     0.001239
      dx2y2   :     0.002040
      dxy     :     0.007162
      f0      :     0.000272  f :     0.001492
      f+1     :     0.000170
      f-1     :     0.000382
      f+2     :     0.000057
      f-2     :     0.000056
      f+3     :     0.000490
      f-3     :     0.000065
 13 H s       :     0.611576  s :     0.611576
      pz      :     0.018804  p :     0.044616
      px      :     0.013654
      py      :     0.012158
 14 H s       :     0.574384  s :     0.574384
      pz      :     0.009985  p :     0.050156
      px      :     0.016512
      py      :     0.023658


                     *******************************
                     * LOEWDIN POPULATION ANALYSIS *
                     *******************************

----------------------
LOEWDIN ATOMIC CHARGES
----------------------
   0 O :   -0.295923
   1 H :    0.164729
   2 H :    0.193448
   3 O :   -0.311647
   4 H :    0.163632
   5 H :    0.185550
   6 O :   -0.311535
   7 H :    0.170800
   8 H :    0.160396
   9 O :   -0.373606
  10 H :    0.145090
  11 H :    0.144710
  12 O :   -0.350297
  13 H :    0.162177
  14 H :    0.152475

-------------------------------
LOEWDIN REDUCED ORBITAL CHARGES
-------------------------------
  0 O s       :     3.463406  s :     3.463406
      pz      :     1.687634  p :     4.798507
      px      :     1.364141
      py      :     1.746732
      dz2     :     0.005608  d :     0.031932
      dxz     :     0.006890
      dyz     :     0.005462
      dx2y2   :     0.004213
      dxy     :     0.009759
      f0      :     0.000094  f :     0.002078
      f+1     :     0.000451
      f-1     :     0.000272
      f+2     :     0.000033
      f-2     :     0.000604
      f+3     :     0.000090
      f-3     :     0.000533
  1 H s       :     0.671111  s :     0.671111
      pz      :     0.066831  p :     0.164160
      px      :     0.044506
      py      :     0.052823
  2 H s       :     0.657510  s :     0.657510
      pz      :     0.033317  p :     0.149042
      px      :     0.072333
      py      :     0.043392
  3 O s       :     3.468738  s :     3.468738
      pz      :     1.681063  p :     4.808422
      px      :     1.773888
      py      :     1.353471
      dz2     :     0.005326  d :     0.032380
      dxz     :     0.005852
      dyz     :     0.006712
      dx2y2   :     0.003873
      dxy     :     0.010616
      f0      :     0.000086  f :     0.002108
      f+1     :     0.000273
      f-1     :     0.000450
      f+2     :     0.000036
      f-2     :     0.000606
      f+3     :     0.000565
      f-3     :     0.000093
  4 H s       :     0.673047  s :     0.673047
      pz      :     0.066324  p :     0.163321
      px      :     0.052851
      py      :     0.044146
  5 H s       :     0.666565  s :     0.666565
      pz      :     0.033388  p :     0.147885
      px      :     0.043606
      py      :     0.070891
  6 O s       :     3.464299  s :     3.464299
      pz      :     1.578067  p :     4.813626
      px      :     1.785797
      py      :     1.449761
      dz2     :     0.014166  d :     0.031562
      dxz     :     0.001353
      dyz     :     0.003669
      dx2y2   :     0.005521
      dxy     :     0.006852
      f0      :     0.000322  f :     0.002048
      f+1     :     0.000209
      f-1     :     0.000718
      f+2     :     0.000038
      f-2     :     0.000042
      f+3     :     0.000642
      f-3     :     0.000076
  7 H s       :     0.675342  s :     0.675342
      pz      :     0.030638  p :     0.153858
      px      :     0.049448
      py      :     0.073772
  8 H s       :     0.666740  s :     0.666740
      pz      :     0.094541  p :     0.172864
      px      :     0.042587
      py      :     0.035737
  9 O s       :     3.465370  s :     3.465370
      pz      :     1.561224  p :     4.876550
      px      :     1.477787
      py      :     1.837539
      dz2     :     0.013987  d :     0.029709
      dxz     :     0.004082
      dyz     :     0.001643
      dx2y2   :     0.003896
      dxy     :     0.006100
      f0      :     0.000360  f :     0.001977
      f+1     :     0.000713
      f-1     :     0.000190
      f+2     :     0.000044
      f-2     :     0.000043
      f+3     :     0.000067
      f-3     :     0.000560
 10 H s       :     0.683404  s :     0.683404
      pz      :     0.090377  p :     0.171506
      px      :     0.037403
      py      :     0.043726
 11 H s       :     0.670875  s :     0.670875
      pz      :     0.030484  p :     0.184414
      px      :     0.101317
      py      :     0.052613
 12 O s       :     3.466443  s :     3.466443
      pz      :     1.508285  p :     4.850185
      px      :     1.794783
      py      :     1.547116
      dz2     :     0.016098  d :     0.031542
      dxz     :     0.002402
      dyz     :     0.002152
      dx2y2   :     0.002057
      dxy     :     0.008832
      f0      :     0.000495  f :     0.002127
      f+1     :     0.000317
      f-1     :     0.000582
      f+2     :     0.000026
      f-2     :     0.000050
      f+3     :     0.000656
      f-3     :     0.000002
 13 H s       :     0.679614  s :     0.679614
      pz      :     0.079743  p :     0.158209
      px      :     0.042290
      py      :     0.036176
 14 H s       :     0.675056  s :     0.675056
      pz      :     0.029716  p :     0.172469
      px      :     0.057848
      py      :     0.084905


                      *****************************
                      * MAYER POPULATION ANALYSIS *
                      *****************************

  NA   - Mulliken gross atomic population
  ZA   - Total nuclear charge
  QA   - Mulliken gross atomic charge
  VA   - Mayer's total valence
  BVA  - Mayer's bonded valence
  FA   - Mayer's free valence

  ATOM       NA         ZA         QA         VA         BVA        FA
  0 O      8.7378     8.0000    -0.7378     1.7584     1.7584    -0.0000
  1 H      0.6323     1.0000     0.3677     0.8803     0.8803    -0.0000
  2 H      0.6163     1.0000     0.3837     0.8677     0.8677    -0.0000
  3 O      8.7120     8.0000    -0.7120     1.7748     1.7748    -0.0000
  4 H      0.6378     1.0000     0.3622     0.8837     0.8837    -0.0000
  5 H      0.6379     1.0000     0.3621     0.8830     0.8830     0.0000
  6 O      8.7332     8.0000    -0.7332     1.7497     1.7497    -0.0000
  7 H      0.6519     1.0000     0.3481     0.8949     0.8949    -0.0000
  8 H      0.6012     1.0000     0.3988     0.8706     0.8706    -0.0000
  9 O      8.7633     8.0000    -0.7633     1.7050     1.7050    -0.0000
 10 H      0.6335     1.0000     0.3665     0.8899     0.8899     0.0000
 11 H      0.6304     1.0000     0.3696     0.8998     0.8998    -0.0000
 12 O      8.7317     8.0000    -0.7317     1.7448     1.7448     0.0000
 13 H      0.6562     1.0000     0.3438     0.8975     0.8975     0.0000
 14 H      0.6245     1.0000     0.3755     0.8882     0.8882     0.0000

  Mayer bond orders larger than 0.100000
B(  0-O ,  1-H ) :   0.8707 B(  0-O ,  2-H ) :   0.8553 B(  3-O ,  4-H ) :   0.8764 
B(  3-O ,  5-H ) :   0.8736 B(  6-O ,  7-H ) :   0.8847 B(  6-O ,  8-H ) :   0.8332 
B(  9-O , 10-H ) :   0.8714 B(  9-O , 11-H ) :   0.8443 B( 12-O , 13-H ) :   0.8912 
B( 12-O , 14-H ) :   0.8569 

-------
TIMINGS
-------

Total SCF time: 0 days 0 hours 0 min 14 sec 

Total time                  ....      14.472 sec
Sum of individual times     ....      13.873 sec  ( 95.9%)

Fock matrix formation       ....      12.431 sec  ( 85.9%)
Diagonalization             ....       0.478 sec  (  3.3%)
Density matrix formation    ....       0.245 sec  (  1.7%)
Population analysis         ....       0.024 sec  (  0.2%)
Initial guess               ....       0.209 sec  (  1.4%)
Orbital Transformation      ....       0.000 sec  (  0.0%)
Orbital Orthonormalization  ....       0.000 sec  (  0.0%)
DIIS solution               ....       0.162 sec  (  1.1%)
SOSCF solution              ....       0.198 sec  (  1.4%)


           ************************************************************
           *        Program running with 6 parallel MPI-processes     *
           *              working on a common directory               *
           ************************************************************

------------------------------------------------------------------------------
                                ORCA  MP2 
------------------------------------------------------------------------------

Freezing NCore=10 chemical core electrons
MP2 will be done in the AO integral direct mode
The Q1-step will be done using symmetric double matrices
Dimension of the basis                    ...  215
Memory devoted for MP2                    ... 8000 MB   
Memory needed for all in one shot         ...  153 MB
Number of MOs that can be treated together...  209      
MP2 density construction                  ... relaxed
The MP2 gradient is requested => amplitudes will be stored on disk
Total number of MOs              ...   20
Number of MOs treated per batch  ...    4 
Number of batches necessary      ...    1 
OPERATORS   0/  0 PASS   0
-----------------------------------------------
 MP2 CORRELATION ENERGY   :     -1.289214982 Eh
-----------------------------------------------


---------------------
MP2 DENSITY FORMATION
---------------------

Completing the external part of the density      ... done
Storing the unrelaxed density                    ... done

Calculating G(D)                                 ... done
Completing the Lagrangian                        ... done
Solving the Z-vector equations                   ... 

------------------------------------------------------------------------------
                           ORCA CP-SCF CALCULATION
------------------------------------------------------------------------------

Input orbitals are from        ... 12h2o.su.etal.mol1,2,5,7,11-orca.engrad-mp2.def2tzvp.frozencore.gbw
Input Perturbation             ... 12h2o.su.etal.mol1,2,5,7,11-orca.engrad-mp2.def2tzvp.frozencore.pin.tmp
Wavefunction output            ... 12h2o.su.etal.mol1,2,5,7,11-orca.engrad-mp2.def2tzvp.frozencore.pout.tmp
Perturbation mode              ... Real perturbation (singlet)
Solver                         ... POPLE
Max. number of iterations      ... 128
Convergence tolerance          ... 1.000e-08
Integral handling              ... Direct
Number of perturbations        ... 1
Number of operators            ... 1
Orbital ranges used for CP-SCF:
 Operator 0:  Orbitals   0... 24  to  25...214
Variables per vector in CP-SCF ... 4750
Number of vectors sought       ... 1
     CP-SCF ITERATION   0: 
     CP-SCF ITERATION   1:      0.000627200294
     CP-SCF ITERATION   2:      0.000014456176
     CP-SCF ITERATION   3:      0.000000491958
     CP-SCF ITERATION   4:      0.000000050609
     CP-SCF ITERATION   5:      0.000000004060
                                                 ... done
Finalizing the relaxed density                   ... done
Transforming P to the AO basis                   ... done
Storing the relaxed density                      ... done

------------------------------------
ENERGY WEIGHTED DENSITY FINALIZATION
------------------------------------

Gathering the parts of the W-matrix              ...                                                      done
Forming the Z-density                            ... done
Transforming Z to the AO basis                   ... done
Calculating G(Z)                                 ... done
Finalizing the W-matrix                          ...                                                      done
Transforming W to the AO basis and storing       ... done

                *********************************************
                * UNRELAXED MP2 DENSITY POPULATION ANALYSIS *
                *********************************************

------------------------------------------------------------------------------
                           ORCA POPULATION ANALYSIS
------------------------------------------------------------------------------
Input electron density              ... 12h2o.su.etal.mol1,2,5,7,11-orca.engrad-mp2.def2tzvp.frozencore.pmp2ur
BaseName (.gbw .S,...)              ... 12h2o.su.etal.mol1,2,5,7,11-orca.engrad-mp2.def2tzvp.frozencore

                    ********************************
                    * MULLIKEN POPULATION ANALYSIS *
                    ********************************

-----------------------
MULLIKEN ATOMIC CHARGES
-----------------------
   0 O :   -0.732158
   1 H :    0.365453
   2 H :    0.380881
   3 O :   -0.706747
   4 H :    0.360080
   5 H :    0.359341
   6 O :   -0.726882
   7 H :    0.345380
   8 H :    0.395779
   9 O :   -0.757257
  10 H :    0.363554
  11 H :    0.365453
  12 O :   -0.726504
  13 H :    0.341342
  14 H :    0.372286
Sum of atomic charges:   -0.0000000

--------------------------------
MULLIKEN REDUCED ORBITAL CHARGES
--------------------------------
  0 O s       :     3.803508  s :     3.803508
      pz      :     1.720501  p :     4.873128
      px      :     1.373394
      py      :     1.779233
      dz2     :     0.009726  d :     0.051477
      dxz     :     0.010029
      dyz     :     0.011006
      dx2y2   :     0.008020
      dxy     :     0.012695
      f0      :     0.000458  f :     0.004046
      f+1     :     0.000699
      f-1     :     0.000548
      f+2     :     0.000431
      f-2     :     0.000713
      f+3     :     0.000464
      f-3     :     0.000733
  1 H s       :     0.587931  s :     0.587931
      pz      :     0.017515  p :     0.046617
      px      :     0.013711
      py      :     0.015390
  2 H s       :     0.577023  s :     0.577023
      pz      :     0.011297  p :     0.042096
      px      :     0.017945
      py      :     0.012854
  3 O s       :     3.805670  s :     3.805670
      pz      :     1.705565  p :     4.845414
      px      :     1.792030
      py      :     1.347819
      dz2     :     0.009450  d :     0.051592
      dxz     :     0.011265
      dyz     :     0.009614
      dx2y2   :     0.007837
      dxy     :     0.013427
      f0      :     0.000453  f :     0.004070
      f+1     :     0.000552
      f-1     :     0.000690
      f+2     :     0.000438
      f-2     :     0.000714
      f+3     :     0.000756
      f-3     :     0.000468
  4 H s       :     0.592892  s :     0.592892
      pz      :     0.017450  p :     0.047028
      px      :     0.015673
      py      :     0.013905
  5 H s       :     0.597281  s :     0.597281
      pz      :     0.011662  p :     0.043378
      px      :     0.014014
      py      :     0.017703
  6 O s       :     3.797581  s :     3.797581
      pz      :     1.593619  p :     4.873064
      px      :     1.834477
      py      :     1.444968
      dz2     :     0.016542  d :     0.052254
      dxz     :     0.007902
      dyz     :     0.008146
      dx2y2   :     0.009088
      dxy     :     0.010576
      f0      :     0.000539  f :     0.003982
      f+1     :     0.000492
      f-1     :     0.000823
      f+2     :     0.000434
      f-2     :     0.000407
      f+3     :     0.000809
      f-3     :     0.000478
  7 H s       :     0.610047  s :     0.610047
      pz      :     0.010980  p :     0.044573
      px      :     0.015108
      py      :     0.018485
  8 H s       :     0.554446  s :     0.554446
      pz      :     0.025022  p :     0.049775
      px      :     0.013328
      py      :     0.011425
  9 O s       :     3.800726  s :     3.800726
      pz      :     1.558870  p :     4.901061
      px      :     1.478475
      py      :     1.863715
      dz2     :     0.016230  d :     0.051488
      dxz     :     0.008284
      dyz     :     0.008118
      dx2y2   :     0.008472
      dxy     :     0.010385
      f0      :     0.000553  f :     0.003982
      f+1     :     0.000809
      f-1     :     0.000492
      f+2     :     0.000440
      f-2     :     0.000406
      f+3     :     0.000482
      f-3     :     0.000800
 10 H s       :     0.585715  s :     0.585715
      pz      :     0.023754  p :     0.050731
      px      :     0.012308
      py      :     0.014669
 11 H s       :     0.578505  s :     0.578505
      pz      :     0.010855  p :     0.056042
      px      :     0.028563
      py      :     0.016624
 12 O s       :     3.803658  s :     3.803658
      pz      :     1.491095  p :     4.866834
      px      :     1.812587
      py      :     1.563152
      dz2     :     0.016938  d :     0.051959
      dxz     :     0.008376
      dyz     :     0.006626
      dx2y2   :     0.007581
      dxy     :     0.012439
      f0      :     0.000647  f :     0.004053
      f+1     :     0.000540
      f-1     :     0.000747
      f+2     :     0.000416
      f-2     :     0.000421
      f+3     :     0.000847
      f-3     :     0.000435
 13 H s       :     0.612369  s :     0.612369
      pz      :     0.018890  p :     0.046290
      px      :     0.014521
      py      :     0.012879
 14 H s       :     0.575958  s :     0.575958
      pz      :     0.010766  p :     0.051756
      px      :     0.017129
      py      :     0.023860


                     *******************************
                     * LOEWDIN POPULATION ANALYSIS *
                     *******************************

----------------------
LOEWDIN ATOMIC CHARGES
----------------------
   0 O :   -0.291617
   1 H :    0.163515
   2 H :    0.191636
   3 O :   -0.307960
   4 H :    0.162514
   5 H :    0.183837
   6 O :   -0.307353
   7 H :    0.169078
   8 H :    0.158438
   9 O :   -0.370779
  10 H :    0.143045
  11 H :    0.142199
  12 O :   -0.347674
  13 H :    0.160724
  14 H :    0.150397

-------------------------------
LOEWDIN REDUCED ORBITAL CHARGES
-------------------------------
  0 O s       :     3.459634  s :     3.459634
      pz      :     1.676221  p :     4.766885
      px      :     1.355975
      py      :     1.734689
      dz2     :     0.011296  d :     0.060258
      dxz     :     0.012494
      dyz     :     0.011241
      dx2y2   :     0.009790
      dxy     :     0.015437
      f0      :     0.000478  f :     0.004841
      f+1     :     0.000861
      f-1     :     0.000659
      f+2     :     0.000410
      f-2     :     0.001012
      f+3     :     0.000475
      f-3     :     0.000947
  1 H s       :     0.669343  s :     0.669343
      pz      :     0.068033  p :     0.167142
      px      :     0.045314
      py      :     0.053795
  2 H s       :     0.656355  s :     0.656355
      pz      :     0.034152  p :     0.152010
      px      :     0.073505
      py      :     0.044353
  3 O s       :     3.464948  s :     3.464948
      pz      :     1.669699  p :     4.777935
      px      :     1.762820
      py      :     1.345416
      dz2     :     0.010931  d :     0.060224
      dxz     :     0.011520
      dyz     :     0.012273
      dx2y2   :     0.009334
      dxy     :     0.016166
      f0      :     0.000469  f :     0.004854
      f+1     :     0.000657
      f-1     :     0.000858
      f+2     :     0.000409
      f-2     :     0.001012
      f+3     :     0.000975
      f-3     :     0.000474
  4 H s       :     0.671176  s :     0.671176
      pz      :     0.067510  p :     0.166309
      px      :     0.053841
      py      :     0.044958
  5 H s       :     0.665153  s :     0.665153
      pz      :     0.034225  p :     0.151010
      px      :     0.044615
      py      :     0.072170
  6 O s       :     3.460492  s :     3.460492
      pz      :     1.568147  p :     4.782185
      px      :     1.773202
      py      :     1.440836
      dz2     :     0.020008  d :     0.059849
      dxz     :     0.006906
      dyz     :     0.009067
      dx2y2   :     0.011249
      dxy     :     0.012619
      f0      :     0.000739  f :     0.004828
      f+1     :     0.000601
      f-1     :     0.001154
      f+2     :     0.000411
      f-2     :     0.000415
      f+3     :     0.001054
      f-3     :     0.000455
  7 H s       :     0.673789  s :     0.673789
      pz      :     0.031470  p :     0.157133
      px      :     0.050429
      py      :     0.075234
  8 H s       :     0.665974  s :     0.665974
      pz      :     0.095780  p :     0.175588
      px      :     0.043354
      py      :     0.036454
  9 O s       :     3.461705  s :     3.461705
      pz      :     1.551409  p :     4.846311
      px      :     1.468740
      py      :     1.826162
      dz2     :     0.019834  d :     0.058011
      dxz     :     0.009532
      dyz     :     0.007140
      dx2y2   :     0.009622
      dxy     :     0.011882
      f0      :     0.000775  f :     0.004752
      f+1     :     0.001152
      f-1     :     0.000578
      f+2     :     0.000415
      f-2     :     0.000416
      f+3     :     0.000444
      f-3     :     0.000972
 10 H s       :     0.682328  s :     0.682328
      pz      :     0.091854  p :     0.174627
      px      :     0.038235
      py      :     0.044538
 11 H s       :     0.670499  s :     0.670499
      pz      :     0.031331  p :     0.187302
      px      :     0.102472
      py      :     0.053499
 12 O s       :     3.462742  s :     3.462742
      pz      :     1.499091  p :     4.820764
      px      :     1.783841
      py      :     1.537832
      dz2     :     0.021832  d :     0.059287
      dxz     :     0.007774
      dyz     :     0.007473
      dx2y2   :     0.007566
      dxy     :     0.014642
      f0      :     0.000911  f :     0.004881
      f+1     :     0.000710
      f-1     :     0.001001
      f+2     :     0.000389
      f-2     :     0.000422
      f+3     :     0.001071
      f-3     :     0.000377
 13 H s       :     0.677828  s :     0.677828
      pz      :     0.081374  p :     0.161447
      px      :     0.043113
      py      :     0.036960
 14 H s       :     0.674209  s :     0.674209
      pz      :     0.030471  p :     0.175394
      px      :     0.058806
      py      :     0.086118


                      *****************************
                      * MAYER POPULATION ANALYSIS *
                      *****************************

  NA   - Mulliken gross atomic population
  ZA   - Total nuclear charge
  QA   - Mulliken gross atomic charge
  VA   - Mayer's total valence
  BVA  - Mayer's bonded valence
  FA   - Mayer's free valence

  ATOM       NA         ZA         QA         VA         BVA        FA
  0 O      8.7322     8.0000    -0.7322     2.0702     1.6783     0.3918
  1 H      0.6345     1.0000     0.3655     0.8858     0.8406     0.0452
  2 H      0.6191     1.0000     0.3809     0.8737     0.8269     0.0468
  3 O      8.7067     8.0000    -0.7067     2.0821     1.6932     0.3889
  4 H      0.6399     1.0000     0.3601     0.8893     0.8441     0.0453
  5 H      0.6407     1.0000     0.3593     0.8891     0.8409     0.0482
  6 O      8.7269     8.0000    -0.7269     2.0602     1.6698     0.3903
  7 H      0.6546     1.0000     0.3454     0.9012     0.8524     0.0488
  8 H      0.6042     1.0000     0.3958     0.8766     0.8333     0.0433
  9 O      8.7573     8.0000    -0.7573     2.0188     1.6259     0.3929
 10 H      0.6364     1.0000     0.3636     0.8961     0.8500     0.0461
 11 H      0.6345     1.0000     0.3655     0.9073     0.8599     0.0474
 12 O      8.7265     8.0000    -0.7265     2.0525     1.6651     0.3874
 13 H      0.6587     1.0000     0.3413     0.9036     0.8558     0.0478
 14 H      0.6277     1.0000     0.3723     0.8947     0.8494     0.0452

  Mayer bond orders larger than 0.100000
B(  0-O ,  1-H ) :   0.8317 B(  0-O ,  2-H ) :   0.8152 B(  3-O ,  4-H ) :   0.8373 
B(  3-O ,  5-H ) :   0.8321 B(  6-O ,  7-H ) :   0.8428 B(  6-O ,  8-H ) :   0.7970 
B(  9-O , 10-H ) :   0.8320 B(  9-O , 11-H ) :   0.8059 B( 12-O , 13-H ) :   0.8500 
B( 12-O , 14-H ) :   0.8189 


                *******************************************
                * RELAXED MP2 DENSITY POPULATION ANALYSIS *
                *******************************************

------------------------------------------------------------------------------
                           ORCA POPULATION ANALYSIS
------------------------------------------------------------------------------
Input electron density              ... 12h2o.su.etal.mol1,2,5,7,11-orca.engrad-mp2.def2tzvp.frozencore.pmp2re
BaseName (.gbw .S,...)              ... 12h2o.su.etal.mol1,2,5,7,11-orca.engrad-mp2.def2tzvp.frozencore

                    ********************************
                    * MULLIKEN POPULATION ANALYSIS *
                    ********************************

-----------------------
MULLIKEN ATOMIC CHARGES
-----------------------
   0 O :   -0.710664
   1 H :    0.358223
   2 H :    0.373049
   3 O :   -0.688712
   4 H :    0.353460
   5 H :    0.353020
   6 O :   -0.700658
   7 H :    0.339016
   8 H :    0.380408
   9 O :   -0.733901
  10 H :    0.350734
  11 H :    0.344617
  12 O :   -0.709759
  13 H :    0.334575
  14 H :    0.356593
Sum of atomic charges:   -0.0000000

--------------------------------
MULLIKEN REDUCED ORBITAL CHARGES
--------------------------------
  0 O s       :     3.807553  s :     3.807553
      pz      :     1.711906  p :     4.849792
      px      :     1.370190
      py      :     1.767696
      dz2     :     0.009520  d :     0.049345
      dxz     :     0.009432
      dyz     :     0.010745
      dx2y2   :     0.007773
      dxy     :     0.011875
      f0      :     0.000457  f :     0.003974
      f+1     :     0.000680
      f-1     :     0.000539
      f+2     :     0.000431
      f-2     :     0.000692
      f+3     :     0.000463
      f-3     :     0.000712
  1 H s       :     0.594451  s :     0.594451
      pz      :     0.017666  p :     0.047326
      px      :     0.013627
      py      :     0.016032
  2 H s       :     0.584325  s :     0.584325
      pz      :     0.012124  p :     0.042626
      px      :     0.016978
      py      :     0.013524
  3 O s       :     3.809996  s :     3.809996
      pz      :     1.695236  p :     4.825390
      px      :     1.786142
      py      :     1.344011
      dz2     :     0.009195  d :     0.049329
      dxz     :     0.010985
      dyz     :     0.009028
      dx2y2   :     0.007599
      dxy     :     0.012522
      f0      :     0.000451  f :     0.003997
      f+1     :     0.000543
      f-1     :     0.000670
      f+2     :     0.000438
      f-2     :     0.000693
      f+3     :     0.000736
      f-3     :     0.000466
  4 H s       :     0.598825  s :     0.598825
      pz      :     0.017573  p :     0.047715
      px      :     0.016312
      py      :     0.013830
  5 H s       :     0.602975  s :     0.602975
      pz      :     0.012512  p :     0.044005
      px      :     0.014779
      py      :     0.016714
  6 O s       :     3.798682  s :     3.798682
      pz      :     1.589475  p :     4.847801
      px      :     1.819694
      py      :     1.438631
      dz2     :     0.015501  d :     0.050266
      dxz     :     0.007957
      dyz     :     0.007922
      dx2y2   :     0.008802
      dxy     :     0.010084
      f0      :     0.000526  f :     0.003909
      f+1     :     0.000486
      f-1     :     0.000794
      f+2     :     0.000434
      f-2     :     0.000405
      f+3     :     0.000787
      f-3     :     0.000476
  7 H s       :     0.615660  s :     0.615660
      pz      :     0.011765  p :     0.045324
      px      :     0.015915
      py      :     0.017644
  8 H s       :     0.569270  s :     0.569270
      pz      :     0.024367  p :     0.050322
      px      :     0.014210
      py      :     0.011745
  9 O s       :     3.797771  s :     3.797771
      pz      :     1.554400  p :     4.882609
      px      :     1.471295
      py      :     1.856914
      dz2     :     0.015182  d :     0.049605
      dxz     :     0.008048
      dyz     :     0.008156
      dx2y2   :     0.008262
      dxy     :     0.009957
      f0      :     0.000541  f :     0.003916
      f+1     :     0.000782
      f-1     :     0.000486
      f+2     :     0.000440
      f-2     :     0.000405
      f+3     :     0.000481
      f-3     :     0.000781
 10 H s       :     0.597905  s :     0.597905
      pz      :     0.023045  p :     0.051361
      px      :     0.012686
      py      :     0.015630
 11 H s       :     0.598880  s :     0.598880
      pz      :     0.011607  p :     0.056503
      px      :     0.027667
      py      :     0.017228
 12 O s       :     3.804669  s :     3.804669
      pz      :     1.484119  p :     4.851272
      px      :     1.806013
      py      :     1.561141
      dz2     :     0.015603  d :     0.049837
      dxz     :     0.008330
      dyz     :     0.006562
      dx2y2   :     0.007544
      dxy     :     0.011797
      f0      :     0.000630  f :     0.003981
      f+1     :     0.000529
      f-1     :     0.000725
      f+2     :     0.000416
      f-2     :     0.000420
      f+3     :     0.000825
      f-3     :     0.000436
 13 H s       :     0.618394  s :     0.618394
      pz      :     0.018128  p :     0.047031
      px      :     0.015450
      py      :     0.013453
 14 H s       :     0.591087  s :     0.591087
      pz      :     0.011425  p :     0.052321
      px      :     0.017566
      py      :     0.023330


                     *******************************
                     * LOEWDIN POPULATION ANALYSIS *
                     *******************************

----------------------
LOEWDIN ATOMIC CHARGES
----------------------
   0 O :   -0.286488
   1 H :    0.164990
   2 H :    0.192256
   3 O :   -0.306424
   4 H :    0.164248
   5 H :    0.185445
   6 O :   -0.301943
   7 H :    0.170571
   8 H :    0.154133
   9 O :   -0.370738
  10 H :    0.139618
  11 H :    0.136000
  12 O :   -0.349705
  13 H :    0.162083
  14 H :    0.145956

-------------------------------
LOEWDIN REDUCED ORBITAL CHARGES
-------------------------------
  0 O s       :     3.461661  s :     3.461661
      pz      :     1.671550  p :     4.760706
      px      :     1.361038
      py      :     1.728118
      dz2     :     0.011269  d :     0.059260
      dxz     :     0.012135
      dyz     :     0.011242
      dx2y2   :     0.009595
      dxy     :     0.015020
      f0      :     0.000482  f :     0.004861
      f+1     :     0.000867
      f-1     :     0.000660
      f+2     :     0.000410
      f-2     :     0.001012
      f+3     :     0.000478
      f-3     :     0.000953
  1 H s       :     0.668034  s :     0.668034
      pz      :     0.068137  p :     0.166976
      px      :     0.044532
      py      :     0.054307
  2 H s       :     0.655856  s :     0.655856
      pz      :     0.034866  p :     0.151888
      px      :     0.072044
      py      :     0.044979
  3 O s       :     3.466871  s :     3.466871
      pz      :     1.664322  p :     4.775701
      px      :     1.760932
      py      :     1.350447
      dz2     :     0.010832  d :     0.058980
      dxz     :     0.011485
      dyz     :     0.011901
      dx2y2   :     0.009109
      dxy     :     0.015653
      f0      :     0.000472  f :     0.004872
      f+1     :     0.000658
      f-1     :     0.000864
      f+2     :     0.000410
      f-2     :     0.001012
      f+3     :     0.000980
      f-3     :     0.000476
  4 H s       :     0.669613  s :     0.669613
      pz      :     0.067486  p :     0.166139
      px      :     0.054505
      py      :     0.044148
  5 H s       :     0.663478  s :     0.663478
      pz      :     0.034912  p :     0.151076
      px      :     0.045409
      py      :     0.070756
  6 O s       :     3.461690  s :     3.461690
      pz      :     1.569188  p :     4.776480
      px      :     1.763349
      py      :     1.443944
      dz2     :     0.019563  d :     0.058925
      dxz     :     0.006979
      dyz     :     0.008878
      dx2y2   :     0.011119
      dxy     :     0.012386
      f0      :     0.000739  f :     0.004847
      f+1     :     0.000602
      f-1     :     0.001162
      f+2     :     0.000413
      f-2     :     0.000413
      f+3     :     0.001060
      f-3     :     0.000458
  7 H s       :     0.672018  s :     0.672018
      pz      :     0.032064  p :     0.157411
      px      :     0.051105
      py      :     0.074243
  8 H s       :     0.670039  s :     0.670039
      pz      :     0.095223  p :     0.175828
      px      :     0.044136
      py      :     0.036469
  9 O s       :     3.462604  s :     3.462604
      pz      :     1.552205  p :     4.846124
      px      :     1.470834
      py      :     1.823085
      dz2     :     0.019391  d :     0.057226
      dxz     :     0.009328
      dyz     :     0.007202
      dx2y2   :     0.009554
      dxy     :     0.011751
      f0      :     0.000776  f :     0.004784
      f+1     :     0.001165
      f-1     :     0.000578
      f+2     :     0.000417
      f-2     :     0.000415
      f+3     :     0.000447
      f-3     :     0.000985
 10 H s       :     0.685100  s :     0.685100
      pz      :     0.091303  p :     0.175282
      px      :     0.038489
      py      :     0.045490
 11 H s       :     0.675882  s :     0.675882
      pz      :     0.031900  p :     0.188118
      px      :     0.102031
      py      :     0.054186
 12 O s       :     3.464061  s :     3.464061
      pz      :     1.500902  p :     4.822599
      px      :     1.781946
      py      :     1.539750
      dz2     :     0.021110  d :     0.058144
      dxz     :     0.007785
      dyz     :     0.007324
      dx2y2   :     0.007538
      dxy     :     0.014386
      f0      :     0.000911  f :     0.004902
      f+1     :     0.000708
      f-1     :     0.001011
      f+2     :     0.000391
      f-2     :     0.000422
      f+3     :     0.001083
      f-3     :     0.000377
 13 H s       :     0.676264  s :     0.676264
      pz      :     0.080530  p :     0.161653
      px      :     0.043937
      py      :     0.037186
 14 H s       :     0.678112  s :     0.678112
      pz      :     0.030859  p :     0.175932
      px      :     0.059408
      py      :     0.085666


                      *****************************
                      * MAYER POPULATION ANALYSIS *
                      *****************************

  NA   - Mulliken gross atomic population
  ZA   - Total nuclear charge
  QA   - Mulliken gross atomic charge
  VA   - Mayer's total valence
  BVA  - Mayer's bonded valence
  FA   - Mayer's free valence

  ATOM       NA         ZA         QA         VA         BVA        FA
  0 O      8.7107     8.0000    -0.7107     2.1080     1.7224     0.3855
  1 H      0.6418     1.0000     0.3582     0.8915     0.8463     0.0452
  2 H      0.6270     1.0000     0.3730     0.8819     0.8352     0.0467
  3 O      8.6887     8.0000    -0.6887     2.1040     1.7207     0.3832
  4 H      0.6465     1.0000     0.3535     0.8942     0.8490     0.0453
  5 H      0.6470     1.0000     0.3530     0.8947     0.8465     0.0482
  6 O      8.7007     8.0000    -0.7007     2.0961     1.7118     0.3842
  7 H      0.6610     1.0000     0.3390     0.9072     0.8584     0.0488
  8 H      0.6196     1.0000     0.3804     0.8978     0.8549     0.0429
  9 O      8.7339     8.0000    -0.7339     2.0340     1.6463     0.3877
 10 H      0.6493     1.0000     0.3507     0.9129     0.8670     0.0459
 11 H      0.6554     1.0000     0.3446     0.9352     0.8885     0.0466
 12 O      8.7098     8.0000    -0.7098     2.0614     1.6788     0.3826
 13 H      0.6654     1.0000     0.3346     0.9091     0.8613     0.0478
 14 H      0.6434     1.0000     0.3566     0.9167     0.8719     0.0448

  Mayer bond orders larger than 0.100000
B(  0-O ,  1-H ) :   0.8350 B(  0-O ,  2-H ) :   0.8188 B(  3-O ,  4-H ) :   0.8411 
B(  3-O ,  5-H ) :   0.8355 B(  6-O ,  7-H ) :   0.8454 B(  6-O ,  8-H ) :   0.8018 
B(  9-O , 10-H ) :   0.8373 B(  9-O , 11-H ) :   0.8072 B( 12-O , 13-H ) :   0.8537 
B( 12-O , 14-H ) :   0.8235 


----------------------------------
MP2 DERIVATIVE INTEGRAL GENERATION
----------------------------------


Input Wavefunction Amplitudes       ... 12h2o.su.etal.mol1,2,5,7,11-orca.engrad-mp2.def2tzvp.frozencore.mp2tsaa.tmp
Input Correlated Electron Density   ... 12h2o.su.etal.mol1,2,5,7,11-orca.engrad-mp2.def2tzvp.frozencore.pmp2re
Input Energy Weighted Density       ... 12h2o.su.etal.mol1,2,5,7,11-orca.engrad-mp2.def2tzvp.frozencore.wmp2.tmp
Input SCF Electron Density          ... 12h2o.su.etal.mol1,2,5,7,11-orca.engrad-mp2.def2tzvp.frozencore.scfp

One-Electron Terms    ...
                        ... One-Electron Terms done
Prescreening matrices              ... done

Batch handling in the gradient evaluation:
Memory available                      ... 8000.0 MB
Memory per occupied orbital in Q2     ...    7.1 MB
Memory per occupied orbital in Q3     ...    0.1 MB
Total memory requirement per |i>      ...    7.1 MB
Max. Number of orbitals possible      ...   1121
Number of orbitals treated per batch  ...     20
Number of batches to be done          ...      1
Batch   0: i=    5 ...    24

---------------------------------------
MP2 TOTAL ENERGY:     -381.591662360 Eh
---------------------------------------

The final MP2 gradient
  0:  -0.02503272   0.00856328  -0.00434623
  1:  -0.00046526   0.00245764  -0.00277388
  2:   0.02571330  -0.00812159   0.00205859
  3:  -0.01141033  -0.02535699  -0.00236485
  4:  -0.00165460  -0.00137727   0.00263089
  5:   0.01134987   0.02761165   0.00153027
  6:  -0.01261049  -0.01525199  -0.00114216
  7:   0.00682185   0.01741353  -0.00195660
  8:   0.00230488  -0.00202728   0.00089556
  9:  -0.00354262   0.00372213  -0.00450040
 10:  -0.00390842  -0.00281220   0.00814062
 11:   0.01224587  -0.00384001   0.00030630
 12:   0.00282545   0.00097302   0.00760105
 13:  -0.00079612   0.00384061  -0.00897080
 14:  -0.00184067  -0.00579452   0.00289165

-----------------------------------
NORM OF THE MP2 GRADIENT:  0.066435
-----------------------------------

-------------------------   --------------------
FINAL SINGLE POINT ENERGY      -381.591662360242
-------------------------   --------------------


                            ***************************************
                            *     ORCA property calculations      *
                            ***************************************

                                    ---------------------
                                    Active property flags
                                    ---------------------
   (+) Dipole Moment


------------------------------------------------------------------------------
                       ORCA ELECTRIC PROPERTIES CALCULATION
------------------------------------------------------------------------------

Dipole Moment Calculation                       ... on
Quadrupole Moment Calculation                   ... off
Polarizability Calculation                      ... off
GBWName                                         ... 12h2o.su.etal.mol1,2,5,7,11-orca.engrad-mp2.def2tzvp.frozencore.gbw
Electron density file                           ... 12h2o.su.etal.mol1,2,5,7,11-orca.engrad-mp2.def2tzvp.frozencore.scfp
The origin for moment calculation is the CENTER OF MASS  = (-0.897790, -1.377439  1.077204)

-------------
DIPOLE MOMENT
-------------
                                X             Y             Z
Electronic contribution:     -0.04227      -0.17919      -0.01913
Nuclear contribution   :      1.33081      -0.82469      -0.68611
                        -----------------------------------------
Total Dipole Moment    :      1.28854      -1.00388      -0.70524
                        -----------------------------------------
Magnitude (a.u.)       :      1.77918
Magnitude (Debye)      :      4.52231



--------------------
Rotational spectrum 
--------------------
 
Rotational constants in cm-1:     0.122076     0.027986     0.026395 
Rotational constants in MHz :  3659.756349   838.992723   791.289983 

 Dipole components along the rotational axes: 
x,y,z [a.u.] :    -1.464973    -0.172639     0.994748 
x,y,z [Debye]:    -3.723666    -0.438814     2.528448 

 

                         *** MP2 UNRELAXED DENSITY ***

------------------------------------------------------------------------------
                       ORCA ELECTRIC PROPERTIES CALCULATION
------------------------------------------------------------------------------

Dipole Moment Calculation                       ... on
Quadrupole Moment Calculation                   ... off
Polarizability Calculation                      ... off
GBWName                                         ... 12h2o.su.etal.mol1,2,5,7,11-orca.engrad-mp2.def2tzvp.frozencore.gbw
Electron density file                           ... 12h2o.su.etal.mol1,2,5,7,11-orca.engrad-mp2.def2tzvp.frozencore.pmp2ur
The origin for moment calculation is the CENTER OF MASS  = (-0.897790, -1.377439  1.077204)

-------------
DIPOLE MOMENT
-------------
                                X             Y             Z
Electronic contribution:     -0.05514      -0.17423      -0.01485
Nuclear contribution   :      1.33081      -0.82469      -0.68611
                        -----------------------------------------
Total Dipole Moment    :      1.27567      -0.99892      -0.70096
                        -----------------------------------------
Magnitude (a.u.)       :      1.76536
Magnitude (Debye)      :      4.48720



--------------------
Rotational spectrum 
--------------------
 
Rotational constants in cm-1:     0.122076     0.027986     0.026395 
Rotational constants in MHz :  3659.756349   838.992723   791.289983 

 Dipole components along the rotational axes: 
x,y,z [a.u.] :    -1.454683    -0.167340     0.986106 
x,y,z [Debye]:    -3.697510    -0.425345     2.506483 

 

                           *** MP2 RELAXED DENSITY ***

------------------------------------------------------------------------------
                       ORCA ELECTRIC PROPERTIES CALCULATION
------------------------------------------------------------------------------

Dipole Moment Calculation                       ... on
Quadrupole Moment Calculation                   ... off
Polarizability Calculation                      ... off
GBWName                                         ... 12h2o.su.etal.mol1,2,5,7,11-orca.engrad-mp2.def2tzvp.frozencore.gbw
Electron density file                           ... 12h2o.su.etal.mol1,2,5,7,11-orca.engrad-mp2.def2tzvp.frozencore.pmp2re
The origin for moment calculation is the CENTER OF MASS  = (-0.897790, -1.377439  1.077204)

-------------
DIPOLE MOMENT
-------------
                                X             Y             Z
Electronic contribution:     -0.06010      -0.17022      -0.02297
Nuclear contribution   :      1.33081      -0.82469      -0.68611
                        -----------------------------------------
Total Dipole Moment    :      1.27071      -0.99490      -0.70908
                        -----------------------------------------
Magnitude (a.u.)       :      1.76276
Magnitude (Debye)      :      4.48059



--------------------
Rotational spectrum 
--------------------
 
Rotational constants in cm-1:     0.122076     0.027986     0.026395 
Rotational constants in MHz :  3659.756349   838.992723   791.289983 

 Dipole components along the rotational axes: 
x,y,z [a.u.] :    -1.458098    -0.167365     0.976358 
x,y,z [Debye]:    -3.706191    -0.425408     2.481704 

 

Timings for individual modules:

Sum of individual times         ...       74.325 sec (=   1.239 min)
GTO integral calculation        ...        8.611 sec (=   0.144 min)  11.6 %
SCF iterations                  ...       20.231 sec (=   0.337 min)  27.2 %
MP2 module                      ...       45.483 sec (=   0.758 min)  61.2 %
                             ****ORCA TERMINATED NORMALLY****
TOTAL RUN TIME: 0 days 0 hours 1 minutes 19 seconds 150 msec
