50
Energy:   -383.03454409
    O     -2.01947782     -0.50346528      1.79020321
  qLP     -2.02189534     -0.48960170      1.64086482
    H     -2.11358731      0.29953672      1.27779415
    H     -1.94425342     -1.19816826      1.13601600
    O      1.13890869     -2.39804204      0.52616496
  qLP      1.01545716     -2.33317687      0.58141193
    H      0.24978079     -2.43508839      0.17358733
    H      1.06366237     -1.85428428      1.31031886
    O     -1.99795501     -0.10769977     -2.11399654
  qLP     -1.90793695      0.00122856     -2.06368385
    H     -2.17610295      0.52485154     -1.41802672
    H     -1.11660721      0.11067127     -2.41693546
    O      0.44166702      2.63525265     -0.74522380
  qLP      0.53055299      2.51540423     -0.76057442
    H      1.06168173      2.28022051     -0.10822631
    H      0.51600853      2.05405729     -1.50213670
    O      2.55207637     -0.62872504     -1.00668225
  qLP      2.50059044     -0.63399793     -0.86589378
    H      2.55518054      0.07243506     -0.35507138
    H      2.14677622     -1.37107569     -0.55848682
    O      2.08083740      1.24353218      1.03103649
    H      1.62616695      0.68394779      1.67800123
    C      3.23922568      1.77137077      1.65718088
    H      3.73931172      2.39907441      0.91462630
    H      3.94580233      0.98819349      1.97366171
    H      3.00199788      2.39887383      2.53053087
    O     -1.48802223     -2.19277346     -0.38210249
    H     -1.70003220     -1.55795071     -1.08244179
    C     -2.08922417     -3.43062775     -0.72678603
    H     -1.84049773     -4.13402806      0.07249387
    H     -1.70536397     -3.84063600     -1.67405681
    H     -3.18644050     -3.36596159     -0.79542967
    O     -2.02090620      1.67528238      0.05540302
    H     -1.18991057      2.12639166     -0.15523878
    C     -3.03812707      2.66106596      0.13303169
    H     -3.96710402      2.13582751      0.37096358
    H     -3.18335424      3.19801580     -0.81742677
    H     -2.85232630      3.40230790      0.92601075
    O      0.65331839      0.55517029     -2.61695623
    H      1.35044064      0.05853426     -2.16330824
    C      1.05353887      0.72278509     -3.96760890
    H      0.25715281      1.28397356     -4.46391722
    H      1.17683546     -0.23520211     -4.49660399
    H      1.98814359      1.29689048     -4.06606879
    O      0.61280465     -0.57190612      2.60694608
    H     -0.34017465     -0.49718620      2.44987714
    C      0.79357166     -1.20092121      3.86559499
    H      1.87233647     -1.27713250      4.02666493
    H      0.37097785     -2.21736947      3.89760657
    H      0.36449471     -0.61987478      4.69689238
