45
Energy:   -372.02773608
O   -1.74738033  -1.82147098   1.24223095
H   -2.21621196  -0.98758296   1.27478132
H   -1.58433074  -1.96891106   0.31061509
O    0.92251311  -1.46090389   1.77488553
H    1.17684926  -1.53086101   0.85474915
H    0.00816368  -1.74349601   1.79328821
O   -2.62825531   0.67262782  -1.83166729
H   -2.72180266   0.80632575  -0.88847823
H   -1.82573619   1.14076220  -2.06198253
O    1.82283776   1.36851244  -0.25192909
H    2.58870285   1.07272155   0.24019921
H    1.15267735   1.51911191   0.41473175
O    1.46733883  -1.30751105  -0.86984841
H    1.55830026  -0.35675090  -0.80650004
H    0.57280893  -1.44270830  -1.18253005
O    3.40363707  -0.00868900   1.60450849
H    2.72397446  -0.62173048   1.92178151
C    4.45524217  -0.78197001   1.04890344
H    5.21205240  -0.07590063   0.69649813
H    4.12868707  -1.38919094   0.19017075
H    4.92799834  -1.44918265   1.78653900
O   -1.20710482  -1.66238813  -1.51040901
H   -1.75548283  -0.89454101  -1.72976177
C   -1.62903066  -2.74083356  -2.32984040
H   -1.00111049  -3.59733027  -2.06981183
H   -1.49835460  -2.53529342  -3.40383032
H   -2.67935978  -3.02202477  -2.15514763
O   -2.53989631   0.89306188   0.95652314
H   -1.68841332   1.17608919   1.32161975
C   -3.52748385   1.80430384   1.41132278
H   -4.48010870   1.47078177   0.99090142
H   -3.34523257   2.83489189   1.06861286
H   -3.62347472   1.81477066   2.50834308
O   -0.09461524   1.66215978  -2.30792344
H    0.66267176   1.73542053  -1.70827976
C    0.37217104   1.10054347  -3.52416003
H   -0.49338270   1.02507008  -4.18794139
H    0.79092589   0.09047977  -3.39303780
H    1.12877587   1.72872388  -4.01985736
O    0.07927627   1.19406225   1.92535485
H    0.36975983   0.27354261   2.00712394
C    0.65300531   1.92339307   2.99840905
H    0.31561880   2.95786129   2.89102633
H    1.75400545   1.91920396   2.97477661
H    0.32521158   1.55799461   3.98421459
