45
Energy:   -378.62100940
O   -0.87747836   0.02096850   1.81063721
H   -0.45129759   0.74230732   1.34774184
H   -1.12558337  -0.59391703   1.12028112
O    1.07566196  -2.50707771  -0.43070026
H    0.13620762  -2.32496931  -0.45292444
H    1.35628088  -2.21501214   0.43658433
O   -2.84357732   0.22990510  -1.81839972
H   -3.10439079   0.67334801  -1.01120299
H   -1.99847534   0.61889251  -2.04361803
O    0.36694809   1.94117779   0.37456026
H    1.29286201   1.69884309   0.38831383
H    0.09289826   1.79066859  -0.53013611
O    2.01692928  -0.44852672  -1.96975717
H    2.45397551   0.01288843  -1.25399289
H    1.72860873  -1.27480628  -1.58198766
O    2.87038953   0.67014579   0.45873958
H    2.62452101  -0.01614786   1.09668391
C    4.27262009   0.86333648   0.55339999
H    4.53248490   1.63935741  -0.17168414
H    4.84472307  -0.04361078   0.30255704
H    4.58798080   1.20841233   1.55051964
O   -1.57484406  -1.66971344  -0.27490454
H   -2.05709401  -1.11917935  -0.90954655
C   -2.44283329  -2.71395398   0.13581453
H   -1.88386719  -3.32435857   0.85027120
H   -2.75235965  -3.36256993  -0.69861228
H   -3.34794370  -2.34093089   0.64020154
O   -3.16374712   1.27248654   0.72814959
H   -2.49860159   0.91401129   1.33436753
C   -3.13834494   2.68580681   0.84820933
H   -3.89334789   3.07328135   0.15877535
H   -2.16549435   3.11899104   0.56769108
H   -3.39296247   3.03106211   1.86248051
O   -0.23896513   1.12768320  -2.22200372
H    0.52342596   0.53264012  -2.27774276
C   -0.25928289   1.91302731  -3.40325543
H   -1.12399569   2.57745554  -3.32393263
H   -0.37712751   1.30673605  -4.31501246
H    0.64142628   2.53678197  -3.51474730
O    1.56676539  -1.26640836   2.05599086
H    0.70945514  -0.83078141   2.17291629
C    1.73800269  -2.17529471   3.13169397
H    2.70835359  -2.65717145   2.98438770
H    0.96633267  -2.96072581   3.15171129
H    1.75053903  -1.67539853   4.11287896
