45
Energy:   -371.55736030
O   -1.96156740  -0.69638312   2.17386924
H   -2.14046831  -0.00382208   1.53779886
H   -1.89997492  -1.49436843   1.64883814
O    1.13427370  -1.81355873   0.30955271
H    0.30544722  -2.29200486   0.32873072
H    1.15312253  -1.33291051   1.13711169
O   -2.19521358  -0.95309293  -1.72777966
H   -2.39130108  -0.21236330  -1.15410626
H   -1.29344866  -0.80422709  -2.01219282
O    0.16721521   2.13347167  -0.94984704
H    0.74453889   2.13303581  -0.18634915
H    0.20799422   1.23670037  -1.28206708
O    0.51700974  -0.38796803  -1.92470065
H    1.29969773  -0.03351112  -2.34659124
H    0.85200496  -0.89787338  -1.18713262
O    1.84238161   1.76020191   1.17846080
H    1.53716251   1.09796246   1.81619388
C    3.11649300   1.34999211   0.70845883
H    3.44543979   2.10693705  -0.00869776
H    3.08605928   0.37888947   0.18998919
H    3.86751148   1.29161339   1.51178971
O   -1.51893491  -2.71464965   0.27629278
H   -1.85173545  -2.22765747  -0.49215090
C   -1.97101748  -4.05474728   0.16541684
H   -1.58727541  -4.58903077   1.03878296
H   -1.59091872  -4.55846283  -0.73712009
H   -3.06934108  -4.13490036   0.17158849
O   -2.21764348   1.17982088   0.11713832
H   -1.45067876   1.68206881  -0.19580803
C   -3.30216231   2.08537405   0.24491211
H   -4.15757517   1.50320733   0.59823340
H   -3.57999151   2.55386886  -0.71221948
H   -3.10586999   2.88316705   0.97824217
O    2.34807518   1.62229045  -2.69251177
H    1.72267750   2.13579023  -2.15995286
C    2.58293835   2.34114250  -3.89277207
H    3.28930091   1.74875163  -4.48065828
H    3.03244361   3.33061398  -3.71481550
H    1.66945491   2.47726765  -4.49260145
O    0.73146337  -0.36043708   2.67169215
H   -0.23411922  -0.43141731   2.63951547
C    1.14830114  -0.74591686   3.97176345
H    2.23815123  -0.66013622   3.99056985
H    0.88366478  -1.78761985   4.21176307
H    0.74086397  -0.09348990   4.75986963
