45
Energy:   -371.08866181
O   -1.20542306   0.20279777   0.76666278
H   -0.71440873   0.97776808   0.49361003
H   -1.59424601  -0.13198024  -0.04140420
O    0.41139862  -1.93070200   1.15393877
H   -0.16323331  -1.16663222   1.10674383
H    0.01589845  -2.56567851   0.55676517
O   -1.86214997  -0.53659732  -1.81199123
H   -2.27619307   0.32089555  -1.90949063
H   -0.94662540  -0.38942560  -2.04945088
O    0.24366779   2.20641331  -0.42879057
H    0.97079816   2.16184899   0.19211788
H    0.48944088   1.60285759  -1.12989536
O    2.51676918  -0.80232120  -0.20074635
H    2.59098903   0.00231570   0.31236447
H    1.87606248  -1.33159598   0.27422205
O    2.22890771   1.50723511   1.40323325
H    1.96961793   0.99314674   2.18227447
C    3.46138362   2.14456143   1.69878710
H    3.73878706   2.71915578   0.81088290
H    4.27103476   1.42813795   1.90850062
H    3.38647346   2.84244403   2.54738929
O   -1.09629464  -3.10629537  -0.87296548
H   -1.50294409  -2.34019816  -1.30442181
C   -1.99218696  -4.19868076  -1.00182548
H   -1.51861535  -5.05300227  -0.51055174
H   -2.18246118  -4.47101987  -2.05177998
H   -2.96006336  -4.01521330  -0.50955291
O   -2.37260832   2.19662495  -1.63356006
H   -1.53300870   2.49387391  -1.25258918
C   -3.41021633   2.59449545  -0.75174235
H   -4.34867758   2.25182739  -1.19598809
H   -3.46914103   3.68743010  -0.63009088
H   -3.31834711   2.13822724   0.24633414
O    0.81358979   0.08432438  -2.16038546
H    1.48493902  -0.32560648  -1.59499164
C    1.22663391  -0.08015372  -3.50755853
H    0.45931466   0.38718271  -4.13069818
H    1.30721145  -1.13841362  -3.80144725
H    2.18740542   0.41390485  -3.72110379
O    1.38430272  -0.35052936   3.31347634
H    1.12786960  -1.11573431   2.77763427
C    0.26747602   0.01075453   4.11016063
H    0.57362404   0.87401761   4.70726651
H   -0.03930151  -0.79042879   4.80064609
H   -0.60682758   0.30461030   3.50848020
