45
Energy:   -371.09525304
O   -0.51025258  -2.27789129   0.87309422
H   -0.92917070  -2.04054481   0.04580581
H    0.33028565  -1.82023423   0.85644024
O   -1.56037041  -1.19953944  -1.42242619
H   -1.08383440  -0.84676921  -2.17389039
H   -1.85848678  -0.42659570  -0.94293016
O   -0.12982119   0.14704073  -3.39502534
H   -0.42559759   0.23694649  -4.30093103
H   -0.32806332   0.99270274  -2.99279695
O    0.16000845   1.22899544   1.80350033
H    0.77782015   0.59154912   1.44544621
H   -0.36602349   0.72897651   2.42760234
O   -0.82310440   2.42615014  -2.14831932
H   -0.12028556   2.81024532  -1.62415481
H   -1.43801566   2.07460999  -1.50447500
O    1.04876504   3.06388100  -0.20723322
H    0.81576931   2.60023263   0.61079272
C    2.37521774   2.69436662  -0.54857782
H    2.62150914   3.22544114  -1.47204174
H    2.48063745   1.61452505  -0.73727386
H    3.10886803   2.98621201   0.21912059
O   -2.01579255   1.12588771   0.01818080
H   -1.31727922   1.21604289   0.68329315
C   -3.26231807   1.25732310   0.68258477
H   -4.03786203   1.15324584  -0.08108053
H   -3.38636633   2.24029615   1.16336886
H   -3.42390692   0.47623990   1.44191041
O    2.06659040  -1.02235749  -2.06630802
H    1.40120172  -0.57919319  -2.61337892
C    1.89614512  -2.42117769  -2.22996687
H    2.65339871  -2.90493569  -1.60704600
H    2.04908922  -2.74939752  -3.26999436
H    0.90624749  -2.77074762  -1.89727950
O    1.78994460  -0.69300646   0.68442131
H    1.99600388  -0.79790897  -0.25630092
C    2.93397973  -1.09137794   1.42267435
H    2.68461415  -0.96693441   2.47994244
H    3.81765063  -0.47125753   1.20506517
H    3.20078967  -2.14687543   1.25679841
O   -1.40833083  -0.71722606   2.99446760
H   -1.20780094  -1.36765751   2.30515638
C   -2.03382255  -1.40478307   4.06617617
H   -2.25282259  -0.65745912   4.83365978
H   -1.38541450  -2.17409144   4.51395846
H   -2.98282768  -1.87910022   3.77089692
