45
Energy:   -372.67568420
O   -1.74455632  -0.63827529   1.70555298
H   -2.05269291   0.02815996   1.09142943
H   -1.48033349  -1.37212201   1.15067719
O    1.73774269  -1.74231231  -0.66682738
H    0.88382531  -2.10589412  -0.43259411
H    2.17087995  -1.58703345   0.17252501
O   -1.97258494  -0.81017683  -2.19390667
H   -2.30307052  -0.14163721  -1.59385175
H   -1.11562352  -0.48380606  -2.46837179
O   -0.20716650   2.52940362  -1.35568122
H    0.37403648   2.59642000  -0.59809047
H    0.11438711   1.76783103  -1.83821858
O    2.76543845  -1.20717089   1.82131749
H    3.03764954  -1.79783281   2.52363613
H    2.06195983  -0.68460553   2.20638257
O    1.42776814   2.27311213   0.85294063
H    1.20742145   1.62992564   1.54299986
C    2.69438989   1.91778138   0.32195743
H    2.92714459   2.65236214  -0.45373681
H    2.69594207   0.91908948  -0.14214322
H    3.49630421   1.95179427   1.07598254
O   -0.93382214  -2.46510827  -0.25001309
H   -1.36511945  -2.00899523  -0.98782526
C   -1.34121600  -3.82350203  -0.28648769
H   -0.84633045  -4.32250173   0.55111174
H   -1.03878245  -4.33338354  -1.21456749
H   -2.42866021  -3.94481324  -0.16188423
O   -2.37444669   1.20615891  -0.28441031
H   -1.66801341   1.77989585  -0.61637600
C   -3.56768328   1.97234409  -0.24341652
H   -4.35293853   1.31096524   0.13266514
H   -3.87411021   2.33563254  -1.23684561
H   -3.49506413   2.83647807   0.43538851
O    0.66453026   0.10767755  -2.43212292
H    1.14470033  -0.50459815  -1.85508008
C    1.38259034   0.20217166  -3.65195667
H    0.82802529   0.89555747  -4.29004672
H    1.45536470  -0.76237958  -4.17838059
H    2.39981553   0.60185679  -3.51674557
O    0.63590366   0.27872605   2.74891039
H   -0.22826357  -0.04974111   2.45951860
C    0.43179317   1.05394785   3.91933930
H    1.41503416   1.41606366   4.23174047
H    0.00454818   0.46815489   4.74824561
H   -0.21385512   1.92847381   3.74293084
