45
Energy:   -372.92706545
O    1.49526354   1.53094460  -0.33430496
H    1.08111654   1.12544730  -1.09607005
H    2.32911294   1.07029519  -0.24087508
O    2.25028721  -1.61985684   1.92875243
H    1.66543778  -0.92067147   2.22085311
H    1.69402319  -2.19356460   1.40181638
O   -1.63615694  -1.14909519   1.15874935
H   -0.97398783  -0.62732130   1.61208798
H   -2.19270234  -0.50399941   0.72246904
O    3.56014792  -0.30976374  -0.01976409
H    3.18185819  -0.78477795   0.72016174
H    4.50562144  -0.35999531   0.12090738
O    2.14182530  -1.91264796  -1.80611207
H    1.55249861  -2.31137587  -1.16584497
H    2.74246205  -1.38273076  -1.28203660
O    0.43191699   0.50957269   2.03291805
H    0.76485677   0.94124814   1.23214924
C   -0.21279789   1.49902802   2.81895536
H   -0.58176509   0.99578870   3.71678530
H   -1.07337270   1.95580470   2.30559058
H    0.47032689   2.30306335   3.13462142
O    0.38644362  -2.77587891   0.17908212
H   -0.41229600  -2.30154324   0.45375275
C    0.07001543  -4.15780936   0.12735964
H    0.98055314  -4.67716355  -0.18357043
H   -0.72015654  -4.38600472  -0.60498758
H   -0.23583379  -4.56092190   1.10548738
O   -2.85186871   1.05964923   0.01488729
H   -2.23947464   1.78889668  -0.16286234
C   -4.08122355   1.62433054   0.44191830
H   -4.75929258   0.78925692   0.63777447
H   -4.54304574   2.26661192  -0.32422283
H   -3.98132060   2.20796274   1.37044949
O    0.40116846   0.16053014  -2.43616123
H    0.99490815  -0.60487411  -2.42889624
C   -0.93004981  -0.32778123  -2.48024880
H   -1.58556719   0.54727520  -2.48789123
H   -1.18782493  -0.93976508  -1.60172443
H   -1.13695331  -0.91724981  -3.38716394
O   -0.89182640   3.04092924  -0.40173037
H    0.01608304   2.71193209  -0.32501921
C   -1.02708362   3.63648350  -1.68218123
H   -2.05533292   4.00164680  -1.75178245
H   -0.86246257   2.92135389  -2.50331878
H   -0.35012452   4.49304500  -1.82642447
