45
Energy:   -371.80990408
O   -1.79962220  -0.72114853   1.75093487
H   -1.96179185   0.18641903   1.49353640
H   -1.68244157  -1.18797963   0.92354786
O    2.44553143  -2.63732281   0.74904436
H    2.16834300  -2.20803820  -0.06034624
H    1.88421094  -2.25893307   1.42578090
O   -2.43954782   0.62805622  -1.95131549
H   -2.48974186   1.07186229  -1.10470543
H   -1.60740124   0.91782114  -2.32521417
O    0.40679582   2.77953461  -0.31349565
H    0.98944175   2.19752621   0.17437912
H    0.36785505   2.39952732  -1.19116866
O    1.37941554  -0.96886413  -1.20622786
H    1.56425714  -0.34819020  -0.50136666
H    0.49295846  -1.28109024  -1.02473256
O    1.86188465   0.75866196   0.92520963
H    1.57648577   0.17945169   1.64734967
C    3.27433553   0.87060379   0.99581634
H    3.57891132   1.52623686   0.17553342
H    3.78454525  -0.09680860   0.86706609
H    3.61848469   1.32207382   1.93948657
O   -1.28397680  -1.61151857  -0.83679507
H   -1.81030098  -0.95258358  -1.31346142
C   -1.70186692  -2.89464343  -1.27439332
H   -1.09902340  -3.62478451  -0.72762198
H   -1.53464410  -3.05193094  -2.35146086
H   -2.76232050  -3.09438860  -1.05458110
O   -2.02448868   1.80960298   0.56876956
H   -1.19581997   2.26198079   0.35177700
C   -2.92519783   2.78115191   1.07606581
H   -3.85312103   2.25466801   1.31535318
H   -3.15886862   3.56851875   0.34242506
H   -2.55823132   3.26168075   1.99650317
O    0.24127571   1.15317301  -2.59929240
H    0.73612350   0.37659806  -2.29849298
C    0.69057067   1.46982249  -3.90711537
H    0.12301189   2.34659339  -4.23058873
H    0.50575317   0.65837633  -4.62834693
H    1.76126235   1.72556265  -3.93863742
O    0.78087532  -1.25158544   2.56949188
H   -0.16450725  -1.09970594   2.42249632
C    0.91754940  -1.96921926   3.78557397
H    1.98829547  -2.13176729   3.93579446
H    0.42366480  -2.95309564   3.75654623
H    0.53171599  -1.41221384   4.65370695
