45
Energy:   -372.45192319
O   -1.31017918  -1.07990060   1.69838560
H   -1.46166142  -0.29285178   1.17508918
H   -0.84031399  -1.67187873   1.11100119
O    0.03148412  -2.65876354  -0.13239241
H   -0.66812372  -2.52204445  -0.77121054
H    0.14710550  -3.60849022  -0.10268072
O   -1.84370548   0.58968422  -2.49509859
H   -1.90823399   0.85931445  -1.57892860
H   -0.91654179   0.69100650  -2.71034992
O    0.85599892   2.46290653  -0.43761124
H    1.44345148   1.95129371   0.11861143
H    0.92287394   2.05174804  -1.29941648
O    2.12357442  -1.07681945  -0.97714391
H    2.28514686  -0.50514389  -0.22660194
H    1.43480201  -1.67214383  -0.68148651
O    2.32345608   0.71181827   1.15411294
H    1.85904178   0.46095640   1.96640042
C    3.63602401   1.11145125   1.51465791
H    4.14506602   1.39063173   0.58814849
H    4.21165378   0.30171264   1.98979061
H    3.64545335   1.98453529   2.18578583
O   -2.02407973  -2.09396017  -1.81800072
H   -2.02222944  -1.20452419  -2.20182813
C   -3.25538189  -2.26526221  -1.13456501
H   -3.24071703  -3.27206126  -0.70838919
H   -4.12701323  -2.19036415  -1.80346441
H   -3.38748931  -1.54739178  -0.30995177
O   -1.54450239   1.26192132   0.20750868
H   -0.72719402   1.76030792   0.05904622
C   -2.47207507   2.13318592   0.83443826
H   -3.38674337   1.55586699   0.99434435
H   -2.72369238   3.00586180   0.21161978
H   -2.12101580   2.49474323   1.81362723
O    0.93619564   0.75485166  -2.66503839
H    1.39935802   0.05029906  -2.18805881
C    1.45436891   0.79363423  -3.98508617
H    0.92182180   1.59247357  -4.50828259
H    1.28708957  -0.14552141  -4.53534214
H    2.53055353   1.02565730  -4.01282234
O    0.72696820  -0.09539523   3.29455599
H   -0.03362922  -0.48160573   2.83547399
C    0.47086766  -0.16778355   4.68800718
H    1.33730885   0.27138657   5.18989809
H    0.35722195  -1.20292026   5.04627240
H   -0.42223786   0.40324081   4.98645489
