45
Energy:   -373.63868010
O    0.23553527   0.28429382   2.36538024
H   -0.37401383   0.64663522   1.72242577
H   -0.18208894  -0.52389441   2.66312786
O    1.71299092  -1.06034146   0.47575737
H    1.09255273  -1.76086232   0.27436516
H    1.30450979  -0.57712369   1.19400219
O   -2.18537805  -0.87537297  -1.03220615
H   -1.99190171  -0.09928155  -0.50639167
H   -1.67879895  -0.75361634  -1.83519108
O    0.90492660   2.58853155  -0.92865365
H    1.32248983   2.72131261  -0.07762956
H    1.38229912   1.85618474  -1.31854528
O    2.13436762   0.28342364  -1.81369144
H    3.04971293   0.13798251  -2.05290197
H    2.02163157  -0.19630612  -0.99309300
O    1.89192755   2.45506314   1.65453065
H    1.39337579   1.78387333   2.14378891
C    3.27135181   2.15699045   1.79901307
H    3.81821507   2.92256350   1.24194603
H    3.53996029   1.17389960   1.38168921
H    3.60661079   2.19280356   2.84739094
O   -0.40082811  -2.77465837  -0.12372995
H   -1.09502225  -2.19192426  -0.46569301
C   -0.06648721  -3.69452553  -1.15066439
H    0.71657566  -4.34315678  -0.74870017
H    0.32879579  -3.20042754  -2.05199444
H   -0.91664030  -4.32886750  -1.44668351
O   -1.25662710   1.38192740   0.30427727
H   -0.58105308   1.85564936  -0.20327619
C   -2.17232970   2.34323617   0.80418523
H   -2.92635145   1.79267516   1.37323617
H   -2.68638847   2.89754148   0.00339403
H   -1.69775957   3.07084472   1.48105029
O   -0.33444061  -0.37325837  -3.01622333
H    0.56451194  -0.18534044  -2.70801168
C   -0.80739062   0.78036057  -3.69299169
H   -1.82088000   0.55144721  -4.03346657
H   -0.19994704   1.03447070  -4.57572476
H   -0.85846057   1.66553556  -3.03981909
O   -1.05628375  -2.14318180   2.58828286
H   -0.81298646  -2.61088666   1.77558251
C   -2.47002303  -2.02773480   2.61167126
H   -2.72681390  -1.49866064   3.53342186
H   -2.97633579  -3.00558518   2.62694707
H   -2.86327007  -1.44603700   1.76328351
