45
Energy:   -370.75497438
O   -2.07186631  -0.20891812   1.41967001
H   -1.96295742   0.52091458   0.80998572
H   -2.19860113  -0.97375527   0.85824837
O    0.51208735  -2.94840158   0.57636330
H   -0.38981664  -2.88126271   0.26284550
H    0.56030202  -2.32756047   1.30331825
O   -0.91119304  -0.39492071  -2.21936411
H   -1.10120221   0.38467914  -1.69749014
H   -0.01406080  -0.62970578  -1.98216892
O   -0.22381865   4.13442101  -0.38033875
H    0.00256422   4.93627352   0.09084613
H    0.61685434   3.70734763  -0.54498718
O    1.51456503  -1.18766427  -1.25814327
H    1.92164163  -0.57953175  -0.64113814
H    1.24884934  -1.93341835  -0.72011179
O    2.41666882   0.40084066   0.85823007
H    1.79333732   0.05683831   1.51514978
C    3.70601676  -0.08871608   1.19057005
H    4.39567830   0.30824549   0.44072095
H    3.76436776  -1.18800759   1.16006304
H    4.04711578   0.24999669   2.18137903
O   -1.98065172  -2.25177864  -0.49580431
H   -1.69568780  -1.67196013  -1.21762793
C   -2.70192635  -3.33038305  -1.06931038
H   -3.01541901  -3.97354513  -0.24253950
H   -2.08923528  -3.93343284  -1.75758207
H   -3.60490693  -3.00028492  -1.60637521
O   -1.64372149   1.73811452  -0.54181750
H   -1.18194956   2.58527075  -0.45512097
C   -2.94266856   2.00551404  -1.04557119
H   -3.44889806   1.04071162  -1.13707627
H   -2.92413259   2.47703644  -2.04060907
H   -3.53790950   2.64073883  -0.37106765
O    2.07031068   2.69868570  -0.75879487
H    2.27411082   1.94422008  -0.18636985
C    2.07210878   2.23468753  -2.09940527
H    1.84085787   3.09700225  -2.73061169
H    1.30866844   1.46257230  -2.28318298
H    3.05072684   1.83667889  -2.41032833
O    0.41862653  -0.83237980   2.42543910
H   -0.47153841  -0.53519573   2.18520741
C    0.39203184  -1.20986385   3.79267437
H    1.40235231  -1.54190186   4.04662024
H   -0.30083639  -2.04267825   3.99049026
H    0.12973292  -0.37373007   4.45965031
