45
Energy:   -371.64217407
O    0.05051073   0.12519193   2.42501489
H   -0.79821755   0.15491138   1.98341675
H    0.43850697   0.98400582   2.25729645
O    2.33648066   1.04046376  -0.70022128
H    1.63732113   1.14910476  -1.34489556
H    2.19510354   0.16581297  -0.33796396
O    1.35988500  -1.25400171   0.50509668
H    1.29512181  -2.19299689   0.67923925
H    0.95801075  -0.83999982   1.26885800
O   -2.10436471   0.33118140   0.77128883
H   -1.78451048  -0.22861143   0.06378823
H   -1.95012145   1.22310880   0.45999093
O   -0.75932927  -1.05363023  -1.18815252
H   -0.54617849  -0.27741312  -1.70611544
H    0.00076608  -1.17922260  -0.62007378
O    0.61326206  -3.88272804   0.86440521
H   -0.00155503  -4.09695496   0.14709771
C   -0.12427728  -3.87733006   2.07623868
H    0.58332005  -3.63434717   2.87357834
H   -0.57340092  -4.85646404   2.30506600
H   -0.92225678  -3.11843008   2.08500541
O   -1.14773738  -3.84703914  -1.34146131
H   -1.18304783  -2.88209261  -1.41927288
C   -0.58473238  -4.35522117  -2.54034002
H   -0.55233534  -5.44310595  -2.43573431
H    0.44269324  -3.99806723  -2.71243006
H   -1.18934502  -4.11557496  -3.42904165
O   -0.05336147   1.46647614  -2.14645603
H   -0.52813787   2.07591947  -1.56199946
C    0.04087698   2.07935402  -3.42240023
H    0.57826309   1.37955090  -4.06813776
H    0.60513146   3.02479832  -3.39939394
H   -0.94426774   2.27355926  -3.87467396
O    1.27060041   2.45781070   1.41711815
H    1.78171810   2.04931996   0.70275319
C    2.18999412   2.92705664   2.39028681
H    1.59757554   3.38413101   3.18753737
H    2.87594529   3.69174069   1.99341578
H    2.79093618   2.11728219   2.83290551
O   -1.15276403   2.88614251   0.04031789
H   -0.36147711   2.92975204   0.59744130
C   -2.09874445   3.80475836   0.56357666
H   -2.98363886   3.74277318  -0.07564547
H   -1.73667976   4.84464194   0.54544836
H   -2.40368856   3.56089383   1.59329337
