45
Energy:   -370.79115931
O   -1.81672047   0.57962402   1.32622149
H   -2.12314064   1.04290420   0.54666392
H   -1.75137363  -0.33501928   1.05165044
O    3.22943742  -1.71456692   1.89706896
H    2.30322756  -1.90156873   2.05003125
H    3.65422396  -2.57206458   1.91911435
O   -1.41301418  -0.69540415  -2.26028409
H   -1.82718146   0.12190115  -1.98331954
H   -0.50471200  -0.45447097  -2.44241094
O    0.36579045   2.69157821  -1.48400559
H    0.62178402   2.51010876  -0.57970034
H    0.69733690   1.94427567  -1.98184865
O    2.71665247   0.00572056  -0.17410396
H    2.11200804   0.58485638   0.28983425
H    3.00999822  -0.61728193   0.49076296
O    0.76658274   1.58176338   1.06967253
H   -0.10971788   1.22150553   1.27150113
C    1.43624370   1.80014443   2.30109353
H    2.42135456   2.20591052   2.05533820
H    1.58291230   0.87224229   2.87577890
H    0.91762053   2.52863765   2.94382595
O   -1.44164845  -1.94390554   0.20481494
H   -1.39529585  -1.63126446  -0.71089804
C   -2.34897206  -3.03381678   0.24211265
H   -2.38920934  -3.37369225   1.28054937
H   -2.02242397  -3.88050656  -0.38179447
H   -3.36797996  -2.74948150  -0.06375280
O   -2.20949821   1.76987521  -1.17547664
H   -1.37405869   2.23466073  -1.33180482
C   -3.25817492   2.59675503  -1.65410041
H   -4.19176554   2.05816332  -1.47021801
H   -3.18484062   2.79358127  -2.73514566
H   -3.31196755   3.56267545  -1.12790517
O    1.21240449   0.20168799  -2.48273974
H    1.81869859   0.00981517  -1.75197606
C    1.95751162   0.13791865  -3.68826145
H    1.25948123   0.35648086  -4.50095410
H    2.39013448  -0.85862776  -3.86856690
H    2.76923558   0.88117889  -3.72628444
O    0.55613889  -2.19799253   2.20105286
H   -0.11149769  -2.17265955   1.49959516
C   -0.07120842  -1.79282374   3.40720681
H    0.69481628  -1.82708225   4.18664103
H   -0.89214300  -2.46347358   3.70565703
H   -0.46276412  -0.76468330   3.35833228
