45
Energy:   -373.04593426
O   -2.24719842  -1.98567092  -0.69459415
H   -2.64185638  -1.11917478  -0.59630185
H   -1.56068842  -1.86370844  -1.35038452
O    2.45141419  -1.65121659  -1.60400591
H    2.29766672  -1.78180604  -0.66830299
H    2.80077093  -2.48858136  -1.90896814
O   -0.78964965   1.34830232  -1.74675789
H   -0.23141079   1.61297783  -1.01562992
H   -1.64401097   1.18205358  -1.34843650
O   -1.14592533   0.89428795   2.05236490
H   -0.40526523   1.26550682   1.57293710
H   -0.98249442  -0.04885591   2.05372008
O   -0.18996881  -1.25620741  -2.34434841
H    0.73619470  -1.37631597  -2.13452246
H   -0.33873944  -0.31595223  -2.24425178
O    0.87328132   1.94136521   0.43642943
H    1.67788446   1.69395369  -0.04297082
C    0.95784111   3.32596279   0.73353711
H    0.04380768   3.58781832   1.27340726
H    1.01163446   3.95238420  -0.17060879
H    1.81683660   3.57098511   1.37763969
O   -0.85217992  -1.84891112   1.67430384
H   -1.34521369  -2.00705631   0.85556635
C   -1.32812948  -2.76517208   2.64717159
H   -0.76226593  -2.57326972   3.56284464
H   -1.16439309  -3.81521407   2.35841642
H   -2.39760826  -2.62933024   2.87198142
O   -2.92068523   0.66631408  -0.06093550
H   -2.43021157   0.82862794   0.75852352
C   -4.26999379   1.04263303   0.16330599
H   -4.80810187   0.85335231  -0.76948429
H   -4.37835615   2.11059416   0.40926117
H   -4.74937243   0.45224008   0.95980434
O    2.93375020   1.09261483  -1.24512296
H    2.90751698   0.14012194  -1.41974368
C    2.75092316   1.76222928  -2.48234749
H    2.78317589   2.83378657  -2.26738252
H    1.77897613   1.53664677  -2.94840416
H    3.54603559   1.53592242  -3.20991795
O    1.89599252  -1.87707857   1.04318692
H    0.97763404  -1.92239835   1.34812476
C    2.59575490  -1.00199320   1.91329724
H    3.62817370  -0.96248879   1.55547604
H    2.60892159  -1.35894810   2.95502041
H    2.19111652   0.02217364   1.90201008
