45
Energy:   -372.00153886
O   -1.71012235  -0.87570832   1.88528143
H   -1.70798829   0.05171477   1.64839810
H   -1.93829453  -1.33002872   1.07425599
O    0.73609588  -1.95529400  -0.67332684
H   -0.19560618  -2.17389415  -0.69274545
H    0.90769285  -1.71673689   0.23764892
O    3.20767996  -0.75830241  -1.49186617
H    2.68559225  -1.53459693  -1.28932460
H    2.63617896  -0.22121267  -2.04064032
O    0.70123475   0.33390164  -2.20918430
H    0.78139818   1.03793337  -1.56564332
H    0.68223698  -0.46786225  -1.68664666
O    3.05416432   0.56949347   0.91167691
H    3.28003349   0.09782155   0.10996589
H    2.44031222  -0.00823426   1.36516132
O   -1.31086472   1.74433752   1.12267816
H   -0.50298207   1.98351910   0.64461847
C   -1.36980861   2.54199388   2.29434523
H   -2.28560908   2.25976451   2.82078732
H   -1.42153101   3.61954794   2.07303240
H   -0.51906653   2.36674489   2.97132605
O   -2.05914100  -2.02405373  -0.64352189
H   -2.22060520  -1.38903823  -1.35703987
C   -2.94711865  -3.11476834  -0.82891634
H   -2.75183572  -3.82039065  -0.01685296
H   -2.78329755  -3.63897981  -1.78345409
H   -4.00551960  -2.81551895  -0.77401138
O    1.14425181   2.20004386  -0.19711411
H    1.87355803   1.75078388   0.25532503
C    1.64235105   3.42893593  -0.70135135
H    0.80811726   3.92192349  -1.20781205
H    2.45286433   3.29070517  -1.43397527
H    2.00343139   4.09977380   0.09386867
O   -2.04862256  -0.05568080  -2.61862598
H   -1.11071189   0.17901629  -2.67915810
C   -2.76662858   1.12232884  -2.28802891
H   -3.82098241   0.84000897  -2.22385179
H   -2.66964938   1.90830273  -3.05328534
H   -2.46653396   1.54461502  -1.31622907
O    1.04355775  -1.07326485   1.93739945
H    0.08935860  -0.98642414   2.08017883
C    1.56512781  -1.87116634   2.98804290
H    2.64063660  -1.95883019   2.81174459
H    1.13789609  -2.88606016   3.00356444
H    1.41776411  -1.41690397   3.98036692
