45
Energy:   -374.12091293
O   -2.19672967  -0.30028650   1.67723192
H   -2.46224627  -1.00590707   1.08745876
H   -1.83946982   0.37391373   1.09926020
O    1.52132849  -1.47297558  -0.34747445
H    0.75527118  -1.32769652  -0.90270597
H    1.16890897  -1.51500269   0.54149464
O   -0.64623412  -0.72041431  -1.85499528
H   -0.83606675   0.02950377  -1.29124154
H   -0.08996686  -0.36487942  -2.54809955
O    1.64339961   2.37887679   0.11997698
H    1.68338097   2.06166489   1.02220198
H    2.24260239   1.80862032  -0.36168207
O    3.15722469   0.48662659  -1.20623897
H    4.06657132   0.25675568  -1.01524181
H    2.64715930  -0.24755201  -0.86411775
O    1.42445454   1.13160970   2.56364210
H    1.18190720   0.19391257   2.54580504
C    0.49851218   1.79976826   3.40550235
H    0.78630687   2.85455848   3.41427792
H    0.52350493   1.43045020   4.44268934
H   -0.53709397   1.73152298   3.03720926
O   -2.41003380  -2.24040872  -0.28480155
H   -1.85260781  -1.86064523  -0.98012825
C   -2.89428350  -3.48823574  -0.75486935
H   -3.52013173  -3.90211656   0.04043050
H   -2.08622750  -4.20708866  -0.96241046
H   -3.51332693  -3.39033071  -1.66039525
O   -0.93820650   1.41822646  -0.12481950
H   -0.05780622   1.81281452  -0.03753326
C   -1.84948455   2.46204989  -0.42902129
H   -2.83595717   2.00014876  -0.52391233
H   -1.61601440   2.96679623  -1.37954755
H   -1.90404443   3.22363067   0.36457513
O    1.27438119   0.62906940  -3.31269031
H    2.06496501   0.60214823  -2.75351614
C    0.97562394   1.99174407  -3.57036382
H    0.08271533   2.00373537  -4.20128032
H    1.78311155   2.50911727  -4.11171958
H    0.75314599   2.55911965  -2.65310386
O    0.26834079  -1.44354921   2.14739198
H   -0.63242326  -1.09260840   2.08503849
C    0.17201913  -2.82136352   2.47124939
H    1.19531439  -3.20077310   2.53758476
H   -0.35851946  -3.40310140   1.70125772
H   -0.32067410  -2.99696611   3.44036985
