45
Energy:   -376.71075796
O    0.40504560   0.11658639   2.02010590
H   -0.17583910   0.76561016   1.62315129
H   -0.18312019  -0.48282860   2.47944730
O    0.79586315  -1.95857702   0.23038734
H   -0.11427759  -2.18219595   0.03578454
H    0.73720533  -1.25601917   0.87784665
O   -2.10452142   0.31732136  -1.30623024
H   -1.92429521   0.90775927  -0.57470210
H   -1.36379371   0.43821048  -1.90031788
O    0.87758079   2.97573462  -1.03874401
H    1.57573915   2.54891646  -0.54212241
H    0.65577874   2.34941643  -1.72777320
O    2.38705590  -0.59695869  -1.51990989
H    2.62837002   0.09117030  -0.89984712
H    1.89561172  -1.23004539  -0.99654032
O    2.49707863   1.31722806   0.54505564
H    1.91505667   0.91908947   1.20925393
C    3.78155291   1.46197960   1.12961239
H    4.42441208   1.91172667   0.36807128
H    4.22526278   0.49838969   1.42523610
H    3.77663049   2.12630037   2.00792385
O   -1.98360452  -2.14871957  -0.06714124
H   -2.13471663  -1.31817055  -0.54230094
C   -2.72914069  -3.16175413  -0.72324379
H   -2.54754230  -4.09028137  -0.17520693
H   -2.41284474  -3.31398901  -1.76706310
H   -3.81282051  -2.96599478  -0.71356559
O   -1.07170668   2.02146996   0.65739690
H   -0.45679244   2.51690476   0.09628361
C   -1.92040674   2.95987666   1.29898465
H   -2.60651768   2.38499264   1.92687423
H   -2.52054000   3.54714357   0.58642940
H   -1.36864622   3.65858665   1.94716828
O    0.28957454   0.76628754  -2.67398748
H    1.03026890   0.21238410  -2.38591437
C    0.37379885   0.89839483  -4.08394766
H   -0.46772074   1.52504088  -4.39159148
H    0.28982549  -0.06693479  -4.60726833
H    1.30327096   1.39078970  -4.41014731
O   -1.44912838  -1.81087789   2.71877874
H   -1.79586084  -2.01505188   1.83757907
C   -0.86381240  -2.99510334   3.23603020
H   -0.47838767  -2.74732955   4.22877444
H   -0.02278337  -3.35629973   2.62367028
H   -1.59036939  -3.81523670   3.34681623
