822
 energy: -1393.498943342183 gnorm: 0.001889194129 xtb: 6.4.1 (afa7bdf)
O         0.46498169955964    1.62165060723814    0.09078529275648
H         0.50387416250065    2.10522754334861    0.94317554578547
C         1.49814531694708    2.12863571602939   -0.74028031695062
H         1.62866032868426    1.42631952343695   -1.55697388947750
H         2.42695863140312    2.21130590838635   -0.18530670729615
H         1.21907269386389    3.10321335909112   -1.13936647411500
O         2.37921118790010   -8.39869480585853   -1.20117803228273
H         1.86392380802287   -9.17557285007731   -0.89167773900572
H         3.15178154070703   -8.29400670175564   -0.60928404429134
O        -4.44248144197115    3.08914793967898   -2.71570520187409
H        -5.01926981147791    3.82822448294328   -2.44080187514286
H        -3.54130289667250    3.43929384813294   -2.82144099447817
O        -2.47307494678980    2.27947806398794   -7.73321580684465
H        -1.86595968689935    1.95302352471135   -8.40683691378168
H        -1.91332053936054    2.71741421763440   -7.05795510554220
O         0.29961543019637   -6.24470929152956    6.02892879062959
H        -0.63275664153009   -6.02442039771631    5.83619460378890
H         0.38061262733071   -6.31773998106100    7.00835394215328
O         4.15677595664859    3.21359433833686    7.54089521819021
H         4.14361589990369    2.31956663184129    8.01011363325550
H         4.91767636131677    3.69703556693727    7.86074837631937
O        -5.07860235046938   -3.27411301403042    4.22825782357279
H        -5.26398228647915   -4.21517085057377    4.05875129209364
H        -4.47201408738647   -3.28570389461751    5.00667131166425
O        -3.83224851056477    9.82759167469684    5.53434209994747
H        -3.97234554136345    9.55271077768990    6.44962852537425
H        -2.90738788077212   10.10738188741120    5.48482422195345
O        -5.57449134036883   -2.24917663785479    1.34757716042936
H        -6.01673460216148   -2.31425915038857    0.48505917666975
H        -5.94237158394262   -1.47092499020498    1.80920832235960
O         9.58635825885381   -1.86318084966819    5.63558556199046
H         9.19802840977644   -1.09930473361115    6.08736654110668
H         8.89548336972690   -2.54998556568672    5.63717437403093
O         2.83512333030472   -9.20506246186051    5.67246156623911
H         2.97789220717567  -10.10866774995506    5.94935964051183
H         1.85402986830960   -9.08273553868757    5.56276054177759
O        -7.34361272392257    4.59507535102291   -5.04663697208715
H        -7.99342795468262    4.99276273890531   -4.45016312493282
H        -6.54949885765343    5.14957806800134   -4.99376943811168
O         7.56042327662811    0.29533849454010   -4.91596383821760
H         7.06613597174622    1.09266593247482   -4.62780259767717
H         7.34584659939792    0.14580925995245   -5.83826724385845
O        -5.33668122931632   -5.86953326994466    3.45642467241619
H        -6.04345154529331   -5.52211742116369    2.87134694552582
H        -5.76644104203594   -6.39415757387819    4.14815071947916
O         0.78935688448520    0.18664052952554   -3.55803270745480
H         1.64214961620051   -0.28451284884842   -3.58769830380900
H         0.33455079638694   -0.00132784265789   -4.39439259513199
O        -3.30906938794999   -6.67074569882058   -1.41808422203727
H        -3.91736302254409   -6.12864624683482   -1.93345091229876
H        -3.71615615920260   -7.54285408341813   -1.35122732865645
O        -3.28577385401053    5.52605045685309   -7.50986287461998
H        -2.43628716693315    5.45716461329113   -7.98798995072760
H        -3.92464177299518    5.01418180166447   -8.05000076255907
O        -1.05703426551547   10.74804376291744   -2.80841329545021
H        -1.79601173053233   10.11476755032072   -2.97612638202739
H        -1.01200441547116   11.32665329519991   -3.56820556902713
O         0.65387900095281   -8.75379129452387   -4.55028455620770
H         0.00437919829238   -8.83711968820391   -3.83100849014411
H         1.49963700043384   -9.04709777115452   -4.16869805358480
O         6.87993510606107    5.20240229342822   -0.16822685012911
H         6.45876082133297    5.74578724176099    0.51977469230961
H         6.18130832151220    4.55455321094570   -0.38631171904160
O         5.00873596707344   -0.41389691882038   -6.03834766854220
H         5.52603964794689   -1.23171003113801   -6.13717626983563
H         4.33438474524125   -0.56431380804588   -5.35536512310887
O         1.76817932029206    5.08816746120030   -3.45279585782190
H         1.00582767408057    5.56183767080361   -3.03539144757313
H         1.44354692166992    4.16251749591390   -3.51781912344273
O         8.17733432471006    3.54134811136844   -2.04400277551291
H         9.05106262098253    3.28253673420188   -1.73627282981712
H         7.87515307096356    4.24642670730517   -1.45340701188721
O        -7.06229960287775   -4.47240943574327    2.05570609953485
H        -6.50941545283638   -3.68789664914822    1.85364023239375
H        -7.14212066995358   -4.98113246612658    1.24213418959018
O         5.20159339822328    2.17620145801751   -6.51589756147251
H         5.23239398569582    1.19842492116864   -6.42751051956393
H         5.76623323572120    2.52872726396459   -5.81443396582650
O         4.23485656164044    1.02789628466993    0.58455254654403
H         3.90841531933088    1.31257196205215    1.46142917841347
H         3.74617626926448    0.21739101204158    0.35914715708595
O        -2.44396750395659   -1.32114770381825   -3.00290118648288
H        -3.09818304057005   -1.93279960536834   -2.60644070188587
H        -1.79793266093236   -1.19281747595759   -2.28268404065144
O         4.70800965472971    5.84604022618979    5.96933669544840
H         5.46645082499101    5.84742083883868    5.37142312085083
H         4.07343628766615    5.22408506542688    5.56683428752076
O        -0.51155075408887    3.37593914548351   -6.20088829055350
H         0.07310964658543    3.32836086958945   -6.98271686026006
H        -0.62520565299295    4.31389940965965   -5.97934201369301
O         3.96522215997593   -3.83108524023822    4.15583650883421
H         3.06185738342106   -3.59499504678567    3.87606972708786
H         4.40495385872857   -2.99414323396596    4.39803695471867
O        -5.43786075477980    8.48887695153801   -2.81054834189197
H        -5.60121572370660    8.11524013261058   -1.92250500993524
H        -5.62899565940260    7.78488001225074   -3.43576012237867
O         0.61082528216564   -3.23268975792170   -7.84991178183177
H         1.40338479761270   -2.79462131413466   -8.21644186953080
H         0.64277894225099   -2.98710679856674   -6.90048363281756
O         1.71384150083158    2.23451681832700    5.52553491172621
H         1.26962348200356    2.38774983473913    6.36903934217391
H         2.22518464847138    1.41202558921481    5.65589880000947
O         4.15069838117296    0.90147170827231    8.64929556995545
H         4.79532829859877    0.27943829849819    8.26904456037614
H         3.27437960257824    0.50040779731203    8.47490402566003
O         5.07670668550922   -0.27999871959664   -2.03010531023277
H         5.70969486348864    0.34555213779172   -1.61029344681874
H         4.99961275077548   -1.05232632580515   -1.41777842784378
O         3.70195029108389   -2.32721323155016    6.95696342702917
H         3.42471772707949   -1.41537966545033    6.75010679552171
H         3.02894035521477   -2.91707699228395    6.57928756630753
O         0.92175914044810  -10.42488611139136   -0.24479679789128
H        -0.02323067843029  -10.20877426997464   -0.23355601846678
H         1.24317034611252  -10.26179877416752    0.65596268075609
O        -0.24335213791174   -9.23442151356395    8.15281186232832
H         0.06246898020106   -9.22617240246381    7.23660248193870
H         0.06777398443747   -8.39675401572503    8.52819385578320
O        -4.10766246921254   -7.81743505509287    5.63750493203408
H        -4.98960201920761   -7.51198632622751    5.88503010615813
H        -3.72067354613971   -8.29124919594462    6.40584686368858
O        -1.07182562859623    9.94793618223053    5.35355068125166
H        -1.03042209383637    9.49444093009995    4.48613954230144
H        -0.17171396605190   10.24434935029284    5.53588730287903
O         9.14187636728562   -0.87944908511685    3.22457644651708
H         9.44679211034321   -1.28505448299097    4.06883889374003
H         8.98830910535935    0.05663353132144    3.42117364919577
O         3.23567688081996   -6.68740854313769   -4.24856846006019
H         3.21384218782636   -7.64134502747366   -4.09889446107767
H         3.98245668289898   -6.52230485424441   -4.86626389088166
O         1.18239707520272    7.32690127168604    8.10438357643158
H         1.89524794032124    7.80010597382445    7.64817415951025
H         1.47366737317201    6.39801896403024    8.08453136163741
O         6.32532732340298   -4.84705663262911    3.29122605772839
H         6.30630687199044   -5.69323092498969    3.80871057346417
H         5.43430703637795   -4.46708671178047    3.43870523104397
O         1.72318731058982    9.85271266652161    5.54702877084101
H         1.85197126093461    9.96344223649913    4.58666223570687
H         2.54185188108468    9.48774033211987    5.90726412288952
O         2.87566423200471   -1.25466636100121   -0.11621217050162
H         2.39938018989665   -1.47859378930542   -0.92588826745688
H         3.63773399464196   -1.85041348633554   -0.04991663555801
O         2.49486371589767   -5.93921675172356    2.79010094383162
H         3.04313154400950   -5.18865034352401    2.48718395590671
H         2.08201024452766   -6.27004878742861    1.96950114869921
O         6.61843192301080    0.34797778644114    4.02063209599277
H         6.05378832452722    1.10344410909379    4.22641304277686
H         6.66748062064894    0.30743371181957    3.03277823625369
O        -0.59530003292021   -8.43169290063376    2.99133349331894
H        -1.21663150080374   -9.18040478913506    2.88054411813178
H         0.25037635609486   -8.71516096721590    2.58131604038720
O        -2.82470611949804   -5.93266951225504    2.65235482994206
H        -2.72323880621825   -4.96462426387309    2.49005333165590
H        -3.78230355024574   -6.00176370057248    2.84858081729838
O        -1.14629492894059   -1.61791577880931   -0.69964061334600
H        -1.79045112163209   -1.24587224870633   -0.07544523321691
H        -1.34979648387410   -2.57561925765757   -0.72517726932412
O        -4.91698734640615    2.07597731995095    6.39850284973136
H        -5.42964511436616    2.00102085521716    5.56334219800535
H        -4.53962285373718    2.97129739391956    6.35747339218203
O         0.09821448635760   -3.95491826427055    1.35589856125133
H         0.80859230392286   -4.17544117445616    0.72107356746040
H        -0.02923779859398   -4.71403775348631    1.96032993673483
O        -6.42050020282300   -5.93432291877649   -0.20153205115231
H        -6.25768524131570   -6.11880719551314   -1.13988556999856
H        -6.25821966261362   -6.78312655066339    0.27420388029309
O        -4.23091247017700   -2.95691138771368   -1.92480783899198
H        -4.10732064833258   -3.62126509628467   -2.63347099664688
H        -4.96543219037412   -2.35391462997702   -2.16055079138758
O         3.06737128398269    1.74520454443680   -8.26847423604475
H         2.78045422878130    1.07199890322980   -7.61801995285115
H         3.90309945144380    2.09035565310524   -7.93544969321171
O        -5.79296592605294    7.25829733020201   -0.43328680123911
H        -5.32314720961044    7.72897669430846    0.27224377296605
H        -6.58250912917781    6.86719574063846   -0.00575039775282
O        -3.67273382275368   -0.06043747832488   -7.36195494935714
H        -3.15270602282707   -0.70198527653998   -7.85867972896670
H        -3.25488202661017    0.82151185568288   -7.46341600210440
O         5.97230135901088    3.05088876394550    2.84698769517268
H         5.10033197806920    3.04853934501261    2.43532845242863
H         6.63388553616291    2.99591434543959    2.14697529611811
O        -1.25905813614557    0.96428480975879   -1.96179333098663
H        -0.52392635062362    0.51027011932245   -2.39962602264683
H        -0.89182192587025    1.31866907054663   -1.13698486384382
O        -1.66503481589503    4.51496776426913    7.64952269332171
H        -2.12176118053001    3.69549309723495    7.39880364204335
H        -1.00345887214214    4.68769271507069    6.93684854010963
O         3.12156707451498    4.20782688693146    4.51623893681651
H         2.52200766840372    3.52579929332544    4.90851022750188
H         3.40539254780674    3.87455823640251    3.65083312972148
O        -7.11297559887696    7.76682345948711    6.04954485179382
H        -7.78561052246451    7.12198405247298    5.82711402781726
H        -6.32901992527256    7.25970194491008    6.35472788092587
O        -4.93827952113815    5.67069449518870    2.34977904851617
H        -4.94740368873503    6.61541810520247    2.16529004431201
H        -5.10905546168008    5.57135386190454    3.29937758690699
O        -3.95901392308469   -8.48024367191478    3.04418087128835
H        -4.10008401743799   -8.34651920955761    4.00310615901996
H        -3.30938294714143   -7.80911805416040    2.79935066818697
O        -2.28672007703923  -10.49061500114945    2.73885689286043
H        -3.08084758887663   -9.91754057491654    2.81297496628870
H        -2.14662625859892  -10.81558092822760    3.64426342514552
O        -7.05244769554377   -3.19111670710264   -0.74549477017460
H        -6.97847935593810   -3.07911779218615   -1.71067958894972
H        -6.93393311319667   -4.13608903181256   -0.59967843708982
O        -9.68974304935201    2.76672935811264   -2.33533671775839
H        -9.59720887191499    2.68043369529619   -1.37696636889433
H        -9.52638044240071    3.70990326965813   -2.53461699178311
O         0.36370064300571    4.75279360859026    5.97850773839543
H         0.45171831240081    5.67142208211112    5.67531465231922
H         1.05787620184294    4.64077248772493    6.65443464424336
O        -1.58077817062782   -4.25048444024102   -0.68244330719874
H        -1.04910143735087   -4.25025361352660    0.13783442185708
H        -2.48128674085709   -4.52223596606007   -0.45166539245585
O        -4.32366840307056   -0.31376987734869    7.76203104692678
H        -4.63904520367052    0.20830679476172    7.01113661651360
H        -3.44877296776780   -0.67911109818044    7.49437894364714
O         8.91096968163647    0.04750944891802   -2.54302910941247
H         9.22623499159856   -0.87184120975864   -2.55625518180632
H         8.57400240909235    0.22602685615760   -3.43044663297556
O         5.22384278886161   -6.25791014400729   -5.95942594735627
H         4.86940228684355   -5.55701199795482   -6.52099707616337
H         5.95118579467588   -5.83167355707771   -5.46466312629077
O        10.08655228496095   -0.82147990448100    0.67966842986873
H         9.90192493579791   -0.82572620762109    1.63402397128672
H         9.21597612793603   -0.98271824354819    0.25824992831052
O        -7.68972629224517    5.87915579698183    0.82361496489394
H        -7.26071944483519    5.00178910963921    0.88852541820714
H        -7.75759472420526    6.19871845682917    1.74365477142699
O         1.09640035470070   -2.17114119394181   -2.02271036115981
H         0.65181228536706   -2.66919728828126   -2.72781460881640
H         0.37274027514751   -1.81494900921668   -1.47720401330512
O        -5.83810291826393   -2.52235626018415    7.13778348516033
H        -5.51217749733279   -3.26586254287706    7.66081897514738
H        -5.38439183618426   -1.73211443391808    7.48010323015758
O         1.53659463113853   -4.13611423839607    8.94844978409433
H         0.83876054527309   -3.51322643974254    9.19014508314287
H         2.38143514112495   -3.76461386743818    9.26958886678834
O        -4.94358021384507    5.97981206618359   -4.54944135987491
H        -4.37248632688024    6.70391360934705   -4.87078198133144
H        -4.38094256361622    5.18874555189013   -4.70786801953299
O         4.80807370655644   -1.77131828810276    1.94491516265682
H         5.76579484948812   -1.91181305742695    2.00000068682918
H         4.41902993132510   -2.63682604285514    1.72694722804166
O        -8.20430708051218   -4.88671717486722    4.68064713678766
H        -8.39019769829412   -4.10583210237130    5.21848255771089
H        -7.97258101415749   -4.57224487099467    3.79466932665850
O        -3.20980460531631   -3.39036019620910    2.32191633589578
H        -3.65898719594973   -3.63495169689852    1.48404383979794
H        -3.92552163947766   -3.21125194080572    2.96684644216704
O         0.94674569037477    6.68746493123654   -7.19243394762661
H         1.56908589397950    7.13105201452571   -7.76790193961137
H         1.40262112973142    5.87885779169747   -6.86412339422852
O        -0.25004084642261    6.27423454983484   -2.30382441666760
H        -0.01985463286949    7.21068670569989   -2.15017475766471
H        -0.55499941828187    5.89436581890432   -1.45115502199893
O        -0.72176102282232   -3.45180051879765    4.76589097885299
H        -1.08479890499513   -2.78805373539906    4.14586179518203
H        -0.72447507695086   -4.30592355397124    4.31060160816775
O        -4.12070152908691   -9.30895411625649   -0.92790150675293
H        -4.32695116558970  -10.04009626900141   -1.50800339208203
H        -3.25874517467782   -9.51100912377067   -0.49134975355981
O        -3.27366033575290    4.04325846445826   -5.33812865818684
H        -3.23752556697026    4.53633306716709   -6.19549860280091
H        -3.91387455803345    3.31048552485728   -5.45587543050540
O        -1.04651511564961    2.64283038807927    4.77056694424068
H        -0.50010409204520    1.86937774370734    4.57461355566581
H        -0.45124696610379    3.35459652903999    5.05263943740782
O        -4.05193476408962    2.09420463816759    9.28602923835741
H        -4.04932784433080    1.22925173364016    8.84809892570642
H        -3.27500331474761    2.13288154701458    9.85901801694617
O        -4.23722973719503   -4.32922098791591    8.46734622318040
H        -3.84113044482560   -5.21415386402932    8.45056881640734
H        -3.76055937662813   -3.89196918803909    9.21648702140812
O        -2.85494156133576    8.87365150037961   -3.19482776491983
H        -2.77565017182096    8.46092646367857   -4.06746802396098
H        -3.82152530431844    8.84226591684865   -2.99261793510678
O        -2.41234079958742    9.79190205101549    1.22559761889620
H        -1.99518641372987   10.54930067103200    0.74968517808041
H        -1.78013581017642    9.52313939898160    1.90085752314310
O         9.31426586676427    6.35985860896753    0.21437158474779
H         9.27032886598592    7.26351691600225   -0.09580724073271
H         8.46829292151355    5.94239726563325   -0.02284919079473
O        -5.64809724910951   -5.87116919107458   -2.81326295603175
H        -6.10537345282859   -5.03727345815189   -3.04829799836986
H        -5.38745116826788   -6.27947845615404   -3.63910607898711
O         1.51821664331503    7.74423181399189   -4.67197462818211
H         1.06543375975806    7.52939202954789   -5.50182450103323
H         1.85154285217961    6.90496820115105   -4.33705896268322
O         4.37922775761479   -3.18378979532104   -4.25105843226039
H         5.28728643548685   -2.90660180599597   -4.02423956592020
H         4.36883717361769   -3.45522118385266   -5.19020217939653
O        -4.19489727700188   -0.39233276787708   -4.79901888963038
H        -3.81291980538874   -0.33249635783425   -5.69587211374572
H        -3.46139018194310   -0.45076029621522   -4.16252806992962
O         3.83738759592256   -2.87119242100064    9.50025812337130
H         4.67040734464677   -3.33306822707875    9.58858288512166
H         3.81968825030329   -2.56252017387483    8.55342053612781
O        -7.52302138962134   -2.10413655930641    3.55319812142437
H        -6.66067144504518   -2.52494806364430    3.69058866155745
H        -7.98016024758369   -2.16082265344278    4.40843979376431
O         3.27883867972364    0.08193216544509    5.90376638123848
H         4.10056285124440    0.59394501703016    5.87732355745077
H         3.17327699729927   -0.32576322494396    5.01185601597830
O        -6.40141192726273    0.04485590506992   -7.15792671324745
H        -5.43950462413650    0.00321485192391   -7.30408924476956
H        -6.66989093685234    0.95426280489896   -7.36088737938424
O        -3.56301417267982    4.18495025917429    5.52456991933464
H        -3.48878687560112    3.55987017617227    4.78418785312432
H        -2.85137856378726    4.84443771801336    5.38556824939370
O         3.99470795499072   -3.90254577882021   -6.82853526936327
H         3.72876901945518   -3.16971110585649   -7.40918215515822
H         3.17341161950306   -4.42694677177319   -6.69591160243431
O        -4.68930595883323    8.41321229586567    1.77633072222604
H        -4.03906399952673    9.11268338838697    1.60368457500701
H        -5.22000820666733    8.70594557482267    2.54259241445948
O         1.17141468628217   -6.85336046438448    0.65177881061466
H         0.19797927711068   -6.83195339709017    0.57600273069556
H         1.51064469526635   -7.07347777035937   -0.23542097838758
O         0.44303120172614   -6.23654060870958   -1.92756878330087
H        -0.10936476881512   -7.03573229394032   -1.94666428262301
H         0.64845698343642   -6.05586131620543   -2.85190070916214
O        -2.27993013075594   -6.21059679118753    8.49805511435803
H        -1.85364198868749   -6.28492937965819    9.35230569340687
H        -1.77450353244876   -5.51297787075254    8.02079189544263
O         1.05060470754899   -2.55828275840409   -5.27830409026075
H         1.69626900001852   -1.84421614700071   -5.31118036168430
H         1.41735466010059   -3.26412791314688   -4.69612741868514
O        -8.77903978151604    0.74660491198268    2.08428107496045
H        -9.08097311225625   -0.08350266448372    1.69602505261975
H        -8.89505598294335    1.44918248981677    1.40900331747213
O        -6.71353454010266    2.75676118905357   -7.02502438993645
H        -6.10372563880609    2.54049683973255   -6.28355159504012
H        -7.26976320868629    3.45765333515304   -6.66824542520506
O         8.92211879079854   -2.71502077562685   -2.43895947355331
H         8.01547902474428   -2.53443812707015   -2.77409534680394
H         8.83861560426378   -2.86743182864888   -1.47826490454179
O        -9.09821742356642    1.75325401352731    4.57548725352527
H        -8.86602391799603    1.12194139113884    5.28391529790170
H        -9.15082276292385    1.24390804880377    3.74513214290858
O         6.62639735379882    0.40792985031449    1.43825101498928
H         7.14505540083916    1.20633276268021    1.22730899083637
H         5.70694103749464    0.57172931673364    1.10343991745755
O         2.90098618813015    2.17352846224399   -5.15872175296752
H         3.74555886251032    2.25328597090577   -5.65191281064557
H         3.14265800496401    2.20091768999521   -4.21974482254672
O         1.79374069879636   -4.34650563406039   -0.67797514280482
H         1.62455690324993   -3.54394742065508   -1.22223730923660
H         1.24219453783570   -5.04872968471666   -1.08253387002878
O         5.99744955877819   -4.52032923676017   -2.18959052128754
H         6.73150582302676   -4.94290118989925   -1.70525840595937
H         5.20336180638197   -5.09445567693850   -2.02420161735665
O        -1.77550974615469   -1.98096799574733   -8.11486987728240
H        -0.98271647827550   -2.51782411948620   -8.29493417026083
H        -1.95541908792236   -2.16699864467618   -7.17935466976480
O         7.39256124916345   -3.47860663176058    5.46336243440622
H         6.70329933360436   -2.80559317841751    5.20473668776968
H         7.27301970832463   -4.19676422183548    4.82589805649314
O         7.38801184960358   -2.58217961995910    2.08877083947030
H         7.96354699121461   -1.96455827397268    2.58308803838207
H         7.20316378121518   -3.35639514757236    2.63831936898743
O        -6.75524562883577   -6.91788036910079    5.54778437816998
H        -7.30603281683155   -6.11929123644279    5.35934679398453
H        -7.35808233342222   -7.65990306190654    5.51033194749619
O         0.29968898974423    0.39532837180688    3.88447641376986
H         0.61607117092698   -0.10235542632409    3.10766411588194
H         0.47351744956335   -0.16774276030443    4.65771534875012
O        -2.91508515940847    7.46974063118561   -5.57756574672147
H        -3.14588709595399    7.15904130861364   -6.46351952728954
H        -2.16889775300273    6.88097896782770   -5.31833889342884
O        -1.51949669308603   -6.98099601860548    0.54704786958085
H        -2.02348439690582   -6.69503483912490   -0.23886968938922
H        -1.97703706583251   -6.59647813961068    1.31968646365536
O        -8.97308862504822    2.86733999860674    0.41521116952315
H        -8.05734878334728    2.89446010386433    0.04751071138734
H        -8.95994383832349    3.41271755175781    1.21633663003531
O         6.66706173537565    5.32942326218732    4.01048058641166
H         7.54645825819726    5.38521135747013    3.58011059342831
H         6.29622178557008    4.48814718582858    3.64916525159379
O         9.86170643677349    1.59888119524783   -0.52282401467095
H         9.51601907070219    1.17645062890904   -1.32900937944735
H        10.18667500401502    0.83361263737987   -0.00732160939167
O        -1.64562717780596    2.30362204786551   10.75315129816802
H        -1.06885820059814    3.05991073757141   10.49089366710425
H        -1.60299939899631    2.22145964306376   11.70408747903537
O        -1.95579593340912  -10.50533203933442    5.43930794852994
H        -2.53596937193870  -10.27361260667815    6.16910747118400
H        -1.15891226168263   -9.96879361783544    5.56092775085122
O         0.60566347286477   -1.28677242798144    6.08386410799065
H        -0.32544236087427   -1.31686971912525    6.38055579793110
H         0.91021292176933   -2.21137827491394    6.04771267392426
O         1.74858527163601   -5.32386183667650   -6.64448520460038
H         1.85409362890391   -6.25586375459136   -6.92598332342406
H         1.22582470129998   -4.83561152498429   -7.30638349299981
O        -4.34206635290013    4.15812727680854   -0.01015367805212
H        -5.18940287283889    3.81179623967926   -0.32408906839205
H        -4.07224956920706    4.88591745365072   -0.61100571329385
O         3.73114027784931   -4.15256681544203    1.23008285787698
H         4.48866885821230   -4.66714601186245    0.90084847863246
H         3.07213864194511   -4.16148314948842    0.51994661450343
O         3.21190849701113    8.23450796183895   -1.03876957637420
H         3.19663183136951    8.19640552167691   -0.06183123549986
H         2.30720228300158    8.41238464882301   -1.34617221063781
O         1.64509933803350    5.44268067296280    0.62736369189541
H         0.73216537539976    5.17191797176471    0.40624010654366
H         2.17205484431554    5.50036353401629   -0.19468232540762
O        -6.50659005271050    2.27644276715450    4.27118089219933
H        -6.25015546331403    1.58040625984076    3.64104674473593
H        -7.46268681133948    2.14967542592926    4.44632196833850
O        -4.86650963524663    6.51855716122663    6.76934809523994
H        -4.88992484340208    5.73767415563909    7.34582116790202
H        -4.40633091356835    7.22870781723391    7.26540746081461
O         9.09926644570434   -3.45167019983474    0.21904154606282
H         9.86550618554770   -2.89622714999731    0.40140835498673
H         8.39105534803550   -3.12253761018397    0.81893866177211
O        -5.99317950281564    4.90397001530735    4.71936662359494
H        -5.13791533303169    4.83162440700738    5.19182802847409
H        -6.22764036999080    3.98493849345758    4.50482551023572
O        -7.81903709084235    0.22650297770936    6.39122454574658
H        -7.62571398972401    0.82933782905973    7.13064481895892
H        -6.96167598706437    0.03388336192260    5.96653426763294
O         0.81794776690701   -6.70458964390749    8.58594668252481
H         1.73014320639160   -7.00036658135541    8.35494744751404
H         0.94862037507256   -5.79694367085282    8.90781958840072
O         7.01078706219389   -4.73226720701772   -4.62901327983831
H         6.55011318216961   -4.59399226139695   -3.76695680436856
H         7.90761468144311   -4.99815234398278   -4.38303550439278
O        -8.62938236548193   -1.77594613120513    1.05858206922497
H        -8.28212325573259   -2.01217221862697    1.94040790570622
H        -8.30230646478553   -2.44659468639324    0.44468634511191
O         2.02434349521052   -7.96229923727481   -6.89459045310818
H         1.44429967260508   -8.33080403136124   -6.21115828259936
H         2.92545099105825   -8.11922810805106   -6.60284797050731
O        -5.03920951792445   -2.86642722058015   -5.22436751873615
H        -5.68668649282699   -2.84776587049499   -5.96199702554332
H        -4.78228323526443   -1.93235095865574   -5.05581617430686
O        -1.58099049259487    0.19116428796191    9.06533439522629
H        -1.40715987161200    0.90872545822436    9.69417059645902
H        -1.78808807216907    0.60086404301789    8.20961287266628
O        -1.04130506722343   11.56840737160036   -0.15570044047543
H        -1.16025279322115   11.38675968566095   -1.10016866962879
H        -0.12400562694673   11.30119626415138    0.03469910576619
O        -0.55258435462085    0.42906687015721   -8.62042061599537
H        -0.50697495639634    0.42177923213685   -7.63562853301974
H        -1.02417866724290   -0.39736584398316   -8.81292607732541
O        -3.96531705887272    7.37039205116096    4.35995088019936
H        -3.87954016587416    8.30461012749271    4.61554741098243