
                                 *****************
                                 * O   R   C   A *
                                 *****************

           --- An Ab Initio, DFT and Semiempirical electronic structure package ---

                  #######################################################
                  #                        -***-                        #
                  #          Department of theory and spectroscopy      #
                  #               Directorship: Frank Neese             #
                  #        Max Planck Institute fuer Kohlenforschung    #
                  #                Kaiser Wilhelm Platz 1               #
                  #                 D-45470 Muelheim/Ruhr               #
                  #                      Germany                        #
                  #                                                     #
                  #                  All rights reserved                #
                  #                        -***-                        #
                  #######################################################


                         Program Version 4.2.0 -  RELEASE  -


 With contributions from (in alphabetic order):
   Daniel Aravena         : Magnetic Suceptibility
   Michael Atanasov       : Ab Initio Ligand Field Theory (pilot matlab implementation)
   Alexander A. Auer      : GIAO ZORA, VPT2
   Ute Becker             : Parallelization
   Giovanni Bistoni       : ED, misc. LED, open-shell LED, HFLED
   Martin Brehm           : Molecular dynamics
   Dmytro Bykov           : SCF Hessian
   Vijay G. Chilkuri      : MRCI spin determinant printing, contributions to CSF-ICE
   Dipayan Datta          : RHF DLPNO-CCSD density
   Achintya Kumar Dutta   : EOM-CC, STEOM-CC
   Dmitry Ganyushin       : Spin-Orbit,Spin-Spin,Magnetic field MRCI
   Miquel Garcia          : C-PCM Hessian, Gaussian charge scheme
   Yang Guo               : DLPNO-NEVPT2, CIM, IAO-localization
   Andreas Hansen         : Spin unrestricted coupled pair/coupled cluster methods
   Benjamin Helmich-Paris : CASSCF linear response (MC-RPA)
   Lee Huntington         : MR-EOM, pCC
   Robert Izsak           : Overlap fitted RIJCOSX, COSX-SCS-MP3, EOM
   Christian Kollmar      : KDIIS, OOCD, Brueckner-CCSD(T), CCSD density
   Simone Kossmann        : Meta GGA functionals, TD-DFT gradient, OOMP2, MP2 Hessian
   Martin Krupicka        : AUTO-CI
   Lucas Lang             : DCDCAS
   Dagmar Lenk            : GEPOL surface, SMD
   Dimitrios Liakos       : Extrapolation schemes; Compound Job, initial MDCI parallelization
   Dimitrios Manganas     : Further ROCIS development; embedding schemes
   Dimitrios Pantazis     : SARC Basis sets
   Taras Petrenko         : DFT Hessian,TD-DFT gradient, ASA, ECA, R-Raman, ABS, FL, XAS/XES, NRVS
   Peter Pinski           : DLPNO-MP2, DLPNO-MP2 Gradient
   Christoph Reimann      : Effective Core Potentials
   Marius Retegan         : Local ZFS, SOC
   Christoph Riplinger    : Optimizer, TS searches, QM/MM, DLPNO-CCSD(T), (RO)-DLPNO pert. Triples
   Tobias Risthaus        : Range-separated hybrids, TD-DFT gradient, RPA, STAB
   Michael Roemelt        : Original ROCIS implementation
   Masaaki Saitow         : Open-shell DLPNO-CCSD energy and density
   Barbara Sandhoefer     : DKH picture change effects
   Avijit Sen             : IP-ROCIS
   Kantharuban Sivalingam : CASSCF convergence, NEVPT2, FIC-MRCI
   Bernardo de Souza      : ESD, SOC TD-DFT
   Georgi Stoychev        : AutoAux, RI-MP2 NMR
   Willem Van den Heuvel  : Paramagnetic NMR
   Boris Wezisla          : Elementary symmetry handling
   Frank Wennmohs         : Technical directorship


 We gratefully acknowledge several colleagues who have allowed us to
 interface, adapt or use parts of their codes:
   Stefan Grimme, W. Hujo, H. Kruse,             : VdW corrections, initial TS optimization,
                  C. Bannwarth                     DFT functionals, gCP, sTDA/sTD-DF
   Ed Valeev, F. Pavosevic, A. Kumar             : LibInt (2-el integral package), F12 methods
   Garnet Chan, S. Sharma, J. Yang, R. Olivares  : DMRG
   Ulf Ekstrom                                   : XCFun DFT Library
   Mihaly Kallay                                 : mrcc  (arbitrary order and MRCC methods)
   Andreas Klamt, Michael Diedenhofen            : otool_cosmo (COSMO solvation model)
   Jiri Pittner, Ondrej Demel                    : Mk-CCSD
   Frank Weinhold                                : gennbo (NPA and NBO analysis)
   Christopher J. Cramer and Donald G. Truhlar   : smd solvation model
   Lars Goerigk                                  : TD-DFT with DH, B97 family of functionals
   V. Asgeirsson, H. Jonsson                     : NEB implementation
   FAccTs GmbH                                   : IRC, NEB, NEB-TS, Multilevel, MM, QM/MM, CI optimization
   S Lehtola, MJT Oliveira, MAL Marques          : LibXC Library


 Your calculation uses the libint2 library for the computation of 2-el integrals
 For citations please refer to: http://libint.valeyev.net

 Your ORCA version has been built with support for libXC version: 4.2.3
 For citations please refer to: https://tddft.org/programs/libxc/

 This ORCA versions uses:
   CBLAS   interface :  Fast vector & matrix operations
   LAPACKE interface :  Fast linear algebra routines
   SCALAPACK package :  Parallel linear algebra routines


----- Orbital basis set information -----
Your calculation utilizes the basis: def2-TZVP
   F. Weigend and R. Ahlrichs, Phys. Chem. Chem. Phys. 7, 3297 (2005).

================================================================================
                                        WARNINGS
                       Please study these warnings very carefully!
================================================================================


WARNING: The frozen-core approximation for MP2-gradient calculations is turned on by default.

INFO   : the flag for use of LIBINT has been found!

================================================================================
                                       INPUT FILE
================================================================================
NAME = 12h2o.su.etal.mol5,6-orca.engrad-mp2.def2tzvp.frozencore.inp
|  1> # 12h2o.su.etal.mol5,6
|  2> ! MP2 def2-TZVP EnGrad TightSCF
|  3> 
|  4> %pal
|  5>     nprocs 6
|  6> end
|  7> 
|  8> %maxcore 8000
|  9> 
| 10> %scf
| 11>     ConvForced true
| 12> end
| 13> 
| 14> *xyz 0 1
| 15> O   0.885520000  -1.737840000   0.052730000
| 16> H   1.284090000  -0.839590000   0.017130000
| 17> H   1.032320000  -2.090180000  -0.841890000
| 18> O   1.737840000   0.885520000  -0.052730000
| 19> H   2.090180000   1.032320000   0.841890000
| 20> H   0.839590000   1.284090000  -0.017130000
| 21> *
| 22> 
| 23>                          ****END OF INPUT****
================================================================================

                     *******************************
                     * Energy+Gradient Calculation *
                     *******************************

---------------------------------
CARTESIAN COORDINATES (ANGSTROEM)
---------------------------------
  O      0.885520   -1.737840    0.052730
  H      1.284090   -0.839590    0.017130
  H      1.032320   -2.090180   -0.841890
  O      1.737840    0.885520   -0.052730
  H      2.090180    1.032320    0.841890
  H      0.839590    1.284090   -0.017130

----------------------------
CARTESIAN COORDINATES (A.U.)
----------------------------
  NO LB      ZA    FRAG     MASS         X           Y           Z
   0 O     8.0000    0    15.999    1.673390   -3.284042    0.099645
   1 H     1.0000    0     1.008    2.426578   -1.586595    0.032371
   2 H     1.0000    0     1.008    1.950802   -3.949868   -1.590942
   3 O     8.0000    0    15.999    3.284042    1.673390   -0.099645
   4 H     1.0000    0     1.008    3.949868    1.950802    1.590942
   5 H     1.0000    0     1.008    1.586595    2.426578   -0.032371

--------------------------------
INTERNAL COORDINATES (ANGSTROEM)
--------------------------------
 O      0   0   0     0.000000000000     0.00000000     0.00000000
 H      1   0   0     0.983350632989     0.00000000     0.00000000
 H      1   2   0     0.972645187106   103.67575169     0.00000000
 O      2   1   3     1.785153773264   170.81379649   105.82965911
 H      4   2   1     0.972645187106   101.65007623   109.44492584
 H      4   2   1     0.983350632989    99.09581498     3.33484705

---------------------------
INTERNAL COORDINATES (A.U.)
---------------------------
 O      0   0   0     0.000000000000     0.00000000     0.00000000
 H      1   0   0     1.858263389967     0.00000000     0.00000000
 H      1   2   0     1.838033029106   103.67575169     0.00000000
 O      2   1   3     3.373451738406   170.81379649   105.82965911
 H      4   2   1     1.838033029106   101.65007623   109.44492584
 H      4   2   1     1.858263389967    99.09581498     3.33484705

---------------------
BASIS SET INFORMATION
---------------------
There are 2 groups of distinct atoms

 Group   1 Type O   : 11s6p2d1f contracted to 5s3p2d1f pattern {62111/411/11/1}
 Group   2 Type H   : 5s1p contracted to 3s1p pattern {311/1}

Atom   0O    basis set group =>   1
Atom   1H    basis set group =>   2
Atom   2H    basis set group =>   2
Atom   3O    basis set group =>   1
Atom   4H    basis set group =>   2
Atom   5H    basis set group =>   2


           ************************************************************
           *        Program running with 6 parallel MPI-processes     *
           *              working on a common directory               *
           ************************************************************
------------------------------------------------------------------------------
                           ORCA GTO INTEGRAL CALCULATION
------------------------------------------------------------------------------

                         BASIS SET STATISTICS AND STARTUP INFO

 # of primitive gaussian shells          ...   64
 # of primitive gaussian functions       ...  124
 # of contracted shells                  ...   38
 # of contracted basis functions         ...   86
 Highest angular momentum                ...    3
 Maximum contraction depth               ...    6
 Integral package used                   ... LIBINT
 Integral threshhold            Thresh   ...  2.500e-11
 Primitive cut-off              TCut     ...  2.500e-12


------------------------------ INTEGRAL EVALUATION ----------------------------


 * One electron integrals 
 Pre-screening matrix                    ... done
 Shell pair data                         ... done (   0.000 sec)



           ************************************************************
           *        Program running with 6 parallel MPI-processes     *
           *              working on a common directory               *
           ************************************************************
-------------------------------------------------------------------------------
                                 ORCA SCF
-------------------------------------------------------------------------------

------------
SCF SETTINGS
------------
Hamiltonian:
 Ab initio Hamiltonian  Method          .... Hartree-Fock(GTOs)


General Settings:
 Integral files         IntName         .... 12h2o.su.etal.mol5,6-orca.engrad-mp2.def2tzvp.frozencore
 Hartree-Fock type      HFTyp           .... RHF
 Total Charge           Charge          ....    0
 Multiplicity           Mult            ....    1
 Number of Electrons    NEL             ....   20
 Basis Dimension        Dim             ....   86
 Nuclear Repulsion      ENuc            ....     37.5202186877 Eh

Convergence Acceleration:
 DIIS                   CNVDIIS         .... on
   Start iteration      DIISMaxIt       ....    12
   Startup error        DIISStart       ....  0.200000
   # of expansion vecs  DIISMaxEq       ....     5
   Bias factor          DIISBfac        ....   1.050
   Max. coefficient     DIISMaxC        ....  10.000
 Newton-Raphson         CNVNR           .... off
 SOSCF                  CNVSOSCF        .... on
   Start iteration      SOSCFMaxIt      ....   150
   Startup grad/error   SOSCFStart      ....  0.003300
 Level Shifting         CNVShift        .... on
   Level shift para.    LevelShift      ....    0.2500
   Turn off err/grad.   ShiftErr        ....    0.0010
 Zerner damping         CNVZerner       .... off
 Static damping         CNVDamp         .... on
   Fraction old density DampFac         ....    0.7000
   Max. Damping (<1)    DampMax         ....    0.9800
   Min. Damping (>=0)   DampMin         ....    0.0000
   Turn off err/grad.   DampErr         ....    0.1000
 Fernandez-Rico         CNVRico         .... off

SCF Procedure:
 Maximum # iterations   MaxIter         ....   125
 SCF integral mode      SCFMode         .... Direct
   Integral package                     .... LIBINT
 Reset frequency        DirectResetFreq ....    20
 Integral Threshold     Thresh          ....  2.500e-11 Eh
 Primitive CutOff       TCut            ....  2.500e-12 Eh

Convergence Tolerance:
 Convergence Check Mode ConvCheckMode   .... Total+1el-Energy
 Convergence forced     ConvForced      .... 1
 Energy Change          TolE            ....  1.000e-08 Eh
 1-El. energy change                    ....  1.000e-05 Eh
 Orbital Gradient       TolG            ....  1.000e-05
 Orbital Rotation angle TolX            ....  1.000e-05
 DIIS Error             TolErr          ....  5.000e-07


Diagonalization of the overlap matrix:
Smallest eigenvalue                        ... 5.216e-03
Time for diagonalization                   ...    0.118 sec
Threshold for overlap eigenvalues          ... 1.000e-08
Number of eigenvalues below threshold      ... 0
Time for construction of square roots      ...    0.001 sec
Total time needed                          ...    0.119 sec

-------------------
DFT GRID GENERATION
-------------------

General Integration Accuracy     IntAcc      ...  4.340
Radial Grid Type                 RadialGrid  ... Gauss-Chebyshev
Angular Grid (max. acc.)         AngularGrid ... Lebedev-110
Angular grid pruning method      GridPruning ... 3 (G Style)
Weight generation scheme         WeightScheme... Becke
Basis function cutoff            BFCut       ...    1.0000e-11
Integration weight cutoff        WCut        ...    1.0000e-14
Grids for H and He will be reduced by one unit

# of grid points (after initial pruning)     ...   6608 (   0.0 sec)
# of grid points (after weights+screening)   ...   6504 (   0.0 sec)
nearest neighbour list constructed           ...    0.0 sec
Grid point re-assignment to atoms done       ...    0.0 sec
Grid point division into batches done        ...    0.0 sec
Reduced shell lists constructed in    0.0 sec

Total number of grid points                  ...     6504
Total number of batches                      ...      104
Average number of points per batch           ...       62
Average number of grid points per atom       ...     1084
Average number of shells per batch           ...    27.95 (73.55%)
Average number of basis functions per batch  ...    62.26 (72.40%)
Average number of large shells per batch     ...    23.05 (82.49%)
Average number of large basis fcns per batch ...    49.05 (78.78%)
Maximum spatial batch extension              ...  20.95, 15.74, 15.11 au
Average spatial batch extension              ...   0.85,  0.63,  0.80 au

Time for grid setup =    0.037 sec

------------------------------
INITIAL GUESS: MODEL POTENTIAL
------------------------------
Loading Hartree-Fock densities                     ... done
Calculating cut-offs                               ... done
Setting up the integral package                    ... done
Initializing the effective Hamiltonian             ... done
Starting the Coulomb interaction                   ... done (   0.0 sec)
Reading the grid                                   ... done
Mapping shells                                     ... done
Starting the XC term evaluation                    ... done (   0.0 sec)
Transforming the Hamiltonian                       ... done (   0.0 sec)
Diagonalizing the Hamiltonian                      ... done (   0.0 sec)
Back transforming the eigenvectors                 ... done (   0.0 sec)
Now organizing SCF variables                       ... done
                      ------------------
                      INITIAL GUESS DONE (   0.1 sec)
                      ------------------
--------------
SCF ITERATIONS
--------------
ITER       Energy         Delta-E        Max-DP      RMS-DP      [F,P]     Damp
               ***  Starting incremental Fock matrix formation  ***
  0   -151.9314394189   0.000000000000 0.04371464  0.00168818  0.3524861 0.7000
  1   -152.0050949353  -0.073655516416 0.02901695  0.00116284  0.2165930 0.7000
                               ***Turning on DIIS***
  2   -152.0438855273  -0.038790592018 0.01666118  0.00064339  0.1635452 0.7000
  3   -152.3855876480  -0.341702120743 0.00733204  0.00029077  0.1218330 0.7000
  4   -152.3160287413   0.069558906748 0.01568919  0.00067943  0.0861955 0.0000
  5   -152.1333325640   0.182696177316 0.00220647  0.00011322  0.0053616 0.0000
                      *** Initiating the SOSCF procedure ***
                           *** Shutting down DIIS ***
                      *** Re-Reading the Fockian *** 
                      *** Removing any level shift *** 
ITER      Energy       Delta-E        Grad      Rot      Max-DP    RMS-DP
  6   -152.12217431   0.0111582573  0.001010  0.001010  0.001437  0.000069
               *** Restarting incremental Fock matrix formation ***
  7   -152.11857124   0.0036030618  0.000364  0.000501  0.000684  0.000029
  8   -152.11857434  -0.0000030953  0.000180  0.000392  0.000510  0.000024
  9   -152.11857507  -0.0000007314  0.000067  0.000047  0.000104  0.000004
 10   -152.11857513  -0.0000000570  0.000014  0.000009  0.000020  0.000001
                  ***Gradient check signals convergence***
              ***Rediagonalizing the Fockian in SOSCF/NRSCF***

               *****************************************************
               *                     SUCCESS                       *
               *           SCF CONVERGED AFTER  11 CYCLES          *
               *****************************************************


----------------
TOTAL SCF ENERGY
----------------

Total Energy       :         -152.11857513 Eh           -4139.35687 eV

Components:
Nuclear Repulsion  :           37.52021869 Eh            1020.97706 eV
Electronic Energy  :         -189.63879382 Eh           -5160.33393 eV
One Electron Energy:         -284.46359412 Eh           -7740.64792 eV
Two Electron Energy:           94.82480030 Eh            2580.31400 eV

Virial components:
Potential Energy   :         -304.01593335 Eh           -8272.69412 eV
Kinetic Energy     :          151.89735822 Eh            4133.33725 eV
Virial Ratio       :            2.00145636


---------------
SCF CONVERGENCE
---------------

  Last Energy change         ...   -1.5431e-09  Tolerance :   1.0000e-08
  Last MAX-Density change    ...    4.2109e-06  Tolerance :   1.0000e-07
  Last RMS-Density change    ...    1.9043e-07  Tolerance :   5.0000e-09
  Last Orbital Gradient      ...    2.0175e-06  Tolerance :   1.0000e-05
  Last Orbital Rotation      ...    2.3010e-06  Tolerance :   1.0000e-05

             **** THE GBW FILE WAS UPDATED (12h2o.su.etal.mol5,6-orca.engrad-mp2.def2tzvp.frozencore.gbw) ****
             **** DENSITY FILE WAS UPDATED (12h2o.su.etal.mol5,6-orca.engrad-mp2.def2tzvp.frozencore.scfp) ****
             **** ENERGY FILE WAS UPDATED (12h2o.su.etal.mol5,6-orca.engrad-mp2.def2tzvp.frozencore.en.tmp) ****
             **** THE GBW FILE WAS UPDATED (12h2o.su.etal.mol5,6-orca.engrad-mp2.def2tzvp.frozencore.gbw) ****
             **** DENSITY FILE WAS UPDATED (12h2o.su.etal.mol5,6-orca.engrad-mp2.def2tzvp.frozencore.scfp) ****
----------------
ORBITAL ENERGIES
----------------

  NO   OCC          E(Eh)            E(eV) 
   0   2.0000     -20.597582      -560.4887 
   1   2.0000     -20.526528      -558.5552 
   2   2.0000      -1.378108       -37.5002 
   3   2.0000      -1.307835       -35.5880 
   4   2.0000      -0.736039       -20.0287 
   5   2.0000      -0.684643       -18.6301 
   6   2.0000      -0.616519       -16.7763 
   7   2.0000      -0.563785       -15.3414 
   8   2.0000      -0.521136       -14.1808 
   9   2.0000      -0.474836       -12.9209 
  10   0.0000       0.109147         2.9700 
  11   0.0000       0.172814         4.7025 
  12   0.0000       0.182850         4.9756 
  13   0.0000       0.312757         8.5105 
  14   0.0000       0.479395        13.0450 
  15   0.0000       0.500221        13.6117 
  16   0.0000       0.540499        14.7077 
  17   0.0000       0.588743        16.0205 
  18   0.0000       0.621844        16.9212 
  19   0.0000       0.638821        17.3832 
  20   0.0000       0.641541        17.4572 
  21   0.0000       0.715720        19.4757 
  22   0.0000       0.740061        20.1381 
  23   0.0000       0.781368        21.2621 
  24   0.0000       0.936781        25.4911 
  25   0.0000       1.003794        27.3146 
  26   0.0000       1.358944        36.9787 
  27   0.0000       1.391476        37.8640 
  28   0.0000       1.451581        39.4995 
  29   0.0000       1.492429        40.6111 
  30   0.0000       1.558293        42.4033 
  31   0.0000       1.588851        43.2348 
  32   0.0000       1.783253        48.5248 
  33   0.0000       1.806778        49.1649 
  34   0.0000       1.878718        51.1225 
  35   0.0000       1.985743        54.0348 
  36   0.0000       2.060608        56.0720 
  37   0.0000       2.118095        57.6363 
  38   0.0000       2.269459        61.7551 
  39   0.0000       2.311419        62.8969 
  40   0.0000       2.340659        63.6926 
  41   0.0000       2.387262        64.9607 
  42   0.0000       2.440996        66.4229 
  43   0.0000       2.527163        68.7676 
  44   0.0000       2.554478        69.5109 
  45   0.0000       2.624631        71.4198 
  46   0.0000       2.648479        72.0688 
  47   0.0000       2.731815        74.3365 
  48   0.0000       2.905540        79.0638 
  49   0.0000       2.910975        79.2117 
  50   0.0000       2.934645        79.8557 
  51   0.0000       3.001376        81.6716 
  52   0.0000       3.076009        83.7025 
  53   0.0000       3.188370        86.7599 
  54   0.0000       3.222778        87.6963 
  55   0.0000       3.411560        92.8333 
  56   0.0000       4.000860       108.8689 
  57   0.0000       4.077122       110.9441 
  58   0.0000       4.264255       116.0363 
  59   0.0000       4.358620       118.6041 
  60   0.0000       5.510142       149.9386 
  61   0.0000       5.579102       151.8151 
  62   0.0000       5.635714       153.3556 
  63   0.0000       5.684368       154.6795 
  64   0.0000       5.785228       157.4241 
  65   0.0000       5.810199       158.1035 
  66   0.0000       5.850183       159.1916 
  67   0.0000       5.853363       159.2781 
  68   0.0000       5.889111       160.2509 
  69   0.0000       5.924979       161.2269 
  70   0.0000       6.432674       175.0420 
  71   0.0000       6.495901       176.7624 
  72   0.0000       6.665844       181.3868 
  73   0.0000       6.738459       183.3628 
  74   0.0000       6.836286       186.0248 
  75   0.0000       6.863008       186.7519 
  76   0.0000       6.876402       187.1164 
  77   0.0000       6.936432       188.7499 
  78   0.0000       6.987755       190.1465 
  79   0.0000       6.991048       190.2361 
  80   0.0000       7.351982       200.0576 
  81   0.0000       7.453992       202.8334 
  82   0.0000       7.477672       203.4778 
  83   0.0000       7.579164       206.2395 
  84   0.0000      44.860334      1220.7118 
  85   0.0000      44.948896      1223.1216 

                    ********************************
                    * MULLIKEN POPULATION ANALYSIS *
                    ********************************

-----------------------
MULLIKEN ATOMIC CHARGES
-----------------------
   0 O :   -0.736708
   1 H :    0.374716
   2 H :    0.335717
   3 O :   -0.707510
   4 H :    0.366296
   5 H :    0.367489
Sum of atomic charges:   -0.0000000

--------------------------------
MULLIKEN REDUCED ORBITAL CHARGES
--------------------------------
  0 O s       :     3.810706  s :     3.810706
      pz      :     1.524305  p :     4.899394
      px      :     1.877604
      py      :     1.497485
      dz2     :     0.011542  d :     0.025152
      dxz     :     0.002607
      dyz     :     0.002894
      dx2y2   :     0.003029
      dxy     :     0.005080
      f0      :     0.000187  f :     0.001456
      f+1     :     0.000126
      f-1     :     0.000454
      f+2     :     0.000078
      f-2     :     0.000042
      f+3     :     0.000451
      f-3     :     0.000118
  1 H s       :     0.571093  s :     0.571093
      pz      :     0.009751  p :     0.054191
      px      :     0.015799
      py      :     0.028640
  2 H s       :     0.619406  s :     0.619406
      pz      :     0.018296  p :     0.044877
      px      :     0.014317
      py      :     0.012264
  3 O s       :     3.808039  s :     3.808039
      pz      :     1.553577  p :     4.871636
      px      :     1.470036
      py      :     1.848022
      dz2     :     0.012218  d :     0.026393
      dxz     :     0.002981
      dyz     :     0.002417
      dx2y2   :     0.003650
      dxy     :     0.005126
      f0      :     0.000170  f :     0.001443
      f+1     :     0.000474
      f-1     :     0.000119
      f+2     :     0.000070
      f-2     :     0.000042
      f+3     :     0.000110
      f-3     :     0.000457
  4 H s       :     0.589918  s :     0.589918
      pz      :     0.019018  p :     0.043786
      px      :     0.011501
      py      :     0.013267
  5 H s       :     0.589973  s :     0.589973
      pz      :     0.009828  p :     0.042538
      px      :     0.018705
      py      :     0.014005


                     *******************************
                     * LOEWDIN POPULATION ANALYSIS *
                     *******************************

----------------------
LOEWDIN ATOMIC CHARGES
----------------------
   0 O :   -0.363142
   1 H :    0.149099
   2 H :    0.157962
   3 O :   -0.298161
   4 H :    0.173281
   5 H :    0.180961

-------------------------------
LOEWDIN REDUCED ORBITAL CHARGES
-------------------------------
  0 O s       :     3.472795  s :     3.472795
      pz      :     1.537091  p :     4.857044
      px      :     1.839564
      py      :     1.480389
      dz2     :     0.015083  d :     0.031228
      dxz     :     0.001763
      dyz     :     0.004321
      dx2y2   :     0.003897
      dxy     :     0.006164
      f0      :     0.000395  f :     0.002074
      f+1     :     0.000197
      f-1     :     0.000759
      f+2     :     0.000049
      f-2     :     0.000046
      f+3     :     0.000562
      f-3     :     0.000067
  1 H s       :     0.667288  s :     0.667288
      pz      :     0.029245  p :     0.183613
      px      :     0.052666
      py      :     0.101701
  2 H s       :     0.683609  s :     0.683609
      pz      :     0.078281  p :     0.158429
      px      :     0.043531
      py      :     0.036617
  3 O s       :     3.471220  s :     3.471220
      pz      :     1.548518  p :     4.791355
      px      :     1.455630
      py      :     1.787207
      dz2     :     0.015709  d :     0.033463
      dxz     :     0.004134
      dyz     :     0.001521
      dx2y2   :     0.005435
      dxy     :     0.006664
      f0      :     0.000364  f :     0.002123
      f+1     :     0.000759
      f-1     :     0.000215
      f+2     :     0.000042
      f-2     :     0.000045
      f+3     :     0.000074
      f-3     :     0.000624
  4 H s       :     0.668125  s :     0.668125
      pz      :     0.080299  p :     0.158594
      px      :     0.035415
      py      :     0.042880
  5 H s       :     0.665540  s :     0.665540
      pz      :     0.029189  p :     0.153499
      px      :     0.074973
      py      :     0.049338


                      *****************************
                      * MAYER POPULATION ANALYSIS *
                      *****************************

  NA   - Mulliken gross atomic population
  ZA   - Total nuclear charge
  QA   - Mulliken gross atomic charge
  VA   - Mayer's total valence
  BVA  - Mayer's bonded valence
  FA   - Mayer's free valence

  ATOM       NA         ZA         QA         VA         BVA        FA
  0 O      8.7367     8.0000    -0.7367     1.7227     1.7227    -0.0000
  1 H      0.6253     1.0000     0.3747     0.8954     0.8954    -0.0000
  2 H      0.6643     1.0000     0.3357     0.9010     0.9010    -0.0000
  3 O      8.7075     8.0000    -0.7075     1.7805     1.7805    -0.0000
  4 H      0.6337     1.0000     0.3663     0.8792     0.8792    -0.0000
  5 H      0.6325     1.0000     0.3675     0.8789     0.8789    -0.0000

  Mayer bond orders larger than 0.100000
B(  0-O ,  1-H ) :   0.8402 B(  0-O ,  2-H ) :   0.8976 B(  3-O ,  4-H ) :   0.8738 
B(  3-O ,  5-H ) :   0.8715 

-------
TIMINGS
-------

Total SCF time: 0 days 0 hours 0 min 2 sec 

Total time                  ....       2.204 sec
Sum of individual times     ....       1.889 sec  ( 85.7%)

Fock matrix formation       ....       1.713 sec  ( 77.7%)
Diagonalization             ....       0.008 sec  (  0.3%)
Density matrix formation    ....       0.014 sec  (  0.6%)
Population analysis         ....       0.002 sec  (  0.1%)
Initial guess               ....       0.097 sec  (  4.4%)
Orbital Transformation      ....       0.000 sec  (  0.0%)
Orbital Orthonormalization  ....       0.000 sec  (  0.0%)
DIIS solution               ....       0.003 sec  (  0.2%)
SOSCF solution              ....       0.016 sec  (  0.7%)


           ************************************************************
           *        Program running with 6 parallel MPI-processes     *
           *              working on a common directory               *
           ************************************************************

------------------------------------------------------------------------------
                                ORCA  MP2 
------------------------------------------------------------------------------

Freezing NCore=4 chemical core electrons
MP2 will be done in the AO integral direct mode
The Q1-step will be done using symmetric double matrices
Dimension of the basis                    ...   86
Memory devoted for MP2                    ... 8000 MB   
Memory needed for all in one shot         ...    6 MB
Number of MOs that can be treated together... 3258      
MP2 density construction                  ... relaxed
The MP2 gradient is requested => amplitudes will be stored on disk
Total number of MOs              ...    8
Number of MOs treated per batch  ...    2 
Number of batches necessary      ...    1 
OPERATORS   0/  0 PASS   0
-----------------------------------------------
 MP2 CORRELATION ENERGY   :     -0.514464597 Eh
-----------------------------------------------


---------------------
MP2 DENSITY FORMATION
---------------------

Completing the external part of the density      ... done
Storing the unrelaxed density                    ... done

Calculating G(D)                                 ... done
Completing the Lagrangian                        ... done
Solving the Z-vector equations                   ... 

------------------------------------------------------------------------------
                           ORCA CP-SCF CALCULATION
------------------------------------------------------------------------------

Input orbitals are from        ... 12h2o.su.etal.mol5,6-orca.engrad-mp2.def2tzvp.frozencore.gbw
Input Perturbation             ... 12h2o.su.etal.mol5,6-orca.engrad-mp2.def2tzvp.frozencore.pin.tmp
Wavefunction output            ... 12h2o.su.etal.mol5,6-orca.engrad-mp2.def2tzvp.frozencore.pout.tmp
Perturbation mode              ... Real perturbation (singlet)
Solver                         ... POPLE
Max. number of iterations      ... 128
Convergence tolerance          ... 1.000e-08
Integral handling              ... Direct
Number of perturbations        ... 1
Number of operators            ... 1
Orbital ranges used for CP-SCF:
 Operator 0:  Orbitals   0...  9  to  10... 85
Variables per vector in CP-SCF ... 760
Number of vectors sought       ... 1
     CP-SCF ITERATION   0: 
     CP-SCF ITERATION   1:      0.000239366019
     CP-SCF ITERATION   2:      0.000005004888
     CP-SCF ITERATION   3:      0.000000103952
     CP-SCF ITERATION   4:      0.000000006290
                                                 ... done
Finalizing the relaxed density                   ... done
Transforming P to the AO basis                   ... done
Storing the relaxed density                      ... done

------------------------------------
ENERGY WEIGHTED DENSITY FINALIZATION
------------------------------------

Gathering the parts of the W-matrix              ...                                                      done
Forming the Z-density                            ... done
Transforming Z to the AO basis                   ... done
Calculating G(Z)                                 ... done
Finalizing the W-matrix                          ...                                                      done
Transforming W to the AO basis and storing       ... done

                *********************************************
                * UNRELAXED MP2 DENSITY POPULATION ANALYSIS *
                *********************************************

------------------------------------------------------------------------------
                           ORCA POPULATION ANALYSIS
------------------------------------------------------------------------------
Input electron density              ... 12h2o.su.etal.mol5,6-orca.engrad-mp2.def2tzvp.frozencore.pmp2ur
BaseName (.gbw .S,...)              ... 12h2o.su.etal.mol5,6-orca.engrad-mp2.def2tzvp.frozencore

                    ********************************
                    * MULLIKEN POPULATION ANALYSIS *
                    ********************************

-----------------------
MULLIKEN ATOMIC CHARGES
-----------------------
   0 O :   -0.731320
   1 H :    0.370740
   2 H :    0.333317
   3 O :   -0.701548
   4 H :    0.363900
   5 H :    0.364911
Sum of atomic charges:   -0.0000000

--------------------------------
MULLIKEN REDUCED ORBITAL CHARGES
--------------------------------
  0 O s       :     3.805720  s :     3.805720
      pz      :     1.515240  p :     4.869677
      px      :     1.865881
      py      :     1.488556
      dz2     :     0.016596  d :     0.051904
      dxz     :     0.008082
      dyz     :     0.008225
      dx2y2   :     0.008521
      dxy     :     0.010479
      f0      :     0.000566  f :     0.004019
      f+1     :     0.000494
      f-1     :     0.000819
      f+2     :     0.000440
      f-2     :     0.000407
      f+3     :     0.000808
      f-3     :     0.000485
  1 H s       :     0.573367  s :     0.573367
      pz      :     0.010577  p :     0.055894
      px      :     0.016526
      py      :     0.028791
  2 H s       :     0.620079  s :     0.620079
      pz      :     0.018462  p :     0.046604
      px      :     0.015212
      py      :     0.012929
  3 O s       :     3.802940  s :     3.802940
      pz      :     1.544208  p :     4.841380
      px      :     1.461584
      py      :     1.835588
      dz2     :     0.017274  d :     0.053216
      dxz     :     0.008250
      dyz     :     0.007961
      dx2y2   :     0.009163
      dxy     :     0.010568
      f0      :     0.000552  f :     0.004012
      f+1     :     0.000836
      f-1     :     0.000493
      f+2     :     0.000433
      f-2     :     0.000407
      f+3     :     0.000479
      f-3     :     0.000813
  4 H s       :     0.590735  s :     0.590735
      pz      :     0.019164  p :     0.045364
      px      :     0.012092
      py      :     0.014108
  5 H s       :     0.590985  s :     0.590985
      pz      :     0.010633  p :     0.044104
      px      :     0.018742
      py      :     0.014729


                     *******************************
                     * LOEWDIN POPULATION ANALYSIS *
                     *******************************

----------------------
LOEWDIN ATOMIC CHARGES
----------------------
   0 O :   -0.360644
   1 H :    0.146719
   2 H :    0.156520
   3 O :   -0.293996
   4 H :    0.171962
   5 H :    0.179439

-------------------------------
LOEWDIN REDUCED ORBITAL CHARGES
-------------------------------
  0 O s       :     3.469066  s :     3.469066
      pz      :     1.527681  p :     4.827657
      px      :     1.828415
      py      :     1.471561
      dz2     :     0.020788  d :     0.059091
      dxz     :     0.007172
      dyz     :     0.009665
      dx2y2   :     0.009572
      dxy     :     0.011894
      f0      :     0.000805  f :     0.004831
      f+1     :     0.000582
      f-1     :     0.001193
      f+2     :     0.000418
      f-2     :     0.000417
      f+3     :     0.000973
      f-3     :     0.000444
  1 H s       :     0.666856  s :     0.666856
      pz      :     0.030053  p :     0.186425
      px      :     0.053546
      py      :     0.102826
  2 H s       :     0.681698  s :     0.681698
      pz      :     0.079996  p :     0.161782
      px      :     0.044343
      py      :     0.037443
  3 O s       :     3.467317  s :     3.467317
      pz      :     1.538910  p :     4.760479
      px      :     1.446855
      py      :     1.774714
      dz2     :     0.021403  d :     0.061313
      dxz     :     0.009426
      dyz     :     0.006985
      dx2y2   :     0.011113
      dxy     :     0.012386
      f0      :     0.000775  f :     0.004886
      f+1     :     0.001190
      f-1     :     0.000603
      f+2     :     0.000413
      f-2     :     0.000416
      f+3     :     0.000454
      f-3     :     0.001036
  4 H s       :     0.666404  s :     0.666404
      pz      :     0.081819  p :     0.161634
      px      :     0.036149
      py      :     0.043665
  5 H s       :     0.664008  s :     0.664008
      pz      :     0.029969  p :     0.156554
      px      :     0.076314
      py      :     0.050271


                      *****************************
                      * MAYER POPULATION ANALYSIS *
                      *****************************

  NA   - Mulliken gross atomic population
  ZA   - Total nuclear charge
  QA   - Mulliken gross atomic charge
  VA   - Mayer's total valence
  BVA  - Mayer's bonded valence
  FA   - Mayer's free valence

  ATOM       NA         ZA         QA         VA         BVA        FA
  0 O      8.7313     8.0000    -0.7313     2.0314     1.6424     0.3890
  1 H      0.6293     1.0000     0.3707     0.9026     0.8562     0.0464
  2 H      0.6667     1.0000     0.3333     0.9071     0.8586     0.0485
  3 O      8.7015     8.0000    -0.7015     2.0863     1.6990     0.3873
  4 H      0.6361     1.0000     0.3639     0.8850     0.8390     0.0459
  5 H      0.6351     1.0000     0.3649     0.8848     0.8380     0.0468

  Mayer bond orders larger than 0.100000
B(  0-O ,  1-H ) :   0.8024 B(  0-O ,  2-H ) :   0.8556 B(  3-O ,  4-H ) :   0.8340 
B(  3-O ,  5-H ) :   0.8311 


                *******************************************
                * RELAXED MP2 DENSITY POPULATION ANALYSIS *
                *******************************************

------------------------------------------------------------------------------
                           ORCA POPULATION ANALYSIS
------------------------------------------------------------------------------
Input electron density              ... 12h2o.su.etal.mol5,6-orca.engrad-mp2.def2tzvp.frozencore.pmp2re
BaseName (.gbw .S,...)              ... 12h2o.su.etal.mol5,6-orca.engrad-mp2.def2tzvp.frozencore

                    ********************************
                    * MULLIKEN POPULATION ANALYSIS *
                    ********************************

-----------------------
MULLIKEN ATOMIC CHARGES
-----------------------
   0 O :   -0.714324
   1 H :    0.350844
   2 H :    0.327433
   3 O :   -0.680233
   4 H :    0.357837
   5 H :    0.358443
Sum of atomic charges:   -0.0000000

--------------------------------
MULLIKEN REDUCED ORBITAL CHARGES
--------------------------------
  0 O s       :     3.806567  s :     3.806567
      pz      :     1.508622  p :     4.853928
      px      :     1.860375
      py      :     1.484931
      dz2     :     0.015403  d :     0.049877
      dxz     :     0.008115
      dyz     :     0.007976
      dx2y2   :     0.008327
      dxy     :     0.010055
      f0      :     0.000553  f :     0.003952
      f+1     :     0.000488
      f-1     :     0.000792
      f+2     :     0.000440
      f-2     :     0.000406
      f+3     :     0.000790
      f-3     :     0.000484
  1 H s       :     0.592810  s :     0.592810
      pz      :     0.011269  p :     0.056346
      px      :     0.017120
      py      :     0.027957
  2 H s       :     0.625175  s :     0.625175
      pz      :     0.017823  p :     0.047392
      px      :     0.016222
      py      :     0.013347
  3 O s       :     3.806792  s :     3.806792
      pz      :     1.538515  p :     4.818427
      px      :     1.458137
      py      :     1.821776
      dz2     :     0.016060  d :     0.051076
      dxz     :     0.007999
      dyz     :     0.008022
      dx2y2   :     0.008893
      dxy     :     0.010102
      f0      :     0.000537  f :     0.003938
      f+1     :     0.000808
      f-1     :     0.000487
      f+2     :     0.000433
      f-2     :     0.000405
      f+3     :     0.000478
      f-3     :     0.000792
  4 H s       :     0.596149  s :     0.596149
      pz      :     0.018506  p :     0.046014
      px      :     0.012440
      py      :     0.015068
  5 H s       :     0.596853  s :     0.596853
      pz      :     0.011332  p :     0.044703
      px      :     0.017938
      py      :     0.015433


                     *******************************
                     * LOEWDIN POPULATION ANALYSIS *
                     *******************************

----------------------
LOEWDIN ATOMIC CHARGES
----------------------
   0 O :   -0.363356
   1 H :    0.140443
   2 H :    0.158244
   3 O :   -0.289808
   4 H :    0.173610
   5 H :    0.180868

-------------------------------
LOEWDIN REDUCED ORBITAL CHARGES
-------------------------------
  0 O s       :     3.470697  s :     3.470697
      pz      :     1.529077  p :     4.829680
      px      :     1.826163
      py      :     1.474440
      dz2     :     0.020179  d :     0.058118
      dxz     :     0.007227
      dyz     :     0.009430
      dx2y2   :     0.009514
      dxy     :     0.011768
      f0      :     0.000802  f :     0.004861
      f+1     :     0.000581
      f-1     :     0.001206
      f+2     :     0.000420
      f-2     :     0.000416
      f+3     :     0.000988
      f-3     :     0.000447
  1 H s       :     0.672426  s :     0.672426
      pz      :     0.030486  p :     0.187131
      px      :     0.054323
      py      :     0.102322
  2 H s       :     0.679617  s :     0.679617
      pz      :     0.079365  p :     0.162139
      px      :     0.045270
      py      :     0.037504
  3 O s       :     3.469210  s :     3.469210
      pz      :     1.540137  p :     4.755486
      px      :     1.450293
      py      :     1.765055
      dz2     :     0.020765  d :     0.060210
      dxz     :     0.009195
      dyz     :     0.007062
      dx2y2   :     0.011000
      dxy     :     0.012188
      f0      :     0.000772  f :     0.004903
      f+1     :     0.001198
      f-1     :     0.000604
      f+2     :     0.000415
      f-2     :     0.000414
      f+3     :     0.000456
      f-3     :     0.001044
  4 H s       :     0.664819  s :     0.664819
      pz      :     0.081070  p :     0.161570
      px      :     0.036028
      py      :     0.044473
  5 H s       :     0.662619  s :     0.662619
      pz      :     0.030405  p :     0.156513
      px      :     0.075182
      py      :     0.050926


                      *****************************
                      * MAYER POPULATION ANALYSIS *
                      *****************************

  NA   - Mulliken gross atomic population
  ZA   - Total nuclear charge
  QA   - Mulliken gross atomic charge
  VA   - Mayer's total valence
  BVA  - Mayer's bonded valence
  FA   - Mayer's free valence

  ATOM       NA         ZA         QA         VA         BVA        FA
  0 O      8.7143     8.0000    -0.7143     2.0363     1.6520     0.3843
  1 H      0.6492     1.0000     0.3508     0.9291     0.8834     0.0457
  2 H      0.6726     1.0000     0.3274     0.9104     0.8618     0.0487
  3 O      8.6802     8.0000    -0.6802     2.1147     1.7332     0.3815
  4 H      0.6422     1.0000     0.3578     0.8895     0.8435     0.0460
  5 H      0.6416     1.0000     0.3584     0.8904     0.8437     0.0468

  Mayer bond orders larger than 0.100000
B(  0-O ,  1-H ) :   0.8049 B(  0-O ,  2-H ) :   0.8590 B(  3-O ,  4-H ) :   0.8377 
B(  3-O ,  5-H ) :   0.8348 


----------------------------------
MP2 DERIVATIVE INTEGRAL GENERATION
----------------------------------


Input Wavefunction Amplitudes       ... 12h2o.su.etal.mol5,6-orca.engrad-mp2.def2tzvp.frozencore.mp2tsaa.tmp
Input Correlated Electron Density   ... 12h2o.su.etal.mol5,6-orca.engrad-mp2.def2tzvp.frozencore.pmp2re
Input Energy Weighted Density       ... 12h2o.su.etal.mol5,6-orca.engrad-mp2.def2tzvp.frozencore.wmp2.tmp
Input SCF Electron Density          ... 12h2o.su.etal.mol5,6-orca.engrad-mp2.def2tzvp.frozencore.scfp

One-Electron Terms    ...
                        ... One-Electron Terms done
Prescreening matrices              ... done

Batch handling in the gradient evaluation:
Memory available                      ... 8000.0 MB
Memory per occupied orbital in Q2     ...    0.5 MB
Memory per occupied orbital in Q3     ...    0.0 MB
Total memory requirement per |i>      ...    0.5 MB
Max. Number of orbitals possible      ...  16543
Number of orbitals treated per batch  ...      8
Number of batches to be done          ...      1
Batch   0: i=    2 ...     9

---------------------------------------
MP2 TOTAL ENERGY:     -152.633039728 Eh
---------------------------------------

The final MP2 gradient
  0:  -0.00487164  -0.00348313   0.01004843
  1:   0.00420854   0.01174320   0.00178752
  2:   0.00169439  -0.00300916  -0.01027766
  3:   0.01372238  -0.01103776  -0.01039773
  4:   0.00115682  -0.00020769   0.00717759
  5:  -0.01591049   0.00599453   0.00166186

-----------------------------------
NORM OF THE MP2 GRADIENT:  0.034296
-----------------------------------

-------------------------   --------------------
FINAL SINGLE POINT ENERGY      -152.633039727559
-------------------------   --------------------


                            ***************************************
                            *     ORCA property calculations      *
                            ***************************************

                                    ---------------------
                                    Active property flags
                                    ---------------------
   (+) Dipole Moment


------------------------------------------------------------------------------
                       ORCA ELECTRIC PROPERTIES CALCULATION
------------------------------------------------------------------------------

Dipole Moment Calculation                       ... on
Quadrupole Moment Calculation                   ... off
Polarizability Calculation                      ... off
GBWName                                         ... 12h2o.su.etal.mol5,6-orca.engrad-mp2.def2tzvp.frozencore.gbw
Electron density file                           ... 12h2o.su.etal.mol5,6-orca.engrad-mp2.def2tzvp.frozencore.scfp
The origin for moment calculation is the CENTER OF MASS  = ( 2.478687, -0.747632  0.000000)

-------------
DIPOLE MOMENT
-------------
                                X             Y             Z
Electronic contribution:      0.06976       0.11339       0.01418
Nuclear contribution   :     -0.00045       0.90834       0.00000
                        -----------------------------------------
Total Dipole Moment    :      0.06931       1.02173       0.01418
                        -----------------------------------------
Magnitude (a.u.)       :      1.02418
Magnitude (Debye)      :      2.60326



--------------------
Rotational spectrum 
--------------------
 
Rotational constants in cm-1:     6.477900     0.241531     0.239994 
Rotational constants in MHz : 194202.569424  7240.902958  7194.826293 

 Dipole components along the rotational axes: 
x,y,z [a.u.] :     0.998290    -0.024907    -0.227465 
x,y,z [Debye]:     2.537451    -0.063308    -0.578171 

 

                         *** MP2 UNRELAXED DENSITY ***

------------------------------------------------------------------------------
                       ORCA ELECTRIC PROPERTIES CALCULATION
------------------------------------------------------------------------------

Dipole Moment Calculation                       ... on
Quadrupole Moment Calculation                   ... off
Polarizability Calculation                      ... off
GBWName                                         ... 12h2o.su.etal.mol5,6-orca.engrad-mp2.def2tzvp.frozencore.gbw
Electron density file                           ... 12h2o.su.etal.mol5,6-orca.engrad-mp2.def2tzvp.frozencore.pmp2ur
The origin for moment calculation is the CENTER OF MASS  = ( 2.478687, -0.747632  0.000000)

-------------
DIPOLE MOMENT
-------------
                                X             Y             Z
Electronic contribution:      0.07081       0.10696       0.01385
Nuclear contribution   :     -0.00045       0.90834       0.00000
                        -----------------------------------------
Total Dipole Moment    :      0.07036       1.01530       0.01385
                        -----------------------------------------
Magnitude (a.u.)       :      1.01783
Magnitude (Debye)      :      2.58711



--------------------
Rotational spectrum 
--------------------
 
Rotational constants in cm-1:     6.477900     0.241531     0.239994 
Rotational constants in MHz : 194202.569424  7240.902958  7194.826293 

 Dipole components along the rotational axes: 
x,y,z [a.u.] :     0.992431    -0.024779    -0.224593 
x,y,z [Debye]:     2.522558    -0.062984    -0.570870 

 

                           *** MP2 RELAXED DENSITY ***

------------------------------------------------------------------------------
                       ORCA ELECTRIC PROPERTIES CALCULATION
------------------------------------------------------------------------------

Dipole Moment Calculation                       ... on
Quadrupole Moment Calculation                   ... off
Polarizability Calculation                      ... off
GBWName                                         ... 12h2o.su.etal.mol5,6-orca.engrad-mp2.def2tzvp.frozencore.gbw
Electron density file                           ... 12h2o.su.etal.mol5,6-orca.engrad-mp2.def2tzvp.frozencore.pmp2re
The origin for moment calculation is the CENTER OF MASS  = ( 2.478687, -0.747632  0.000000)

-------------
DIPOLE MOMENT
-------------
                                X             Y             Z
Electronic contribution:      0.07407       0.10957       0.01057
Nuclear contribution   :     -0.00045       0.90834       0.00000
                        -----------------------------------------
Total Dipole Moment    :      0.07362       1.01791       0.01057
                        -----------------------------------------
Magnitude (a.u.)       :      1.02062
Magnitude (Debye)      :      2.59422



--------------------
Rotational spectrum 
--------------------
 
Rotational constants in cm-1:     6.477900     0.241531     0.239994 
Rotational constants in MHz : 194202.569424  7240.902958  7194.826293 

 Dipole components along the rotational axes: 
x,y,z [a.u.] :     0.995848    -0.027721    -0.221783 
x,y,z [Debye]:     2.531245    -0.070462    -0.563727 

 

Timings for individual modules:

Sum of individual times         ...       22.552 sec (=   0.376 min)
GTO integral calculation        ...        6.216 sec (=   0.104 min)  27.6 %
SCF iterations                  ...        7.202 sec (=   0.120 min)  31.9 %
MP2 module                      ...        9.134 sec (=   0.152 min)  40.5 %
                             ****ORCA TERMINATED NORMALLY****
TOTAL RUN TIME: 0 days 0 hours 0 minutes 26 seconds 404 msec
