4
Energy:   -231.43069267
O  -0.138480350   0.000903960  -0.070024300
H  -0.932619860   0.361910570  -0.464040180
H   0.050111880  -0.783237510  -0.585569620
Ca   1.236986030   0.473685390   1.306093210
