4
Energy:   -220.98662360
O  -0.130040970  -0.117497510   0.044948900
H   0.225366630  -0.671132750   0.740222440
H  -0.847790140  -0.630200790  -0.326808170
Ca   0.928889550   1.672832750  -0.544726080
