4
Energy:   -222.66655938
O  -0.160050610   0.053628610   0.089659230
H  -0.957894750  -0.386050200  -0.204210010
H  -0.399665650   0.979132620   0.137186180
Ca   1.810468910  -0.762531120  -0.080759840
