4
Energy:   -233.76851182
O  -0.115175620   0.046006680  -0.091221400
H  -0.283752630   0.975809150  -0.243802560
H  -0.430942730  -0.388332570  -0.883605390
Ca   1.007048480  -0.742915210   1.430817680
