4
Energy:   -235.39005165
O  -0.055309620   0.113134610  -0.066593440
H   0.404192430   0.244957470  -0.895877740
H  -0.832108130   0.668630920  -0.131706990
Ca   0.579152730  -1.227842760   1.275265330
