4
Energy:   -235.48642561
O   0.099232870   0.099341370  -0.036846750
H   0.163088040   0.574103250  -0.865553880
H   0.609602100   0.623817030   0.580146270
Ca  -1.044663530  -1.524517480   0.386203070
