4
Energy:   -234.66955437
O   0.083890090  -0.115743370   0.032226190
H   0.186174010  -0.902817930  -0.502828470
H   0.763726210  -0.190762410   0.701872990
Ca  -1.217801210   1.435425460  -0.280726330
