4
Energy:   -228.34088589
O  -0.070458490  -0.090182340   0.130161210
H   0.379433400  -0.341053170   0.936940590
H  -0.938635400   0.192568240   0.417481240
Ca   0.753664500   0.324768620  -1.754802170
