4
Energy:   -234.33352248
O  -0.064767700  -0.119151610  -0.056188130
H  -0.650627430  -0.165858030  -0.811713600
H  -0.001039410  -1.022357590   0.254278480
Ca   0.848041360   1.548119090   0.726784290
