4
Energy:   -223.84498123
O   0.099600140  -0.120057950  -0.155034030
H  -0.448770350  -0.903349160  -0.110575640
H  -0.087853780   0.255621610  -1.015241990
Ca   0.431618260   0.940022670   1.540311480
