4
Energy:   -226.64287336
O   0.079792650   0.090700250   0.123302490
H  -0.436770750  -0.136130420   0.896569550
H   0.922158670   0.380122610   0.473853520
Ca  -0.686679880  -0.433405180  -1.760890320
