4
Energy:   -221.96409935
O  -0.102066430  -0.160197740  -0.107428980
H  -0.049194420  -0.960088560   0.415649480
H  -1.033366150   0.060853740  -0.114424130
Ca   1.399142770   1.293728710  -0.152432280
