4
Energy:   -223.48392127
O  -0.031366150   0.165524010  -0.000536050
H   0.252285810   0.835341530   0.621651950
H  -0.530374180   0.646892630  -0.660465650
Ca   0.368388860  -1.960647890   0.044717180
