4
Energy:   -228.84463951
O   0.023266570  -0.081266500   0.135017990
H   0.657785930  -0.781871630   0.285913580
H  -0.359722310   0.085256480   0.996308560
Ca  -0.376795710   0.927517110  -1.681830160
