4
Energy:   -227.22655816
O  -0.165485130   0.046290630   0.082832410
H  -0.911044320   0.237130970  -0.486336550
H  -0.055031230   0.839168540   0.607595610
Ca   1.378346950  -1.294808580  -0.281239410
