4
Energy:   -235.62272698
O  -0.097757380  -0.102618370  -0.027271880
H  -0.390311620  -0.327106520  -0.910588890
H  -0.762173370  -0.480537620   0.548888050
Ca   1.470503470   1.089996290   0.455564410
