4
Energy:   -226.30978240
O  -0.051544760  -0.138181020  -0.092302020
H   0.549326390  -0.350376930  -0.806555900
H  -0.909875320  -0.419352240  -0.409229850
Ca   0.496596370   1.109248150   1.532393480
