4
Energy:   -222.38470349
O   0.143591570  -0.110132570  -0.054901420
H   0.458422530  -0.894385320  -0.504413310
H   0.054775830  -0.377255160   0.859969680
Ca  -0.829314170   1.626494350  -0.305325130
