4
Energy:   -228.03500178
O  -0.106706330  -0.121717550   0.086598190
H  -0.151598440  -0.351063200   1.014831520
H   0.141467660  -0.936492970  -0.350188420
Ca   0.197520910   1.664651360  -0.900750580
