4
Energy:   -228.03423077
O  -0.059526570  -0.135671010  -0.075996450
H   0.275566630   0.151627460  -0.925351480
H  -0.496950940  -0.967099930  -0.259347840
Ca   0.353537070   1.156469760   1.468891100
