4
Energy:   -225.33996246
O   0.020767080  -0.053154380  -0.189950480
H   0.537922170  -0.858567690  -0.180366610
H  -0.760139820  -0.275391860  -0.696928560
Ca   0.214446900   1.371820010   1.320868600
