4
Energy:   -229.38237194
O  -0.003914300  -0.027461850  -0.177190450
H  -0.267750050   0.860479960  -0.418399670
H   0.675421560  -0.256600160  -0.811406710
Ca  -0.453031940  -0.633290890   1.696252300
