4
Energy:   -236.11038348
O  -0.029643440   0.015164060  -0.136955210
H  -0.653565450  -0.389351460  -0.739715830
H   0.332301950   0.753931380  -0.626291740
Ca   0.414086560  -0.437696300   1.779719600
