4
Energy:   -220.66480446
O  -0.090819910   0.165971280  -0.045430120
H   0.535071730   0.093825770  -0.766045510
H  -0.826675760   0.654246610  -0.414666110
Ca   0.487320590  -1.133284580   1.411085980
