4
Energy:   -230.97479961
O  -0.048779610  -0.035786470  -0.146779400
H  -0.657142030  -0.057398380  -0.885467390
H   0.344633380  -0.908312560  -0.134277460
Ca   0.437583990   1.151744330   1.406264220
