4
Energy:   -224.04626276
O  -0.182472180   0.081641900  -0.002878970
H  -0.653772300  -0.122349780  -0.810650870
H  -0.182395920   1.037882210   0.039973160
Ca   1.261434930  -1.175113130   0.874354600
