4
Energy:   -223.62479263
O  -0.058461120   0.067052850  -0.192402150
H  -0.117165800   0.976133770   0.101464290
H  -0.928021360  -0.129047110  -0.541173780
Ca   1.280938510  -1.072462530   0.831542310
