4
Energy:   -233.84054188
O  -0.078610170  -0.120413210   0.038680630
H   0.013107460  -0.616009650   0.852439740
H  -0.639511950  -0.665985670  -0.512655680
Ca   0.843686060   1.656103910  -0.450738620
