61
Energy:  -1425.35129653
O   -1.24660278   1.43294259  -2.62474070
H   -0.86368623   2.23776946  -2.27565552
H   -0.51363621   0.97930685  -3.04092152
O    2.29572226   1.97639830   2.22264818
H    2.65925920   2.67634923   2.76499626
H    2.36669526   2.30560363   1.32664677
O   -0.09838391   3.52044516  -1.40324820
H    0.73222538   3.30887113  -0.97715373
H   -0.67923226   3.77195538  -0.68520248
O    2.90221347  -0.69668636   2.28932275
H    2.71750522   0.24251888   2.28645583
H    3.80107898  -0.76351327   2.61151339
O   -1.89860132   3.62250943   0.67606441
H   -1.42381481   3.05283095   1.28127186
H   -2.37524545   4.22974814   1.24201792
O    0.82626119   0.04674993  -3.73510771
H    0.47541309  -0.83116914  -3.58545621
H    0.84333837   0.13920784  -4.68767884
O    2.85993747   0.71102630  -1.99061190
H    3.63756090   0.63437192  -2.54347514
H    2.12889326   0.51285069  -2.57587478
O   -3.29556950  -0.17087422   1.58226583
H   -3.40198087  -1.04714821   1.21205999
H   -2.68719370  -0.29068003   2.31148274
O   -0.42930522   1.74002515   2.00804657
H    0.50221226   1.84093530   2.20381218
H   -0.74219260   1.10398022   2.65130405
O    1.18838553  -3.45492547  -1.18316055
H    1.83513259  -2.79425289  -0.93524559
H    1.68345185  -4.27331457  -1.22031528
O   -2.87025933   1.37930232  -0.57060569
H   -3.10848631   0.87153541   0.20505694
H   -2.65566392   2.24846508  -0.23187756
O    2.84578098  -1.51624858  -0.35957307
H    2.82673287  -0.71210341  -0.87843679
H    2.87372976  -1.21524104   0.54863680
O   -1.33240999  -0.33310652   3.56971861
H   -1.63390395  -0.37057798   4.47742403
H   -0.64689668  -0.99907040   3.51684653
O   -0.39912678  -2.32119184  -3.11374442
H    0.15472191  -2.75565984  -2.46511429
H   -0.66184326  -3.02063038  -3.71207345
O    0.72698017  -2.12790201   3.15499055
H    1.51341099  -1.64346883   2.90382741
H    1.04497119  -2.81416821   3.74163546
O   -0.52623010  -2.50874094   0.73321396
H   -0.07366901  -2.49519094   1.57656247
H    0.08583823  -2.94341785   0.13936197
O   -0.22180508   0.09183890  -0.19574919
H   -0.31322993  -0.79166703   0.16102891
H   -0.30603786   0.66750305   0.56434783
O   -2.40601316  -0.82527342  -1.94126484
H   -2.82069343  -1.39896223  -1.29694095
H   -1.74875589  -1.37668849  -2.36574823
O    2.37188326   2.85652488  -0.35861079
H    2.52822888   2.10494868  -0.93038094
H    2.90025846   3.55956044  -0.73648972
O   -3.17564970  -2.49325598   0.11396871
H   -2.27070641  -2.65576185   0.38024178
H   -3.61753820  -3.33285165   0.24063960
H   -2.09284461   0.67688941  -1.64914247
