61
Energy:  -1429.17102200
O   -1.15474157   1.53446984  -2.30403484
H   -0.67778896   2.30630450  -1.99904416
H   -0.60898622   1.17621455  -3.00406063
O    3.20493340   2.10395156   2.00061482
H    3.79894808   2.83469762   2.17204590
H    3.04537846   2.14054247   1.05751611
O    0.10772559   3.65203280  -1.13997955
H    0.12608669   4.55382675  -1.46038930
H   -0.40455729   3.69462224  -0.33252414
O    1.06703426  -3.52316593   0.52484558
H    1.45627341  -2.79924011   0.03427842
H    1.81586957  -4.02565963   0.84574682
O   -1.42274131   3.38864686   1.13678856
H   -0.79380769   2.93460876   1.69761274
H   -1.83857139   4.03011417   1.71284140
O    0.40604459   0.20005132  -4.14722485
H    0.22688921   0.20592809  -5.08749113
H    0.16795656  -0.68244521  -3.86306676
O    2.76566728   0.53786448  -2.73442710
H    3.53667618   0.54863669  -3.30157882
H    2.02436639   0.48961836  -3.33806370
O   -4.38428019  -0.23014503   1.07112954
H   -4.06131890  -1.12357838   0.95406246
H   -5.27774977  -0.33869645   1.39695241
O    0.48863310   1.90666814   2.39926596
H    0.41903208   1.19551125   3.03616737
H    1.42727384   2.08457460   2.33981249
O    3.17166733  -0.37712549   3.21614786
H    3.29713789   0.45760967   2.76480963
H    4.05015044  -0.63176127   3.49838871
O   -2.86807964   1.53096823  -0.31629548
H   -3.46379380   1.02362394   0.23502861
H   -2.46623884   2.16144090   0.28141685
O    1.66080774  -1.26939732  -0.94693606
H    2.23574789  -0.72698334  -1.48680896
H    1.11378980  -0.64228921  -0.47392588
O    0.55491828  -0.41723853   3.90567086
H    0.47631081  -0.50553388   4.85554277
H    1.49431422  -0.48583543   3.73519630
O   -0.26632821  -2.04262520  -2.68393199
H   -0.58392044  -2.89135516  -2.37567157
H    0.46019971  -1.83093882  -2.09777680
O   -0.67535546  -1.89997813   1.94046146
H   -0.29566183  -1.50257238   2.72412802
H   -0.01641472  -2.52928295   1.64719641
O   -1.12832212  -4.15194180  -1.07241642
H   -1.22414021  -5.09014178  -1.23621980
H   -0.36942184  -4.08579355  -0.49282465
O   -0.19845507   0.22970507   0.33493035
H   -0.45805341  -0.50673470   0.88855209
H    0.13377250   0.88542175   0.94803094
O   -2.33673747  -0.68864721  -1.59569266
H   -2.63347212  -1.27967394  -0.90368991
H   -1.65222257  -1.17795522  -2.05203561
O    2.44289069   2.26211266  -0.58504435
H    2.61386459   1.72914704  -1.36154125
H    1.67870700   2.78889625  -0.81904047
O   -2.85666906  -2.46248684   0.39718376
H   -2.20383900  -2.31300025   1.08106862
H   -2.51453392  -3.20314468  -0.10341725
H   -2.09437957   0.78129386  -1.34370972
