61
Energy:  -1435.52189171
O   -0.95274800   1.73860241  -2.25471226
H   -0.50276169   2.49329933  -1.87500616
H   -0.45214021   1.53295873  -3.04422753
O    2.98247134   1.24703249   1.93852391
H    3.74169663   1.70077817   2.30447974
H    2.92571985   1.56301335   1.03676606
O    0.31630964   3.78395916  -0.98059464
H    0.38233572   4.71306850  -1.20111276
H   -0.22402754   3.76257250  -0.19077809
O    2.18159774  -1.26699962   2.81168411
H    2.60826423  -0.48435405   2.46289555
H    2.19883739  -1.89265820   2.08747006
O   -1.34326622   3.28101120   1.13951309
H   -0.79501652   2.68738730   1.65260643
H   -1.78217317   3.82666894   1.79208506
O    0.55802086   0.88010623  -4.38266036
H    0.35656022   1.05959019  -5.30104533
H    0.31813376  -0.03831222  -4.25939813
O    2.89520625   0.80693766  -2.90734274
H    3.68311967   0.92652235  -3.43755384
H    2.17153728   0.93302796  -3.52104976
O   -3.34533461  -0.62028034   1.36852470
H   -2.92272178  -1.01152599   2.13308803
H   -3.52589731  -1.36047973   0.78909927
O    0.26114937   1.40758130   2.28603268
H    0.10195860   0.86261362   3.05668200
H    1.21463488   1.46892410   2.22828939
O    1.96392283  -2.98558707   0.65361719
H    2.04636127  -2.47152233  -0.14960955
H    2.58944934  -3.70198051   0.54531723
O   -2.68500462   1.37388988  -0.31550540
H   -2.99152373   0.73961168   0.33254479
H   -2.32778508   2.09416300   0.20394881
O    1.73698577  -1.28682165  -1.50768878
H    2.30242512  -0.63308421  -1.91895215
H    1.14941958  -0.77835314  -0.94870973
O    0.10959528  -0.45301824   4.31740622
H    0.38921106  -0.32180462   5.22340283
H    0.87740394  -0.82120805   3.88021292
O   -0.12529583  -1.60791822  -3.45930926
H   -0.09874758  -2.48053810  -3.85181607
H    0.55811022  -1.62524196  -2.78931828
O   -1.85964476  -2.01820162   3.27933930
H   -1.21346583  -1.47311015   3.72829355
H   -2.27822333  -2.51969037   3.97900556
O   -0.79641789  -2.70856539   0.83379609
H   -1.05985419  -2.60917257   1.74864812
H    0.11847847  -2.98674487   0.87637150
O   -0.16250229  -0.15694754   0.05201074
H   -0.46211742  -1.00203964   0.38709576
H    0.01161431   0.36397999   0.83594299
O   -2.24117178  -0.53990889  -2.06535797
H   -2.67876576  -1.25483830  -1.60316829
H   -1.57650087  -0.97213919  -2.60166143
O    2.54771099   2.19358368  -0.54488597
H    2.72520330   1.78318854  -1.39123351
H    1.83266459   2.80534534  -0.72006636
O   -3.16264576  -2.61953631  -0.54341495
H   -2.33963663  -2.84820003  -0.11144189
H   -3.62517466  -3.45255726  -0.63492975
H   -1.93270871   0.82207867  -1.46493368
