21
Energy:   -117.48491408
O   -0.92271688  -0.19262833  -2.16141675
H   -1.52430165   0.22011354  -2.78107130
H   -0.46163925   0.53896184  -1.75103266
O   -2.43647399   0.09071057   2.11915766
H   -3.36823122  -0.10489708   2.21814232
H   -2.13421232  -0.51649277   1.44375124
O   -1.19090715  -1.49857966   0.23816749
H   -1.19507351  -1.18693404  -0.66686925
H   -0.26458753  -1.52824261   0.47750810
C    3.20429143  -1.30856155  -1.66757998
H    3.29623172  -0.33045680  -2.09155908
H    2.77256717  -1.97074495  -2.38870854
H    4.17229531  -1.66833321  -1.38752296
C    2.30012277  -1.24544975  -0.42255149
N    1.62692810  -1.19846015   0.50442881
C    0.11363401   2.26032540   1.91006321
H   -0.74430981   2.80202471   2.24976078
H    1.00239689   2.75802620   2.23762016
H    0.09145065   1.26881384   2.31169962
C    0.10120505   2.19140157   0.37165656
N    0.09195113   2.14008464  -0.77375712
