21
Energy:   -119.68378587
O    0.84648583   2.59243637   1.50921220
H    0.07380051   2.34057314   1.00349077
H    0.89030850   3.54467017   1.42225116
O   -0.21467990   0.40598575   2.82772463
H   -0.39839911   0.57190022   3.75236050
H    0.32099009   1.14989099   2.55223506
O   -1.39673201   1.42722751   0.50828033
H   -1.51006807   0.80899971  -0.21364846
H   -1.26683154   0.87482973   1.27913338
C    1.79654903  -0.57446745   0.15314538
H    1.20250658   0.25817907  -0.16104171
H    2.79133335  -0.24278554   0.36596066
H    1.36841334  -1.00598756   1.03370731
C    1.83597570  -1.62916551  -0.96830794
N    1.86533065  -2.41443615  -1.80328091
C   -1.16845389  -2.48051243  -3.37581463
H   -0.63735478  -3.29627707  -2.93156024
H   -0.61172113  -2.10352425  -4.20817732
H   -2.12639027  -2.81910089  -3.71139595
C   -1.35540661  -1.36168605  -2.33424073
N   -1.49460140  -0.52866895  -1.55874161
