21
Energy:   -122.95838299
O   -1.10510842  -1.56083889  -0.55986801
H   -1.57006575  -0.86704851  -1.02752326
H   -0.32514252  -1.72624487  -1.08951497
O    0.15878543   0.14240198   1.21507020
H   -0.33617582  -0.54230457   0.76515670
H    0.50292637   0.69185033   0.51086470
O    0.88015660   1.35909975  -1.16151060
H    1.23175087   0.56364246  -1.56133682
H   -0.01317283   1.42283811  -1.49934460
C    3.05579895  -1.92357071   0.74774968
H    2.57389253  -1.42770747   1.56431935
H    4.05372315  -1.55182514   0.64357851
H    3.08528638  -2.97627940   0.93704839
C    2.27067787  -1.65716478  -0.55002255
N    1.68611954  -1.45881346  -1.51627297
C   -2.82211459   2.13314118   1.04044838
H   -2.13443139   1.82180284   1.79877577
H   -3.80236210   1.77731296   1.28003176
H   -2.83385588   3.20171801   0.98655224
C   -2.38414125   1.55540942  -0.31822942
N   -2.05805019   1.12526187  -1.32982681
