21
Energy:   -119.05938065
O   -0.17529643  -0.98412801  -1.70915722
H    0.61213320  -1.28033349  -2.16571909
H   -0.14830049  -0.02983047  -1.77857828
O   -0.76609227   1.69632171  -1.53065044
H   -1.24349695   2.11509233  -2.24685417
H   -1.44433041   1.26853534  -1.00794240
O   -2.38729948  -0.03523991  -0.23269269
H   -2.01906528  -0.08119911   0.64964692
H   -1.86340274  -0.65210185  -0.74381440
C    0.95104645  -2.63330698   1.38699612
H    1.87384266  -2.22447784   1.03174117
H    0.50458903  -3.22776014   0.61745060
H    1.13843850  -3.24362606   2.24565434
C   -0.00423148  -1.48774188   1.77004268
N   -0.71547932  -0.63481659   2.05523826
C    1.21959463   2.18595646   1.08391674
H    1.80953872   2.63723089   1.85412291
H    0.31525714   1.80086259   1.50673526
H    0.98229780   2.91850117   0.34097155
C    2.01361757   1.03638710   0.43613756
N    2.60480374   0.18048047  -0.04616349
