21
Energy:   -119.31704938
O    0.79181466   1.97326292   0.31351444
H    0.90105805   1.35551457   1.03648381
H    0.57836530   2.80420034   0.73803089
O    1.00152870   0.13417384   2.32686656
H    0.22291333  -0.41418777   2.23048445
H    1.58642400  -0.37588781   2.88719365
O   -1.38695811   0.92189977  -0.99817868
H   -0.97186757   0.32405698  -1.61988255
H   -0.65618554   1.33881150  -0.54168343
C    2.90138806  -0.14720111  -1.69490351
H    3.29705024   0.60449982  -2.34551656
H    3.53383461  -1.00990468  -1.72045749
H    2.85716735   0.23315423  -0.69576717
C    1.48532226  -0.53486835  -2.15973874
N    0.43099692  -0.82350423  -2.50582969
C   -3.23884552  -1.55022155   0.13489610
H   -3.93022702  -2.33025569   0.37663677
H   -2.83724319  -1.71976426  -0.84227836
H   -3.74405257  -0.60719849   0.15419463
C   -2.09465763  -1.54078899   1.16559736
N   -1.24275774  -1.53376602   1.93300130
