
                                 *****************
                                 * O   R   C   A *
                                 *****************

           --- An Ab Initio, DFT and Semiempirical electronic structure package ---

                  #######################################################
                  #                        -***-                        #
                  #          Department of theory and spectroscopy      #
                  #               Directorship: Frank Neese             #
                  #        Max Planck Institute fuer Kohlenforschung    #
                  #                Kaiser Wilhelm Platz 1               #
                  #                 D-45470 Muelheim/Ruhr               #
                  #                      Germany                        #
                  #                                                     #
                  #                  All rights reserved                #
                  #                        -***-                        #
                  #######################################################


                         Program Version 4.2.0 -  RELEASE  -


 With contributions from (in alphabetic order):
   Daniel Aravena         : Magnetic Suceptibility
   Michael Atanasov       : Ab Initio Ligand Field Theory (pilot matlab implementation)
   Alexander A. Auer      : GIAO ZORA, VPT2
   Ute Becker             : Parallelization
   Giovanni Bistoni       : ED, misc. LED, open-shell LED, HFLED
   Martin Brehm           : Molecular dynamics
   Dmytro Bykov           : SCF Hessian
   Vijay G. Chilkuri      : MRCI spin determinant printing, contributions to CSF-ICE
   Dipayan Datta          : RHF DLPNO-CCSD density
   Achintya Kumar Dutta   : EOM-CC, STEOM-CC
   Dmitry Ganyushin       : Spin-Orbit,Spin-Spin,Magnetic field MRCI
   Miquel Garcia          : C-PCM Hessian, Gaussian charge scheme
   Yang Guo               : DLPNO-NEVPT2, CIM, IAO-localization
   Andreas Hansen         : Spin unrestricted coupled pair/coupled cluster methods
   Benjamin Helmich-Paris : CASSCF linear response (MC-RPA)
   Lee Huntington         : MR-EOM, pCC
   Robert Izsak           : Overlap fitted RIJCOSX, COSX-SCS-MP3, EOM
   Christian Kollmar      : KDIIS, OOCD, Brueckner-CCSD(T), CCSD density
   Simone Kossmann        : Meta GGA functionals, TD-DFT gradient, OOMP2, MP2 Hessian
   Martin Krupicka        : AUTO-CI
   Lucas Lang             : DCDCAS
   Dagmar Lenk            : GEPOL surface, SMD
   Dimitrios Liakos       : Extrapolation schemes; Compound Job, initial MDCI parallelization
   Dimitrios Manganas     : Further ROCIS development; embedding schemes
   Dimitrios Pantazis     : SARC Basis sets
   Taras Petrenko         : DFT Hessian,TD-DFT gradient, ASA, ECA, R-Raman, ABS, FL, XAS/XES, NRVS
   Peter Pinski           : DLPNO-MP2, DLPNO-MP2 Gradient
   Christoph Reimann      : Effective Core Potentials
   Marius Retegan         : Local ZFS, SOC
   Christoph Riplinger    : Optimizer, TS searches, QM/MM, DLPNO-CCSD(T), (RO)-DLPNO pert. Triples
   Tobias Risthaus        : Range-separated hybrids, TD-DFT gradient, RPA, STAB
   Michael Roemelt        : Original ROCIS implementation
   Masaaki Saitow         : Open-shell DLPNO-CCSD energy and density
   Barbara Sandhoefer     : DKH picture change effects
   Avijit Sen             : IP-ROCIS
   Kantharuban Sivalingam : CASSCF convergence, NEVPT2, FIC-MRCI
   Bernardo de Souza      : ESD, SOC TD-DFT
   Georgi Stoychev        : AutoAux, RI-MP2 NMR
   Willem Van den Heuvel  : Paramagnetic NMR
   Boris Wezisla          : Elementary symmetry handling
   Frank Wennmohs         : Technical directorship


 We gratefully acknowledge several colleagues who have allowed us to
 interface, adapt or use parts of their codes:
   Stefan Grimme, W. Hujo, H. Kruse,             : VdW corrections, initial TS optimization,
                  C. Bannwarth                     DFT functionals, gCP, sTDA/sTD-DF
   Ed Valeev, F. Pavosevic, A. Kumar             : LibInt (2-el integral package), F12 methods
   Garnet Chan, S. Sharma, J. Yang, R. Olivares  : DMRG
   Ulf Ekstrom                                   : XCFun DFT Library
   Mihaly Kallay                                 : mrcc  (arbitrary order and MRCC methods)
   Andreas Klamt, Michael Diedenhofen            : otool_cosmo (COSMO solvation model)
   Jiri Pittner, Ondrej Demel                    : Mk-CCSD
   Frank Weinhold                                : gennbo (NPA and NBO analysis)
   Christopher J. Cramer and Donald G. Truhlar   : smd solvation model
   Lars Goerigk                                  : TD-DFT with DH, B97 family of functionals
   V. Asgeirsson, H. Jonsson                     : NEB implementation
   FAccTs GmbH                                   : IRC, NEB, NEB-TS, Multilevel, MM, QM/MM, CI optimization
   S Lehtola, MJT Oliveira, MAL Marques          : LibXC Library


 Your calculation uses the libint2 library for the computation of 2-el integrals
 For citations please refer to: http://libint.valeyev.net

 Your ORCA version has been built with support for libXC version: 4.2.3
 For citations please refer to: https://tddft.org/programs/libxc/

 This ORCA versions uses:
   CBLAS   interface :  Fast vector & matrix operations
   LAPACKE interface :  Fast linear algebra routines
   SCALAPACK package :  Parallel linear algebra routines


----- Orbital basis set information -----
Your calculation utilizes the basis: def2-TZVP
   F. Weigend and R. Ahlrichs, Phys. Chem. Chem. Phys. 7, 3297 (2005).

================================================================================
                                        WARNINGS
                       Please study these warnings very carefully!
================================================================================


WARNING: The frozen-core approximation for MP2-gradient calculations is turned on by default.

INFO   : the flag for use of LIBINT has been found!

================================================================================
                                       INPUT FILE
================================================================================
NAME = 12h2o.su.etal.mol0,3,4,6,8,9-orca.engrad-mp2.def2tzvp.frozencore.inp
|  1> # 12h2o.su.etal.mol0,3,4,6,8,9
|  2> ! MP2 def2-TZVP EnGrad TightSCF
|  3> 
|  4> %pal
|  5>     nprocs 6
|  6> end
|  7> 
|  8> %maxcore 8000
|  9> 
| 10> %scf
| 11>     ConvForced true
| 12> end
| 13> 
| 14> *xyz 0 1
| 15> O   1.794470000   0.923410000   2.768350000
| 16> H   2.338250000   1.359750000   3.430940000
| 17> H   0.879480000   1.303000000   2.865760000
| 18> O  -1.752130000  -0.741530000  -2.896280000
| 19> H  -2.036450000  -0.920500000  -1.984040000
| 20> H  -0.921210000  -1.242140000  -2.984230000
| 21> O  -0.885520000   1.737840000   0.052730000
| 22> H  -1.032320000   2.090180000  -0.841890000
| 23> H  -1.284090000   0.839590000   0.017130000
| 24> O   1.737840000   0.885520000  -0.052730000
| 25> H   2.090180000   1.032320000   0.841890000
| 26> H   0.839590000   1.284090000  -0.017130000
| 27> O   1.752130000   0.741530000  -2.896280000
| 28> H   2.036450000   0.920500000  -1.984040000
| 29> H   0.921210000   1.242140000  -2.984230000
| 30> O   0.741530000  -1.752130000   2.896280000
| 31> H   0.920500000  -2.036450000   1.984040000
| 32> H   1.242140000  -0.921210000   2.984230000
| 33> *
| 34> 
| 35>                          ****END OF INPUT****
================================================================================

                     *******************************
                     * Energy+Gradient Calculation *
                     *******************************

---------------------------------
CARTESIAN COORDINATES (ANGSTROEM)
---------------------------------
  O      1.794470    0.923410    2.768350
  H      2.338250    1.359750    3.430940
  H      0.879480    1.303000    2.865760
  O     -1.752130   -0.741530   -2.896280
  H     -2.036450   -0.920500   -1.984040
  H     -0.921210   -1.242140   -2.984230
  O     -0.885520    1.737840    0.052730
  H     -1.032320    2.090180   -0.841890
  H     -1.284090    0.839590    0.017130
  O      1.737840    0.885520   -0.052730
  H      2.090180    1.032320    0.841890
  H      0.839590    1.284090   -0.017130
  O      1.752130    0.741530   -2.896280
  H      2.036450    0.920500   -1.984040
  H      0.921210    1.242140   -2.984230
  O      0.741530   -1.752130    2.896280
  H      0.920500   -2.036450    1.984040
  H      1.242140   -0.921210    2.984230

----------------------------
CARTESIAN COORDINATES (A.U.)
----------------------------
  NO LB      ZA    FRAG     MASS         X           Y           Z
   0 O     8.0000    0    15.999    3.391057    1.744992    5.231423
   1 H     1.0000    0     1.008    4.418652    2.569555    6.483537
   2 H     1.0000    0     1.008    1.661976    2.462313    5.415502
   3 O     8.0000    0    15.999   -3.311046   -1.401289   -5.473176
   4 H     1.0000    0     1.008   -3.848333   -1.739493   -3.749292
   5 H     1.0000    0     1.008   -1.740835   -2.347304   -5.639377
   6 O     8.0000    0    15.999   -1.673390    3.284042    0.099645
   7 H     1.0000    0     1.008   -1.950802    3.949868   -1.590942
   8 H     1.0000    0     1.008   -2.426578    1.586595    0.032371
   9 O     8.0000    0    15.999    3.284042    1.673390   -0.099645
  10 H     1.0000    0     1.008    3.949868    1.950802    1.590942
  11 H     1.0000    0     1.008    1.586595    2.426578   -0.032371
  12 O     8.0000    0    15.999    3.311046    1.401289   -5.473176
  13 H     1.0000    0     1.008    3.848333    1.739493   -3.749292
  14 H     1.0000    0     1.008    1.740835    2.347304   -5.639377
  15 O     8.0000    0    15.999    1.401289   -3.311046    5.473176
  16 H     1.0000    0     1.008    1.739493   -3.848333    3.749292
  17 H     1.0000    0     1.008    2.347304   -1.740835    5.639377

--------------------------------
INTERNAL COORDINATES (ANGSTROEM)
--------------------------------
 O      0   0   0     0.000000000000     0.00000000     0.00000000
 H      1   0   0     0.961828878803     0.00000000     0.00000000
 H      1   2   0     0.995381322057   106.21731035     0.00000000
 O      3   1   2     6.656318732948    99.29837960   164.71437028
 H      4   3   1     0.972136791249    50.19793542   121.30203245
 H      4   3   1     0.974050112161    84.18963930     7.83137870
 O      3   1   2     3.349245975813   116.85538783   143.82107740
 H      7   3   1     0.972645187106   154.03893681   304.15813038
 H      7   3   1     0.983350632989    97.20424340    87.67157074
 O      7   3   1     2.760360281485    59.41411630   355.12427997
 H     10   7   3     0.972645187106   105.22009255   347.26752702
 H     10   7   3     0.983350632989     5.92595386   271.62167973
 O     10   7   3     2.847229166523    93.35605850   179.94795427
 H     13  10   7     0.972136791249    19.08819947   137.47046308
 H     13  10   7     0.974050112161    93.43428486    13.37418319
 O      1   2   3     2.878117964938   126.72240291   256.40918860
 H     16   1   2     0.972136791249    99.37069922   223.07499144
 H     16   1   2     0.974050112161    12.30570018   335.59052045

---------------------------
INTERNAL COORDINATES (A.U.)
---------------------------
 O      0   0   0     0.000000000000     0.00000000     0.00000000
 H      1   0   0     1.817593168635     0.00000000     0.00000000
 H      1   2   0     1.880998097508   106.21731035     0.00000000
 O      3   1   2    12.578619465362    99.29837960   164.71437028
 H      4   3   1     1.837072300170    50.19793542   121.30203245
 H      4   3   1     1.840687952699    84.18963930     7.83137870
 O      3   1   2     6.329157649425   116.85538783   143.82107740
 H      7   3   1     1.838033029106   154.03893681   304.15813038
 H      7   3   1     1.858263389967    97.20424340    87.67157074
 O      7   3   1     5.216324962960    59.41411630   355.12427997
 H     10   7   3     1.838033029106   105.22009255   347.26752702
 H     10   7   3     1.858263389967     5.92595386   271.62167973
 O     10   7   3     5.380483365242    93.35605850   179.94795427
 H     13  10   7     1.837072300170    19.08819947   137.47046308
 H     13  10   7     1.840687952699    93.43428486    13.37418319
 O      1   2   3     5.438854734852   126.72240291   256.40918860
 H     16   1   2     1.837072300170    99.37069922   223.07499144
 H     16   1   2     1.840687952699    12.30570018   335.59052045

---------------------
BASIS SET INFORMATION
---------------------
There are 2 groups of distinct atoms

 Group   1 Type O   : 11s6p2d1f contracted to 5s3p2d1f pattern {62111/411/11/1}
 Group   2 Type H   : 5s1p contracted to 3s1p pattern {311/1}

Atom   0O    basis set group =>   1
Atom   1H    basis set group =>   2
Atom   2H    basis set group =>   2
Atom   3O    basis set group =>   1
Atom   4H    basis set group =>   2
Atom   5H    basis set group =>   2
Atom   6O    basis set group =>   1
Atom   7H    basis set group =>   2
Atom   8H    basis set group =>   2
Atom   9O    basis set group =>   1
Atom  10H    basis set group =>   2
Atom  11H    basis set group =>   2
Atom  12O    basis set group =>   1
Atom  13H    basis set group =>   2
Atom  14H    basis set group =>   2
Atom  15O    basis set group =>   1
Atom  16H    basis set group =>   2
Atom  17H    basis set group =>   2


           ************************************************************
           *        Program running with 6 parallel MPI-processes     *
           *              working on a common directory               *
           ************************************************************
------------------------------------------------------------------------------
                           ORCA GTO INTEGRAL CALCULATION
------------------------------------------------------------------------------

                         BASIS SET STATISTICS AND STARTUP INFO

 # of primitive gaussian shells          ...  192
 # of primitive gaussian functions       ...  372
 # of contracted shells                  ...  114
 # of contracted basis functions         ...  258
 Highest angular momentum                ...    3
 Maximum contraction depth               ...    6
 Integral package used                   ... LIBINT
 Integral threshhold            Thresh   ...  2.500e-11
 Primitive cut-off              TCut     ...  2.500e-12


------------------------------ INTEGRAL EVALUATION ----------------------------


 * One electron integrals 
 Pre-screening matrix                    ... done
 Shell pair data                         ... done (   0.001 sec)



           ************************************************************
           *        Program running with 6 parallel MPI-processes     *
           *              working on a common directory               *
           ************************************************************
-------------------------------------------------------------------------------
                                 ORCA SCF
-------------------------------------------------------------------------------

------------
SCF SETTINGS
------------
Hamiltonian:
 Ab initio Hamiltonian  Method          .... Hartree-Fock(GTOs)


General Settings:
 Integral files         IntName         .... 12h2o.su.etal.mol0,3,4,6,8,9-orca.engrad-mp2.def2tzvp.frozencore
 Hartree-Fock type      HFTyp           .... RHF
 Total Charge           Charge          ....    0
 Multiplicity           Mult            ....    1
 Number of Electrons    NEL             ....   60
 Basis Dimension        Dim             ....  258
 Nuclear Repulsion      ENuc            ....    253.9580937276 Eh

Convergence Acceleration:
 DIIS                   CNVDIIS         .... on
   Start iteration      DIISMaxIt       ....    12
   Startup error        DIISStart       ....  0.200000
   # of expansion vecs  DIISMaxEq       ....     5
   Bias factor          DIISBfac        ....   1.050
   Max. coefficient     DIISMaxC        ....  10.000
 Newton-Raphson         CNVNR           .... off
 SOSCF                  CNVSOSCF        .... on
   Start iteration      SOSCFMaxIt      ....   150
   Startup grad/error   SOSCFStart      ....  0.003300
 Level Shifting         CNVShift        .... on
   Level shift para.    LevelShift      ....    0.2500
   Turn off err/grad.   ShiftErr        ....    0.0010
 Zerner damping         CNVZerner       .... off
 Static damping         CNVDamp         .... on
   Fraction old density DampFac         ....    0.7000
   Max. Damping (<1)    DampMax         ....    0.9800
   Min. Damping (>=0)   DampMin         ....    0.0000
   Turn off err/grad.   DampErr         ....    0.1000
 Fernandez-Rico         CNVRico         .... off

SCF Procedure:
 Maximum # iterations   MaxIter         ....   125
 SCF integral mode      SCFMode         .... Direct
   Integral package                     .... LIBINT
 Reset frequency        DirectResetFreq ....    20
 Integral Threshold     Thresh          ....  2.500e-11 Eh
 Primitive CutOff       TCut            ....  2.500e-12 Eh

Convergence Tolerance:
 Convergence Check Mode ConvCheckMode   .... Total+1el-Energy
 Convergence forced     ConvForced      .... 1
 Energy Change          TolE            ....  1.000e-08 Eh
 1-El. energy change                    ....  1.000e-05 Eh
 Orbital Gradient       TolG            ....  1.000e-05
 Orbital Rotation angle TolX            ....  1.000e-05
 DIIS Error             TolErr          ....  5.000e-07


Diagonalization of the overlap matrix:
Smallest eigenvalue                        ... 4.274e-03
Time for diagonalization                   ...    0.009 sec
Threshold for overlap eigenvalues          ... 1.000e-08
Number of eigenvalues below threshold      ... 0
Time for construction of square roots      ...    0.038 sec
Total time needed                          ...    0.047 sec

-------------------
DFT GRID GENERATION
-------------------

General Integration Accuracy     IntAcc      ...  4.340
Radial Grid Type                 RadialGrid  ... Gauss-Chebyshev
Angular Grid (max. acc.)         AngularGrid ... Lebedev-110
Angular grid pruning method      GridPruning ... 3 (G Style)
Weight generation scheme         WeightScheme... Becke
Basis function cutoff            BFCut       ...    1.0000e-11
Integration weight cutoff        WCut        ...    1.0000e-14
Grids for H and He will be reduced by one unit

# of grid points (after initial pruning)     ...  19824 (   0.0 sec)
# of grid points (after weights+screening)   ...  18791 (   0.1 sec)
nearest neighbour list constructed           ...    0.0 sec
Grid point re-assignment to atoms done       ...    0.0 sec
Grid point division into batches done        ...    0.0 sec
Reduced shell lists constructed in    0.0 sec

Total number of grid points                  ...    18791
Total number of batches                      ...      301
Average number of points per batch           ...       62
Average number of grid points per atom       ...     1044
Average number of shells per batch           ...    53.33 (46.78%)
Average number of basis functions per batch  ...   107.90 (41.82%)
Average number of large shells per batch     ...    37.33 (70.00%)
Average number of large basis fcns per batch ...    74.06 (68.63%)
Maximum spatial batch extension              ...  15.22, 20.95, 14.72 au
Average spatial batch extension              ...   0.65,  0.71,  0.63 au

Time for grid setup =    0.231 sec

------------------------------
INITIAL GUESS: MODEL POTENTIAL
------------------------------
Loading Hartree-Fock densities                     ... done
Calculating cut-offs                               ... done
Setting up the integral package                    ... done
Initializing the effective Hamiltonian             ... done
Starting the Coulomb interaction                   ... done (   0.0 sec)
Reading the grid                                   ... done
Mapping shells                                     ... done
Starting the XC term evaluation                    ... done (   0.1 sec)
Transforming the Hamiltonian                       ... done (   0.0 sec)
Diagonalizing the Hamiltonian                      ... done (   0.0 sec)
Back transforming the eigenvectors                 ... done (   0.0 sec)
Now organizing SCF variables                       ... done
                      ------------------
                      INITIAL GUESS DONE (   0.4 sec)
                      ------------------
--------------
SCF ITERATIONS
--------------
ITER       Energy         Delta-E        Max-DP      RMS-DP      [F,P]     Damp
               ***  Starting incremental Fock matrix formation  ***
  0   -455.8106835171   0.000000000000 0.04354243  0.00097839  0.3476493 0.7000
  1   -456.0289959945  -0.218312477425 0.02879894  0.00067491  0.2167425 0.7000
                               ***Turning on DIIS***
  2   -456.1438725417  -0.114876547156 0.01649675  0.00037364  0.1637791 0.7000
  3   -457.1414840927  -0.997611551045 0.00764648  0.00016816  0.1218291 0.7000
  4   -456.9361824400   0.205301652712 0.01735321  0.00039005  0.0861748 0.0000
  5   -456.4073133695   0.528869070523 0.00234332  0.00006360  0.0057882 0.0000
                      *** Initiating the SOSCF procedure ***
                           *** Shutting down DIIS ***
                      *** Re-Reading the Fockian *** 
                      *** Removing any level shift *** 
ITER      Energy       Delta-E        Grad      Rot      Max-DP    RMS-DP
  6   -456.37411830   0.0331950702  0.001041  0.001041  0.001510  0.000039
               *** Restarting incremental Fock matrix formation ***
  7   -456.36493180   0.0091865001  0.000349  0.000467  0.000700  0.000017
  8   -456.36494092  -0.0000091164  0.000137  0.000382  0.000553  0.000014
  9   -456.36494306  -0.0000021448  0.000073  0.000050  0.000116  0.000003
 10   -456.36494324  -0.0000001818  0.000009  0.000008  0.000019  0.000000
                  ***Gradient check signals convergence***
              ***Rediagonalizing the Fockian in SOSCF/NRSCF***

               *****************************************************
               *                     SUCCESS                       *
               *           SCF CONVERGED AFTER  11 CYCLES          *
               *****************************************************


----------------
TOTAL SCF ENERGY
----------------

Total Energy       :         -456.36494325 Eh          -12418.32144 eV

Components:
Nuclear Repulsion  :          253.95809373 Eh            6910.55106 eV
Electronic Energy  :         -710.32303697 Eh          -19328.87250 eV
One Electron Energy:        -1135.69882089 Eh          -30903.93604 eV
Two Electron Energy:          425.37578391 Eh           11575.06355 eV

Virial components:
Potential Energy   :         -912.07626588 Eh          -24818.85696 eV
Kinetic Energy     :          455.71132264 Eh           12400.53552 eV
Virial Ratio       :            2.00143429


---------------
SCF CONVERGENCE
---------------

  Last Energy change         ...   -3.7259e-09  Tolerance :   1.0000e-08
  Last MAX-Density change    ...    5.0919e-06  Tolerance :   1.0000e-07
  Last RMS-Density change    ...    1.3948e-07  Tolerance :   5.0000e-09
  Last Orbital Gradient      ...    2.2712e-06  Tolerance :   1.0000e-05
  Last Orbital Rotation      ...    2.2851e-06  Tolerance :   1.0000e-05

             **** THE GBW FILE WAS UPDATED (12h2o.su.etal.mol0,3,4,6,8,9-orca.engrad-mp2.def2tzvp.frozencore.gbw) ****
             **** DENSITY FILE WAS UPDATED (12h2o.su.etal.mol0,3,4,6,8,9-orca.engrad-mp2.def2tzvp.frozencore.scfp) ****
             **** ENERGY FILE WAS UPDATED (12h2o.su.etal.mol0,3,4,6,8,9-orca.engrad-mp2.def2tzvp.frozencore.en.tmp) ****
             **** THE GBW FILE WAS UPDATED (12h2o.su.etal.mol0,3,4,6,8,9-orca.engrad-mp2.def2tzvp.frozencore.gbw) ****
             **** DENSITY FILE WAS UPDATED (12h2o.su.etal.mol0,3,4,6,8,9-orca.engrad-mp2.def2tzvp.frozencore.scfp) ****
----------------
ORBITAL ENERGIES
----------------

  NO   OCC          E(Eh)            E(eV) 
   0   2.0000     -20.616736      -561.0099 
   1   2.0000     -20.613870      -560.9319 
   2   2.0000     -20.575929      -559.8995 
   3   2.0000     -20.541413      -558.9603 
   4   2.0000     -20.540093      -558.9244 
   5   2.0000     -20.530053      -558.6512 
   6   2.0000      -1.397131       -38.0179 
   7   2.0000      -1.394188       -37.9378 
   8   2.0000      -1.354858       -36.8676 
   9   2.0000      -1.328043       -36.1379 
  10   2.0000      -1.323853       -36.0239 
  11   2.0000      -1.310492       -35.6603 
  12   2.0000      -0.762624       -20.7521 
  13   2.0000      -0.752386       -20.4735 
  14   2.0000      -0.717480       -19.5236 
  15   2.0000      -0.709945       -19.3186 
  16   2.0000      -0.694740       -18.9048 
  17   2.0000      -0.679610       -18.4931 
  18   2.0000      -0.641935       -17.4679 
  19   2.0000      -0.628945       -17.1145 
  20   2.0000      -0.593005       -16.1365 
  21   2.0000      -0.592237       -16.1156 
  22   2.0000      -0.569099       -15.4860 
  23   2.0000      -0.552176       -15.0255 
  24   2.0000      -0.546117       -14.8606 
  25   2.0000      -0.530319       -14.4307 
  26   2.0000      -0.519901       -14.1472 
  27   2.0000      -0.491970       -13.3872 
  28   2.0000      -0.488657       -13.2970 
  29   2.0000      -0.475909       -12.9501 
  30   0.0000       0.072925         1.9844 
  31   0.0000       0.101938         2.7739 
  32   0.0000       0.134151         3.6504 
  33   0.0000       0.156004         4.2451 
  34   0.0000       0.167099         4.5470 
  35   0.0000       0.180247         4.9048 
  36   0.0000       0.216384         5.8881 
  37   0.0000       0.226892         6.1740 
  38   0.0000       0.238991         6.5033 
  39   0.0000       0.278996         7.5919 
  40   0.0000       0.301872         8.2144 
  41   0.0000       0.327930         8.9234 
  42   0.0000       0.434266        11.8170 
  43   0.0000       0.467203        12.7133 
  44   0.0000       0.485359        13.2073 
  45   0.0000       0.502495        13.6736 
  46   0.0000       0.506096        13.7716 
  47   0.0000       0.524055        14.2603 
  48   0.0000       0.534064        14.5326 
  49   0.0000       0.538044        14.6409 
  50   0.0000       0.569484        15.4964 
  51   0.0000       0.576702        15.6928 
  52   0.0000       0.583657        15.8821 
  53   0.0000       0.591468        16.0947 
  54   0.0000       0.601327        16.3629 
  55   0.0000       0.615766        16.7559 
  56   0.0000       0.621254        16.9052 
  57   0.0000       0.627774        17.0826 
  58   0.0000       0.635400        17.2901 
  59   0.0000       0.653718        17.7886 
  60   0.0000       0.671672        18.2771 
  61   0.0000       0.698754        19.0141 
  62   0.0000       0.715517        19.4702 
  63   0.0000       0.727683        19.8013 
  64   0.0000       0.730124        19.8677 
  65   0.0000       0.754107        20.5203 
  66   0.0000       0.760259        20.6877 
  67   0.0000       0.769588        20.9416 
  68   0.0000       0.786271        21.3955 
  69   0.0000       0.807948        21.9854 
  70   0.0000       0.815286        22.1851 
  71   0.0000       0.827771        22.5248 
  72   0.0000       0.863291        23.4913 
  73   0.0000       0.912029        24.8176 
  74   0.0000       0.945542        25.7295 
  75   0.0000       0.986629        26.8476 
  76   0.0000       1.029772        28.0215 
  77   0.0000       1.055556        28.7231 
  78   0.0000       1.351529        36.7770 
  79   0.0000       1.354930        36.8695 
  80   0.0000       1.385777        37.7089 
  81   0.0000       1.388313        37.7779 
  82   0.0000       1.395801        37.9817 
  83   0.0000       1.423373        38.7320 
  84   0.0000       1.430470        38.9251 
  85   0.0000       1.439031        39.1580 
  86   0.0000       1.449363        39.4392 
  87   0.0000       1.473247        40.0891 
  88   0.0000       1.498066        40.7644 
  89   0.0000       1.505675        40.9715 
  90   0.0000       1.537954        41.8499 
  91   0.0000       1.548730        42.1431 
  92   0.0000       1.552697        42.2510 
  93   0.0000       1.586702        43.1764 
  94   0.0000       1.600533        43.5527 
  95   0.0000       1.646230        44.7962 
  96   0.0000       1.768825        48.1322 
  97   0.0000       1.786118        48.6027 
  98   0.0000       1.802720        49.0545 
  99   0.0000       1.815960        49.4148 
 100   0.0000       1.845965        50.2313 
 101   0.0000       1.858927        50.5840 
 102   0.0000       1.868156        50.8351 
 103   0.0000       1.907491        51.9055 
 104   0.0000       1.953055        53.1453 
 105   0.0000       1.975461        53.7550 
 106   0.0000       1.979309        53.8597 
 107   0.0000       2.006184        54.5910 
 108   0.0000       2.010118        54.6981 
 109   0.0000       2.020734        54.9870 
 110   0.0000       2.067155        56.2501 
 111   0.0000       2.100158        57.1482 
 112   0.0000       2.138474        58.1908 
 113   0.0000       2.181623        59.3650 
 114   0.0000       2.251070        61.2547 
 115   0.0000       2.267907        61.7129 
 116   0.0000       2.286481        62.2183 
 117   0.0000       2.292743        62.3887 
 118   0.0000       2.313713        62.9593 
 119   0.0000       2.321554        63.1727 
 120   0.0000       2.340128        63.6781 
 121   0.0000       2.348151        63.8964 
 122   0.0000       2.350569        63.9622 
 123   0.0000       2.366038        64.3832 
 124   0.0000       2.369935        64.4892 
 125   0.0000       2.380336        64.7722 
 126   0.0000       2.392239        65.0961 
 127   0.0000       2.413900        65.6856 
 128   0.0000       2.456115        66.8343 
 129   0.0000       2.487234        67.6811 
 130   0.0000       2.511572        68.3433 
 131   0.0000       2.536785        69.0294 
 132   0.0000       2.549589        69.3779 
 133   0.0000       2.579968        70.2045 
 134   0.0000       2.591982        70.5314 
 135   0.0000       2.616558        71.2002 
 136   0.0000       2.631453        71.6055 
 137   0.0000       2.646156        72.0056 
 138   0.0000       2.664372        72.5012 
 139   0.0000       2.673757        72.7566 
 140   0.0000       2.694869        73.3311 
 141   0.0000       2.708759        73.7091 
 142   0.0000       2.729506        74.2736 
 143   0.0000       2.778893        75.6175 
 144   0.0000       2.879382        78.3520 
 145   0.0000       2.900970        78.9394 
 146   0.0000       2.911168        79.2169 
 147   0.0000       2.933029        79.8118 
 148   0.0000       2.947721        80.2116 
 149   0.0000       2.951791        80.3223 
 150   0.0000       2.960861        80.5691 
 151   0.0000       2.977570        81.0238 
 152   0.0000       2.996063        81.5270 
 153   0.0000       3.012550        81.9756 
 154   0.0000       3.023805        82.2819 
 155   0.0000       3.034240        82.5659 
 156   0.0000       3.075867        83.6986 
 157   0.0000       3.093670        84.1830 
 158   0.0000       3.124878        85.0323 
 159   0.0000       3.131550        85.2138 
 160   0.0000       3.156810        85.9012 
 161   0.0000       3.171435        86.2991 
 162   0.0000       3.207365        87.2768 
 163   0.0000       3.248858        88.4059 
 164   0.0000       3.259510        88.6958 
 165   0.0000       3.310491        90.0830 
 166   0.0000       3.362707        91.5039 
 167   0.0000       3.437401        93.5364 
 168   0.0000       3.969885       108.0260 
 169   0.0000       3.995118       108.7127 
 170   0.0000       4.010525       109.1319 
 171   0.0000       4.055026       110.3429 
 172   0.0000       4.071018       110.7780 
 173   0.0000       4.116154       112.0063 
 174   0.0000       4.250385       115.6588 
 175   0.0000       4.265753       116.0770 
 176   0.0000       4.295900       116.8974 
 177   0.0000       4.332043       117.8809 
 178   0.0000       4.343528       118.1934 
 179   0.0000       4.367768       118.8530 
 180   0.0000       5.493429       149.4838 
 181   0.0000       5.497651       149.5987 
 182   0.0000       5.534660       150.6058 
 183   0.0000       5.564630       151.4213 
 184   0.0000       5.565359       151.4411 
 185   0.0000       5.577112       151.7609 
 186   0.0000       5.592248       152.1728 
 187   0.0000       5.620357       152.9377 
 188   0.0000       5.639007       153.4452 
 189   0.0000       5.671199       154.3212 
 190   0.0000       5.674212       154.4032 
 191   0.0000       5.682989       154.6420 
 192   0.0000       5.760075       156.7396 
 193   0.0000       5.769016       156.9829 
 194   0.0000       5.794729       157.6826 
 195   0.0000       5.802898       157.9049 
 196   0.0000       5.808173       158.0484 
 197   0.0000       5.835031       158.7793 
 198   0.0000       5.840551       158.9295 
 199   0.0000       5.842814       158.9910 
 200   0.0000       5.844268       159.0306 
 201   0.0000       5.853114       159.2713 
 202   0.0000       5.864489       159.5809 
 203   0.0000       5.877814       159.9434 
 204   0.0000       5.881681       160.0487 
 205   0.0000       5.889161       160.2522 
 206   0.0000       5.904133       160.6596 
 207   0.0000       5.915100       160.9581 
 208   0.0000       5.916752       161.0030 
 209   0.0000       5.935541       161.5143 
 210   0.0000       6.378366       173.5642 
 211   0.0000       6.417314       174.6240 
 212   0.0000       6.475836       176.2165 
 213   0.0000       6.480871       176.3535 
 214   0.0000       6.501251       176.9080 
 215   0.0000       6.522391       177.4833 
 216   0.0000       6.633370       180.5032 
 217   0.0000       6.663466       181.3221 
 218   0.0000       6.680828       181.7946 
 219   0.0000       6.712178       182.6477 
 220   0.0000       6.717612       182.7955 
 221   0.0000       6.744081       183.5158 
 222   0.0000       6.815773       185.4666 
 223   0.0000       6.825596       185.7339 
 224   0.0000       6.830576       185.8694 
 225   0.0000       6.845681       186.2804 
 226   0.0000       6.853039       186.4807 
 227   0.0000       6.860578       186.6858 
 228   0.0000       6.867107       186.8635 
 229   0.0000       6.874410       187.0622 
 230   0.0000       6.897463       187.6895 
 231   0.0000       6.901742       187.8059 
 232   0.0000       6.914101       188.1423 
 233   0.0000       6.920467       188.3155 
 234   0.0000       6.932431       188.6410 
 235   0.0000       6.963553       189.4879 
 236   0.0000       6.975095       189.8020 
 237   0.0000       6.979656       189.9261 
 238   0.0000       6.985776       190.0926 
 239   0.0000       7.045581       191.7200 
 240   0.0000       7.328660       199.4230 
 241   0.0000       7.343119       199.8164 
 242   0.0000       7.353583       200.1012 
 243   0.0000       7.401939       201.4170 
 244   0.0000       7.416312       201.8081 
 245   0.0000       7.449598       202.7139 
 246   0.0000       7.462556       203.0665 
 247   0.0000       7.468460       203.2271 
 248   0.0000       7.497992       204.0307 
 249   0.0000       7.557703       205.6556 
 250   0.0000       7.576641       206.1709 
 251   0.0000       7.629561       207.6109 
 252   0.0000      44.819385      1219.5975 
 253   0.0000      44.883570      1221.3440 
 254   0.0000      44.896345      1221.6917 
 255   0.0000      44.942740      1222.9541 
 256   0.0000      44.948874      1223.1210 
 257   0.0000      45.046682      1225.7825 

                    ********************************
                    * MULLIKEN POPULATION ANALYSIS *
                    ********************************

-----------------------
MULLIKEN ATOMIC CHARGES
-----------------------
   0 O :   -0.742180
   1 H :    0.374315
   2 H :    0.384133
   3 O :   -0.698729
   4 H :    0.331976
   5 H :    0.367793
   6 O :   -0.710930
   7 H :    0.372675
   8 H :    0.365051
   9 O :   -0.773494
  10 H :    0.384441
  11 H :    0.362399
  12 O :   -0.721807
  13 H :    0.393714
  14 H :    0.321282
  15 O :   -0.727954
  16 H :    0.342465
  17 H :    0.374849
Sum of atomic charges:    0.0000000

--------------------------------
MULLIKEN REDUCED ORBITAL CHARGES
--------------------------------
  0 O s       :     3.808198  s :     3.808198
      pz      :     1.732342  p :     4.908452
      px      :     1.382275
      py      :     1.793835
      dz2     :     0.004070  d :     0.024054
      dxz     :     0.004533
      dyz     :     0.005468
      dx2y2   :     0.002552
      dxy     :     0.007431
      f0      :     0.000085  f :     0.001476
      f+1     :     0.000335
      f-1     :     0.000179
      f+2     :     0.000063
      f-2     :     0.000348
      f+3     :     0.000093
      f-3     :     0.000373
  1 H s       :     0.580727  s :     0.580727
      pz      :     0.016989  p :     0.044959
      px      :     0.013325
      py      :     0.014645
  2 H s       :     0.575315  s :     0.575315
      pz      :     0.010451  p :     0.040552
      px      :     0.017983
      py      :     0.012118
  3 O s       :     3.815893  s :     3.815893
      pz      :     1.489282  p :     4.854882
      px      :     1.547173
      py      :     1.818427
      dz2     :     0.012349  d :     0.026422
      dxz     :     0.001297
      dyz     :     0.003073
      dx2y2   :     0.002108
      dxy     :     0.007595
      f0      :     0.000271  f :     0.001532
      f+1     :     0.000385
      f-1     :     0.000174
      f+2     :     0.000055
      f-2     :     0.000056
      f+3     :     0.000068
      f-3     :     0.000523
  4 H s       :     0.622771  s :     0.622771
      pz      :     0.018748  p :     0.045253
      px      :     0.012506
      py      :     0.013998
  5 H s       :     0.588130  s :     0.588130
      pz      :     0.010290  p :     0.044077
      px      :     0.018470
      py      :     0.015318
  6 O s       :     3.805462  s :     3.805462
      pz      :     1.560343  p :     4.878036
      px      :     1.846561
      py      :     1.471132
      dz2     :     0.012074  d :     0.025994
      dxz     :     0.002314
      dyz     :     0.002935
      dx2y2   :     0.003638
      dxy     :     0.005033
      f0      :     0.000170  f :     0.001439
      f+1     :     0.000120
      f-1     :     0.000471
      f+2     :     0.000069
      f-2     :     0.000042
      f+3     :     0.000457
      f-3     :     0.000110
  7 H s       :     0.583549  s :     0.583549
      pz      :     0.019054  p :     0.043775
      px      :     0.013249
      py      :     0.011472
  8 H s       :     0.592529  s :     0.592529
      pz      :     0.009750  p :     0.042420
      px      :     0.014016
      py      :     0.018654
  9 O s       :     3.805826  s :     3.805826
      pz      :     1.582035  p :     4.943604
      px      :     1.484512
      py      :     1.877056
      dz2     :     0.009862  d :     0.022656
      dxz     :     0.002462
      dyz     :     0.002347
      dx2y2   :     0.002883
      dxy     :     0.005101
      f0      :     0.000186  f :     0.001409
      f+1     :     0.000423
      f-1     :     0.000119
      f+2     :     0.000077
      f-2     :     0.000036
      f+3     :     0.000118
      f-3     :     0.000449
 10 H s       :     0.566320  s :     0.566320
      pz      :     0.024017  p :     0.049239
      px      :     0.011729
      py      :     0.013493
 11 H s       :     0.583616  s :     0.583616
      pz      :     0.009557  p :     0.053985
      px      :     0.028366
      py      :     0.016061
 12 O s       :     3.810914  s :     3.810914
      pz      :     1.563238  p :     4.883978
      px      :     1.509634
      py      :     1.811107
      dz2     :     0.011533  d :     0.025430
      dxz     :     0.001181
      dyz     :     0.002968
      dx2y2   :     0.002162
      dxy     :     0.007586
      f0      :     0.000244  f :     0.001485
      f+1     :     0.000374
      f-1     :     0.000166
      f+2     :     0.000056
      f-2     :     0.000056
      f+3     :     0.000070
      f-3     :     0.000519
 13 H s       :     0.557556  s :     0.557556
      pz      :     0.024796  p :     0.048730
      px      :     0.011368
      py      :     0.012566
 14 H s       :     0.633513  s :     0.633513
      pz      :     0.011231  p :     0.045204
      px      :     0.017828
      py      :     0.016145
 15 O s       :     3.809344  s :     3.809344
      pz      :     1.498359  p :     4.891651
      px      :     1.822472
      py      :     1.570820
      dz2     :     0.011993  d :     0.025467
      dxz     :     0.002962
      dyz     :     0.001245
      dx2y2   :     0.002082
      dxy     :     0.007185
      f0      :     0.000272  f :     0.001492
      f+1     :     0.000170
      f-1     :     0.000381
      f+2     :     0.000057
      f-2     :     0.000056
      f+3     :     0.000491
      f-3     :     0.000066
 16 H s       :     0.612824  s :     0.612824
      pz      :     0.018799  p :     0.044711
      px      :     0.013698
      py      :     0.012214
 17 H s       :     0.574940  s :     0.574940
      pz      :     0.010038  p :     0.050211
      px      :     0.016522
      py      :     0.023651


                     *******************************
                     * LOEWDIN POPULATION ANALYSIS *
                     *******************************

----------------------
LOEWDIN ATOMIC CHARGES
----------------------
   0 O :   -0.296574
   1 H :    0.167905
   2 H :    0.193641
   3 O :   -0.330386
   4 H :    0.157389
   5 H :    0.174283
   6 O :   -0.297829
   7 H :    0.174849
   8 H :    0.178309
   9 O :   -0.353012
  10 H :    0.153061
  11 H :    0.144878
  12 O :   -0.343211
  13 H :    0.159309
  14 H :    0.151905
  15 O :   -0.348270
  16 H :    0.161672
  17 H :    0.152084

-------------------------------
LOEWDIN REDUCED ORBITAL CHARGES
-------------------------------
  0 O s       :     3.462574  s :     3.462574
      pz      :     1.687832  p :     4.800381
      px      :     1.364753
      py      :     1.747796
      dz2     :     0.005495  d :     0.031553
      dxz     :     0.006705
      dyz     :     0.005348
      dx2y2   :     0.004233
      dxy     :     0.009771
      f0      :     0.000092  f :     0.002067
      f+1     :     0.000448
      f-1     :     0.000270
      f+2     :     0.000033
      f-2     :     0.000598
      f+3     :     0.000091
      f-3     :     0.000534
  1 H s       :     0.667915  s :     0.667915
      pz      :     0.066794  p :     0.164179
      px      :     0.044604
      py      :     0.052782
  2 H s       :     0.657310  s :     0.657310
      pz      :     0.033325  p :     0.149050
      px      :     0.072263
      py      :     0.043462
  3 O s       :     3.473611  s :     3.473611
      pz      :     1.501976  p :     4.820941
      px      :     1.531239
      py      :     1.787727
      dz2     :     0.017084  d :     0.033621
      dxz     :     0.002226
      dyz     :     0.002540
      dx2y2   :     0.002223
      dxy     :     0.009548
      f0      :     0.000505  f :     0.002213
      f+1     :     0.000597
      f-1     :     0.000329
      f+2     :     0.000026
      f-2     :     0.000048
      f+3     :     0.000003
      f-3     :     0.000705
  4 H s       :     0.685044  s :     0.685044
      pz      :     0.079484  p :     0.157567
      px      :     0.035606
      py      :     0.042477
  5 H s       :     0.668626  s :     0.668626
      pz      :     0.029329  p :     0.157091
      px      :     0.073001
      py      :     0.054761
  6 O s       :     3.468100  s :     3.468100
      pz      :     1.551658  p :     4.794688
      px      :     1.787034
      py      :     1.455996
      dz2     :     0.015415  d :     0.032929
      dxz     :     0.001430
      dyz     :     0.004040
      dx2y2   :     0.005465
      dxy     :     0.006580
      f0      :     0.000361  f :     0.002113
      f+1     :     0.000212
      f-1     :     0.000755
      f+2     :     0.000042
      f-2     :     0.000044
      f+3     :     0.000625
      f-3     :     0.000075
  7 H s       :     0.666270  s :     0.666270
      pz      :     0.080690  p :     0.158882
      px      :     0.042797
      py      :     0.035395
  8 H s       :     0.668218  s :     0.668218
      pz      :     0.029241  p :     0.153473
      px      :     0.049307
      py      :     0.074925
  9 O s       :     3.457661  s :     3.457661
      pz      :     1.549702  p :     4.864316
      px      :     1.476217
      py      :     1.838398
      dz2     :     0.013671  d :     0.029078
      dxz     :     0.003737
      dyz     :     0.001553
      dx2y2   :     0.003870
      dxy     :     0.006247
      f0      :     0.000364  f :     0.001957
      f+1     :     0.000694
      f-1     :     0.000183
      f+2     :     0.000042
      f-2     :     0.000042
      f+3     :     0.000067
      f-3     :     0.000566
 10 H s       :     0.674916  s :     0.674916
      pz      :     0.091837  p :     0.172024
      px      :     0.037018
      py      :     0.043169
 11 H s       :     0.670343  s :     0.670343
      pz      :     0.030664  p :     0.184780
      px      :     0.101469
      py      :     0.052646
 12 O s       :     3.467392  s :     3.467392
      pz      :     1.541749  p :     4.841633
      px      :     1.515745
      py      :     1.784140
      dz2     :     0.015127  d :     0.032053
      dxz     :     0.001766
      dyz     :     0.002281
      dx2y2   :     0.002479
      dxy     :     0.010400
      f0      :     0.000423  f :     0.002132
      f+1     :     0.000563
      f-1     :     0.000319
      f+2     :     0.000024
      f-2     :     0.000045
      f+3     :     0.000003
      f-3     :     0.000756
 13 H s       :     0.669183  s :     0.669183
      pz      :     0.094527  p :     0.171508
      px      :     0.035527
      py      :     0.041454
 14 H s       :     0.690813  s :     0.690813
      pz      :     0.031734  p :     0.157282
      px      :     0.070591
      py      :     0.054958
 15 O s       :     3.466883  s :     3.466883
      pz      :     1.507159  p :     4.847442
      px      :     1.794305
      py      :     1.545978
      dz2     :     0.016257  d :     0.031812
      dxz     :     0.002419
      dyz     :     0.002142
      dx2y2   :     0.002098
      dxy     :     0.008896
      f0      :     0.000497  f :     0.002133
      f+1     :     0.000318
      f-1     :     0.000582
      f+2     :     0.000026
      f-2     :     0.000050
      f+3     :     0.000659
      f-3     :     0.000002
 16 H s       :     0.680138  s :     0.680138
      pz      :     0.079671  p :     0.158190
      px      :     0.042302
      py      :     0.036217
 17 H s       :     0.675624  s :     0.675624
      pz      :     0.029769  p :     0.172292
      px      :     0.057840
      py      :     0.084682


                      *****************************
                      * MAYER POPULATION ANALYSIS *
                      *****************************

  NA   - Mulliken gross atomic population
  ZA   - Total nuclear charge
  QA   - Mulliken gross atomic charge
  VA   - Mayer's total valence
  BVA  - Mayer's bonded valence
  FA   - Mayer's free valence

  ATOM       NA         ZA         QA         VA         BVA        FA
  0 O      8.7422     8.0000    -0.7422     1.7551     1.7551    -0.0000
  1 H      0.6257     1.0000     0.3743     0.8757     0.8757    -0.0000
  2 H      0.6159     1.0000     0.3841     0.8663     0.8663     0.0000
  3 O      8.6987     8.0000    -0.6987     1.7794     1.7794    -0.0000
  4 H      0.6680     1.0000     0.3320     0.9052     0.9052     0.0000
  5 H      0.6322     1.0000     0.3678     0.8822     0.8822    -0.0000
  6 O      8.7109     8.0000    -0.7109     1.7769     1.7769     0.0000
  7 H      0.6273     1.0000     0.3727     0.8775     0.8775     0.0000
  8 H      0.6349     1.0000     0.3651     0.8845     0.8845    -0.0000
  9 O      8.7735     8.0000    -0.7735     1.6902     1.6902     0.0000
 10 H      0.6156     1.0000     0.3844     0.8795     0.8795     0.0000
 11 H      0.6376     1.0000     0.3624     0.9073     0.9073     0.0000
 12 O      8.7218     8.0000    -0.7218     1.7542     1.7542     0.0000
 13 H      0.6063     1.0000     0.3937     0.8736     0.8736     0.0000
 14 H      0.6787     1.0000     0.3213     0.9140     0.9140     0.0000
 15 O      8.7280     8.0000    -0.7280     1.7486     1.7486    -0.0000
 16 H      0.6575     1.0000     0.3425     0.8979     0.8979     0.0000
 17 H      0.6252     1.0000     0.3748     0.8874     0.8874    -0.0000

  Mayer bond orders larger than 0.100000
B(  0-O ,  1-H ) :   0.8666 B(  0-O ,  2-H ) :   0.8554 B(  3-O ,  4-H ) :   0.8978 
B(  3-O ,  5-H ) :   0.8714 B(  6-O ,  7-H ) :   0.8687 B(  6-O ,  8-H ) :   0.8713 
B(  9-O , 10-H ) :   0.8533 B(  9-O , 11-H ) :   0.8365 B( 12-O , 13-H ) :   0.8414 
B( 12-O , 14-H ) :   0.9046 B( 15-O , 16-H ) :   0.8922 B( 15-O , 17-H ) :   0.8585 


-------
TIMINGS
-------

Total SCF time: 0 days 0 hours 0 min 15 sec 

Total time                  ....      15.846 sec
Sum of individual times     ....      15.454 sec  ( 97.5%)

Fock matrix formation       ....      14.666 sec  ( 92.6%)
Diagonalization             ....       0.148 sec  (  0.9%)
Density matrix formation    ....       0.073 sec  (  0.5%)
Population analysis         ....       0.021 sec  (  0.1%)
Initial guess               ....       0.219 sec  (  1.4%)
Orbital Transformation      ....       0.000 sec  (  0.0%)
Orbital Orthonormalization  ....       0.000 sec  (  0.0%)
DIIS solution               ....       0.051 sec  (  0.3%)
SOSCF solution              ....       0.044 sec  (  0.3%)


           ************************************************************
           *        Program running with 6 parallel MPI-processes     *
           *              working on a common directory               *
           ************************************************************

------------------------------------------------------------------------------
                                ORCA  MP2 
------------------------------------------------------------------------------

Freezing NCore=12 chemical core electrons
MP2 will be done in the AO integral direct mode
The Q1-step will be done using symmetric double matrices
Dimension of the basis                    ...  258
Memory devoted for MP2                    ... 8000 MB   
Memory needed for all in one shot         ...  264 MB
Number of MOs that can be treated together...  120      
MP2 density construction                  ... relaxed
The MP2 gradient is requested => amplitudes will be stored on disk
Total number of MOs              ...   24
Number of MOs treated per batch  ...    4 
Number of batches necessary      ...    1 
OPERATORS   0/  0 PASS   0
-----------------------------------------------
 MP2 CORRELATION ENERGY   :     -1.545318788 Eh
-----------------------------------------------


---------------------
MP2 DENSITY FORMATION
---------------------

Completing the external part of the density      ... done
Storing the unrelaxed density                    ... done

Calculating G(D)                                 ... done
Completing the Lagrangian                        ... done
Solving the Z-vector equations                   ... 

------------------------------------------------------------------------------
                           ORCA CP-SCF CALCULATION
------------------------------------------------------------------------------

Input orbitals are from        ... 12h2o.su.etal.mol0,3,4,6,8,9-orca.engrad-mp2.def2tzvp.frozencore.gbw
Input Perturbation             ... 12h2o.su.etal.mol0,3,4,6,8,9-orca.engrad-mp2.def2tzvp.frozencore.pin.tmp
Wavefunction output            ... 12h2o.su.etal.mol0,3,4,6,8,9-orca.engrad-mp2.def2tzvp.frozencore.pout.tmp
Perturbation mode              ... Real perturbation (singlet)
Solver                         ... POPLE
Max. number of iterations      ... 128
Convergence tolerance          ... 1.000e-08
Integral handling              ... Direct
Number of perturbations        ... 1
Number of operators            ... 1
Orbital ranges used for CP-SCF:
 Operator 0:  Orbitals   0... 29  to  30...257
Variables per vector in CP-SCF ... 6840
Number of vectors sought       ... 1
     CP-SCF ITERATION   0: 
     CP-SCF ITERATION   1:      0.000758115414
     CP-SCF ITERATION   2:      0.000017635945
     CP-SCF ITERATION   3:      0.000000869200
     CP-SCF ITERATION   4:      0.000000068204
     CP-SCF ITERATION   5:      0.000000005366
                                                 ... done
Finalizing the relaxed density                   ... done
Transforming P to the AO basis                   ... done
Storing the relaxed density                      ... done

------------------------------------
ENERGY WEIGHTED DENSITY FINALIZATION
------------------------------------

Gathering the parts of the W-matrix              ...                                                      done
Forming the Z-density                            ... done
Transforming Z to the AO basis                   ... done
Calculating G(Z)                                 ... done
Finalizing the W-matrix                          ...                                                      done
Transforming W to the AO basis and storing       ... done

                *********************************************
                * UNRELAXED MP2 DENSITY POPULATION ANALYSIS *
                *********************************************

------------------------------------------------------------------------------
                           ORCA POPULATION ANALYSIS
------------------------------------------------------------------------------
Input electron density              ... 12h2o.su.etal.mol0,3,4,6,8,9-orca.engrad-mp2.def2tzvp.frozencore.pmp2ur
BaseName (.gbw .S,...)              ... 12h2o.su.etal.mol0,3,4,6,8,9-orca.engrad-mp2.def2tzvp.frozencore

                    ********************************
                    * MULLIKEN POPULATION ANALYSIS *
                    ********************************

-----------------------
MULLIKEN ATOMIC CHARGES
-----------------------
   0 O :   -0.736491
   1 H :    0.372070
   2 H :    0.381304
   3 O :   -0.693704
   4 H :    0.329553
   5 H :    0.365261
   6 O :   -0.704738
   7 H :    0.370190
   8 H :    0.362300
   9 O :   -0.767238
  10 H :    0.381564
  11 H :    0.357960
  12 O :   -0.716392
  13 H :    0.390711
  14 H :    0.318699
  15 O :   -0.722782
  16 H :    0.340016
  17 H :    0.371716
Sum of atomic charges:    0.0000000

--------------------------------
MULLIKEN REDUCED ORBITAL CHARGES
--------------------------------
  0 O s       :     3.803352  s :     3.803352
      pz      :     1.721302  p :     4.877788
      px      :     1.374451
      py      :     1.782036
      dz2     :     0.009628  d :     0.051306
      dxz     :     0.009936
      dyz     :     0.010961
      dx2y2   :     0.008030
      dxy     :     0.012750
      f0      :     0.000458  f :     0.004045
      f+1     :     0.000697
      f-1     :     0.000547
      f+2     :     0.000432
      f-2     :     0.000713
      f+3     :     0.000465
      f-3     :     0.000733
  1 H s       :     0.581459  s :     0.581459
      pz      :     0.017448  p :     0.046471
      px      :     0.013699
      py      :     0.015325
  2 H s       :     0.576655  s :     0.576655
      pz      :     0.011270  p :     0.042042
      px      :     0.017916
      py      :     0.012856
  3 O s       :     3.811118  s :     3.811118
      pz      :     1.480549  p :     4.825769
      px      :     1.538164
      py      :     1.807057
      dz2     :     0.017285  d :     0.052738
      dxz     :     0.006611
      dyz     :     0.008471
      dx2y2   :     0.007557
      dxy     :     0.012814
      f0      :     0.000644  f :     0.004078
      f+1     :     0.000747
      f-1     :     0.000543
      f+2     :     0.000412
      f-2     :     0.000419
      f+3     :     0.000436
      f-3     :     0.000876
  4 H s       :     0.623492  s :     0.623492
      pz      :     0.018859  p :     0.046955
      px      :     0.013216
      py      :     0.014881
  5 H s       :     0.589094  s :     0.589094
      pz      :     0.011051  p :     0.045645
      px      :     0.018612
      py      :     0.015982
  6 O s       :     3.800334  s :     3.800334
      pz      :     1.550868  p :     4.847468
      px      :     1.833992
      py      :     1.462608
      dz2     :     0.017157  d :     0.052927
      dxz     :     0.007890
      dyz     :     0.008228
      dx2y2   :     0.009162
      dxy     :     0.010490
      f0      :     0.000551  f :     0.004009
      f+1     :     0.000493
      f-1     :     0.000833
      f+2     :     0.000433
      f-2     :     0.000407
      f+3     :     0.000813
      f-3     :     0.000479
  7 H s       :     0.584490  s :     0.584490
      pz      :     0.019178  p :     0.045319
      px      :     0.014081
      py      :     0.012060
  8 H s       :     0.593710  s :     0.593710
      pz      :     0.010561  p :     0.043990
      px      :     0.014739
      py      :     0.018690
  9 O s       :     3.800840  s :     3.800840
      pz      :     1.572106  p :     4.912142
      px      :     1.475080
      py      :     1.864956
      dz2     :     0.015321  d :     0.050258
      dxz     :     0.007959
      dyz     :     0.008009
      dx2y2   :     0.008431
      dxy     :     0.010537
      f0      :     0.000573  f :     0.003998
      f+1     :     0.000796
      f-1     :     0.000494
      f+2     :     0.000442
      f-2     :     0.000404
      f+3     :     0.000484
      f-3     :     0.000805
 10 H s       :     0.567638  s :     0.567638
      pz      :     0.024135  p :     0.050798
      px      :     0.012322
      py      :     0.014341
 11 H s       :     0.586334  s :     0.586334
      pz      :     0.010390  p :     0.055706
      px      :     0.028514
      py      :     0.016802
 12 O s       :     3.806082  s :     3.806082
      pz      :     1.553724  p :     4.854206
      px      :     1.500692
      py      :     1.799791
      dz2     :     0.016657  d :     0.052059
      dxz     :     0.006574
      dyz     :     0.008427
      dx2y2   :     0.007622
      dxy     :     0.012779
      f0      :     0.000625  f :     0.004045
      f+1     :     0.000741
      f-1     :     0.000539
      f+2     :     0.000415
      f-2     :     0.000420
      f+3     :     0.000436
      f-3     :     0.000870
 13 H s       :     0.559068  s :     0.559068
      pz      :     0.024829  p :     0.050221
      px      :     0.012009
      py      :     0.013383
 14 H s       :     0.634330  s :     0.634330
      pz      :     0.012073  p :     0.046971
      px      :     0.018025
      py      :     0.016872
 15 O s       :     3.804512  s :     3.804512
      pz      :     1.489480  p :     4.862115
      px      :     1.811043
      py      :     1.561591
      dz2     :     0.017007  d :     0.052103
      dxz     :     0.008389
      dyz     :     0.006631
      dx2y2   :     0.007620
      dxy     :     0.012457
      f0      :     0.000647  f :     0.004052
      f+1     :     0.000540
      f-1     :     0.000746
      f+2     :     0.000415
      f-2     :     0.000421
      f+3     :     0.000847
      f-3     :     0.000436
 16 H s       :     0.613593  s :     0.613593
      pz      :     0.018891  p :     0.046391
      px      :     0.014566
      py      :     0.012934
 17 H s       :     0.576463  s :     0.576463
      pz      :     0.010822  p :     0.051821
      px      :     0.017140
      py      :     0.023858


                     *******************************
                     * LOEWDIN POPULATION ANALYSIS *
                     *******************************

----------------------
LOEWDIN ATOMIC CHARGES
----------------------
   0 O :   -0.292215
   1 H :    0.166743
   2 H :    0.191853
   3 O :   -0.327385
   4 H :    0.155890
   5 H :    0.172872
   6 O :   -0.293473
   7 H :    0.173427
   8 H :    0.176604
   9 O :   -0.349630
  10 H :    0.151051
  11 H :    0.142256
  12 O :   -0.340238
  13 H :    0.157424
  14 H :    0.150187
  15 O :   -0.345606
  16 H :    0.160223
  17 H :    0.150020

-------------------------------
LOEWDIN REDUCED ORBITAL CHARGES
-------------------------------
  0 O s       :     3.458805  s :     3.458805
      pz      :     1.676367  p :     4.768689
      px      :     1.356566
      py      :     1.735756
      dz2     :     0.011185  d :     0.059891
      dxz     :     0.012314
      dyz     :     0.011130
      dx2y2   :     0.009812
      dxy     :     0.015450
      f0      :     0.000475  f :     0.004830
      f+1     :     0.000858
      f-1     :     0.000657
      f+2     :     0.000409
      f-2     :     0.001006
      f+3     :     0.000475
      f-3     :     0.000948
  1 H s       :     0.666164  s :     0.666164
      pz      :     0.067958  p :     0.167093
      px      :     0.045394
      py      :     0.053740
  2 H s       :     0.656128  s :     0.656128
      pz      :     0.034156  p :     0.152019
      px      :     0.073436
      py      :     0.044426
  3 O s       :     3.469869  s :     3.469869
      pz      :     1.492788  p :     4.791538
      px      :     1.522065
      py      :     1.776685
      dz2     :     0.022750  d :     0.061027
      dxz     :     0.007477
      dyz     :     0.007878
      dx2y2   :     0.007658
      dxy     :     0.015264
      f0      :     0.000920  f :     0.004951
      f+1     :     0.001013
      f-1     :     0.000721
      f+2     :     0.000388
      f-2     :     0.000418
      f+3     :     0.000376
      f-3     :     0.001116
  4 H s       :     0.683199  s :     0.683199
      pz      :     0.081220  p :     0.160911
      px      :     0.036374
      py      :     0.043318
  5 H s       :     0.667053  s :     0.667053
      pz      :     0.030042  p :     0.160075
      px      :     0.074272
      py      :     0.055761
  6 O s       :     3.464203  s :     3.464203
      pz      :     1.541932  p :     4.763490
      px      :     1.774420
      py      :     1.447138
      dz2     :     0.021142  d :     0.060903
      dxz     :     0.006923
      dyz     :     0.009355
      dx2y2   :     0.011161
      dxy     :     0.012322
      f0      :     0.000773  f :     0.004877
      f+1     :     0.000601
      f-1     :     0.001186
      f+2     :     0.000413
      f-2     :     0.000415
      f+3     :     0.001036
      f-3     :     0.000454
  7 H s       :     0.664716  s :     0.664716
      pz      :     0.082161  p :     0.161857
      px      :     0.043573
      py      :     0.036123
  8 H s       :     0.666844  s :     0.666844
      pz      :     0.030033  p :     0.156552
      px      :     0.050241
      py      :     0.076278
  9 O s       :     3.453998  s :     3.453998
      pz      :     1.539221  p :     4.833047
      px      :     1.466946
      py      :     1.826879
      dz2     :     0.019715  d :     0.057840
      dxz     :     0.009289
      dyz     :     0.007154
      dx2y2   :     0.009626
      dxy     :     0.012056
      f0      :     0.000783  f :     0.004745
      f+1     :     0.001136
      f-1     :     0.000574
      f+2     :     0.000414
      f-2     :     0.000416
      f+3     :     0.000444
      f-3     :     0.000978
 10 H s       :     0.673984  s :     0.673984
      pz      :     0.093196  p :     0.174966
      px      :     0.037812
      py      :     0.043957
 11 H s       :     0.670035  s :     0.670035
      pz      :     0.031526  p :     0.187709
      px      :     0.102634
      py      :     0.053548
 12 O s       :     3.463669  s :     3.463669
      pz      :     1.532263  p :     4.811876
      px      :     1.506494
      py      :     1.773120
      dz2     :     0.020926  d :     0.059807
      dxz     :     0.007110
      dyz     :     0.007684
      dx2y2   :     0.007942
      dxy     :     0.016145
      f0      :     0.000843  f :     0.004886
      f+1     :     0.000983
      f-1     :     0.000715
      f+2     :     0.000388
      f-2     :     0.000416
      f+3     :     0.000374
      f-3     :     0.001165
 13 H s       :     0.668303  s :     0.668303
      pz      :     0.095785  p :     0.174274
      px      :     0.036243
      py      :     0.042246
 14 H s       :     0.689047  s :     0.689047
      pz      :     0.032534  p :     0.160766
      px      :     0.072139
      py      :     0.056094
 15 O s       :     3.463171  s :     3.463171
      pz      :     1.497964  p :     4.818005
      px      :     1.783351
      py      :     1.536690
      dz2     :     0.021986  d :     0.059544
      dxz     :     0.007788
      dyz     :     0.007462
      dx2y2   :     0.007604
      dxy     :     0.014704
      f0      :     0.000913  f :     0.004887
      f+1     :     0.000711
      f-1     :     0.001001
      f+2     :     0.000389
      f-2     :     0.000422
      f+3     :     0.001074
      f-3     :     0.000377
 16 H s       :     0.678332  s :     0.678332
      pz      :     0.081318  p :     0.161445
      px      :     0.043127
      py      :     0.037000
 17 H s       :     0.674742  s :     0.674742
      pz      :     0.030526  p :     0.175238
      px      :     0.058803
      py      :     0.085909


                      *****************************
                      * MAYER POPULATION ANALYSIS *
                      *****************************

  NA   - Mulliken gross atomic population
  ZA   - Total nuclear charge
  QA   - Mulliken gross atomic charge
  VA   - Mayer's total valence
  BVA  - Mayer's bonded valence
  FA   - Mayer's free valence

  ATOM       NA         ZA         QA         VA         BVA        FA
  0 O      8.7365     8.0000    -0.7365     2.0673     1.6754     0.3919
  1 H      0.6279     1.0000     0.3721     0.8811     0.8365     0.0446
  2 H      0.6187     1.0000     0.3813     0.8723     0.8255     0.0468
  3 O      8.6937     8.0000    -0.6937     2.0834     1.6973     0.3861
  4 H      0.6704     1.0000     0.3296     0.9115     0.8626     0.0488
  5 H      0.6347     1.0000     0.3653     0.8881     0.8421     0.0460
  6 O      8.7047     8.0000    -0.7047     2.0842     1.6957     0.3885
  7 H      0.6298     1.0000     0.3702     0.8833     0.8377     0.0456
  8 H      0.6377     1.0000     0.3623     0.8907     0.8434     0.0474
  9 O      8.7672     8.0000    -0.7672     2.0065     1.6120     0.3945
 10 H      0.6184     1.0000     0.3816     0.8855     0.8409     0.0446
 11 H      0.6420     1.0000     0.3580     0.9153     0.8665     0.0488
 12 O      8.7164     8.0000    -0.7164     2.0617     1.6734     0.3882
 13 H      0.6093     1.0000     0.3907     0.8797     0.8360     0.0437
 14 H      0.6813     1.0000     0.3187     0.9207     0.8704     0.0503
 15 O      8.7228     8.0000    -0.7228     2.0558     1.6685     0.3873
 16 H      0.6600     1.0000     0.3400     0.9041     0.8561     0.0479
 17 H      0.6283     1.0000     0.3717     0.8938     0.8486     0.0453

  Mayer bond orders larger than 0.100000
B(  0-O ,  1-H ) :   0.8281 B(  0-O ,  2-H ) :   0.8152 B(  3-O ,  4-H ) :   0.8557 
B(  3-O ,  5-H ) :   0.8319 B(  6-O ,  7-H ) :   0.8295 B(  6-O ,  8-H ) :   0.8309 
B(  9-O , 10-H ) :   0.8154 B(  9-O , 11-H ) :   0.7976 B( 12-O , 13-H ) :   0.8047 
B( 12-O , 14-H ) :   0.8615 B( 15-O , 16-H ) :   0.8509 B( 15-O , 17-H ) :   0.8203 



                *******************************************
                * RELAXED MP2 DENSITY POPULATION ANALYSIS *
                *******************************************

------------------------------------------------------------------------------
                           ORCA POPULATION ANALYSIS
------------------------------------------------------------------------------
Input electron density              ... 12h2o.su.etal.mol0,3,4,6,8,9-orca.engrad-mp2.def2tzvp.frozencore.pmp2re
BaseName (.gbw .S,...)              ... 12h2o.su.etal.mol0,3,4,6,8,9-orca.engrad-mp2.def2tzvp.frozencore

                    ********************************
                    * MULLIKEN POPULATION ANALYSIS *
                    ********************************

-----------------------
MULLIKEN ATOMIC CHARGES
-----------------------
   0 O :   -0.714451
   1 H :    0.364863
   2 H :    0.373813
   3 O :   -0.678666
   4 H :    0.323491
   5 H :    0.356966
   6 O :   -0.681196
   7 H :    0.363216
   8 H :    0.354466
   9 O :   -0.739670
  10 H :    0.366623
  11 H :    0.336571
  12 O :   -0.697984
  13 H :    0.376124
  14 H :    0.312019
  15 O :   -0.706210
  16 H :    0.333614
  17 H :    0.356410
Sum of atomic charges:    0.0000000

--------------------------------
MULLIKEN REDUCED ORBITAL CHARGES
--------------------------------
  0 O s       :     3.807187  s :     3.807187
      pz      :     1.712359  p :     4.854120
      px      :     1.371058
      py      :     1.770703
      dz2     :     0.009409  d :     0.049174
      dxz     :     0.009349
      dyz     :     0.010703
      dx2y2   :     0.007784
      dxy     :     0.011928
      f0      :     0.000456  f :     0.003972
      f+1     :     0.000678
      f-1     :     0.000539
      f+2     :     0.000431
      f-2     :     0.000692
      f+3     :     0.000463
      f-3     :     0.000713
  1 H s       :     0.587985  s :     0.587985
      pz      :     0.017569  p :     0.047152
      px      :     0.013621
      py      :     0.015962
  2 H s       :     0.583615  s :     0.583615
      pz      :     0.012092  p :     0.042572
      px      :     0.016944
      py      :     0.013536
  3 O s       :     3.816083  s :     3.816083
      pz      :     1.474407  p :     4.808178
      px      :     1.533223
      py      :     1.800547
      dz2     :     0.015865  d :     0.050403
      dxz     :     0.006540
      dyz     :     0.008439
      dx2y2   :     0.007472
      dxy     :     0.012087
      f0      :     0.000625  f :     0.004002
      f+1     :     0.000725
      f-1     :     0.000533
      f+2     :     0.000413
      f-2     :     0.000418
      f+3     :     0.000436
      f-3     :     0.000851
  4 H s       :     0.628704  s :     0.628704
      pz      :     0.018097  p :     0.047805
      px      :     0.013826
      py      :     0.015882
  5 H s       :     0.596726  s :     0.596726
      pz      :     0.011703  p :     0.046308
      px      :     0.018052
      py      :     0.016552
  6 O s       :     3.803293  s :     3.803293
      pz      :     1.544765  p :     4.823209
      px      :     1.819203
      py      :     1.459240
      dz2     :     0.015929  d :     0.050761
      dxz     :     0.007953
      dyz     :     0.007980
      dx2y2   :     0.008876
      dxy     :     0.010023
      f0      :     0.000536  f :     0.003934
      f+1     :     0.000487
      f-1     :     0.000804
      f+2     :     0.000433
      f-2     :     0.000405
      f+3     :     0.000791
      f-3     :     0.000477
  7 H s       :     0.590838  s :     0.590838
      pz      :     0.018476  p :     0.045946
      px      :     0.015030
      py      :     0.012440
  8 H s       :     0.600924  s :     0.600924
      pz      :     0.011279  p :     0.044610
      px      :     0.015443
      py      :     0.017888
  9 O s       :     3.799803  s :     3.799803
      pz      :     1.563235  p :     4.887583
      px      :     1.466169
      py      :     1.858179
      dz2     :     0.014318  d :     0.048353
      dxz     :     0.007702
      dyz     :     0.008031
      dx2y2   :     0.008216
      dxy     :     0.010086
      f0      :     0.000563  f :     0.003931
      f+1     :     0.000767
      f-1     :     0.000488
      f+2     :     0.000442
      f-2     :     0.000403
      f+3     :     0.000483
      f-3     :     0.000787
 10 H s       :     0.581983  s :     0.581983
      pz      :     0.023414  p :     0.051394
      px      :     0.012720
      py      :     0.015260
 11 H s       :     0.607138  s :     0.607138
      pz      :     0.011159  p :     0.056291
      px      :     0.027689
      py      :     0.017443
 12 O s       :     3.807546  s :     3.807546
      pz      :     1.549861  p :     4.836597
      px      :     1.493091
      py      :     1.793645
      dz2     :     0.015440  d :     0.049869
      dxz     :     0.006534
      dyz     :     0.008391
      dx2y2   :     0.007527
      dxy     :     0.011977
      f0      :     0.000608  f :     0.003971
      f+1     :     0.000719
      f-1     :     0.000529
      f+2     :     0.000416
      f-2     :     0.000419
      f+3     :     0.000436
      f-3     :     0.000845
 13 H s       :     0.573216  s :     0.573216
      pz      :     0.023994  p :     0.050660
      px      :     0.012477
      py      :     0.014189
 14 H s       :     0.640080  s :     0.640080
      pz      :     0.012876  p :     0.047901
      px      :     0.017436
      py      :     0.017590
 15 O s       :     3.805790  s :     3.805790
      pz      :     1.482590  p :     4.846468
      px      :     1.804347
      py      :     1.559532
      dz2     :     0.015660  d :     0.049972
      dxz     :     0.008345
      dyz     :     0.006571
      dx2y2   :     0.007582
      dxy     :     0.011814
      f0      :     0.000629  f :     0.003980
      f+1     :     0.000529
      f-1     :     0.000724
      f+2     :     0.000416
      f-2     :     0.000420
      f+3     :     0.000825
      f-3     :     0.000436
 16 H s       :     0.619247  s :     0.619247
      pz      :     0.018140  p :     0.047139
      px      :     0.015496
      py      :     0.013503
 17 H s       :     0.591196  s :     0.591196
      pz      :     0.011486  p :     0.052394
      px      :     0.017575
      py      :     0.023333


                     *******************************
                     * LOEWDIN POPULATION ANALYSIS *
                     *******************************

----------------------
LOEWDIN ATOMIC CHARGES
----------------------
   0 O :   -0.286741
   1 H :    0.168296
   2 H :    0.192666
   3 O :   -0.329279
   4 H :    0.157565
   5 H :    0.173621
   6 O :   -0.288586
   7 H :    0.174516
   8 H :    0.177343
   9 O :   -0.346677
  10 H :    0.147245
  11 H :    0.136119
  12 O :   -0.341231
  13 H :    0.153625
  14 H :    0.151581
  15 O :   -0.347583
  16 H :    0.161776
  17 H :    0.145742

-------------------------------
LOEWDIN REDUCED ORBITAL CHARGES
-------------------------------
  0 O s       :     3.460651  s :     3.460651
      pz      :     1.671521  p :     4.762349
      px      :     1.361574
      py      :     1.729255
      dz2     :     0.011149  d :     0.058890
      dxz     :     0.011960
      dyz     :     0.011129
      dx2y2   :     0.009618
      dxy     :     0.015035
      f0      :     0.000479  f :     0.004850
      f+1     :     0.000864
      f-1     :     0.000658
      f+2     :     0.000410
      f-2     :     0.001007
      f+3     :     0.000478
      f-3     :     0.000954
  1 H s       :     0.664881  s :     0.664881
      pz      :     0.067971  p :     0.166823
      px      :     0.044610
      py      :     0.054242
  2 H s       :     0.655450  s :     0.655450
      pz      :     0.034855  p :     0.151884
      px      :     0.071963
      py      :     0.045066
  3 O s       :     3.472165  s :     3.472165
      pz      :     1.494578  p :     4.792508
      px      :     1.523981
      py      :     1.773949
      dz2     :     0.021918  d :     0.059640
      dxz     :     0.007321
      dyz     :     0.007907
      dx2y2   :     0.007583
      dxy     :     0.014912
      f0      :     0.000920  f :     0.004966
      f+1     :     0.001021
      f-1     :     0.000719
      f+2     :     0.000390
      f-2     :     0.000417
      f+3     :     0.000376
      f-3     :     0.001124
  4 H s       :     0.681097  s :     0.681097
      pz      :     0.080566  p :     0.161337
      px      :     0.036524
      py      :     0.044247
  5 H s       :     0.666451  s :     0.666451
      pz      :     0.030278  p :     0.159928
      px      :     0.073440
      py      :     0.056210
  6 O s       :     3.465803  s :     3.465803
      pz      :     1.543127  p :     4.758120
      px      :     1.764411
      py      :     1.450582
      dz2     :     0.020491  d :     0.059771
      dxz     :     0.006999
      dyz     :     0.009122
      dx2y2   :     0.011039
      dxy     :     0.012121
      f0      :     0.000769  f :     0.004892
      f+1     :     0.000601
      f-1     :     0.001193
      f+2     :     0.000415
      f-2     :     0.000414
      f+3     :     0.001044
      f-3     :     0.000456
  7 H s       :     0.663746  s :     0.663746
      pz      :     0.081370  p :     0.161738
      px      :     0.044355
      py      :     0.036013
  8 H s       :     0.666113  s :     0.666113
      pz      :     0.030487  p :     0.156544
      px      :     0.050873
      py      :     0.075184
  9 O s       :     3.454828  s :     3.454828
      pz      :     1.537032  p :     4.829839
      px      :     1.468781
      py      :     1.824026
      dz2     :     0.019422  d :     0.057228
      dxz     :     0.009115
      dyz     :     0.007221
      dx2y2   :     0.009558
      dxy     :     0.011913
      f0      :     0.000788  f :     0.004781
      f+1     :     0.001148
      f-1     :     0.000575
      f+2     :     0.000417
      f-2     :     0.000415
      f+3     :     0.000447
      f-3     :     0.000991
 10 H s       :     0.677356  s :     0.677356
      pz      :     0.092544  p :     0.175400
      px      :     0.037965
      py      :     0.044890
 11 H s       :     0.675252  s :     0.675252
      pz      :     0.032008  p :     0.188630
      px      :     0.102347
      py      :     0.054275
 12 O s       :     3.465108  s :     3.465108
      pz      :     1.533446  p :     4.812623
      px      :     1.508318
      py      :     1.770859
      dz2     :     0.020327  d :     0.058597
      dxz     :     0.006992
      dyz     :     0.007712
      dx2y2   :     0.007857
      dxy     :     0.015709
      f0      :     0.000848  f :     0.004904
      f+1     :     0.000991
      f-1     :     0.000713
      f+2     :     0.000390
      f-2     :     0.000416
      f+3     :     0.000374
      f-3     :     0.001171
 13 H s       :     0.671943  s :     0.671943
      pz      :     0.094910  p :     0.174432
      px      :     0.036506
      py      :     0.043017
 14 H s       :     0.687017  s :     0.687017
      pz      :     0.033041  p :     0.161402
      px      :     0.071587
      py      :     0.056774
 15 O s       :     3.464560  s :     3.464560
      pz      :     1.499781  p :     4.819727
      px      :     1.781414
      py      :     1.538532
      dz2     :     0.021250  d :     0.058388
      dxz     :     0.007801
      dyz     :     0.007316
      dx2y2   :     0.007575
      dxy     :     0.014446
      f0      :     0.000913  f :     0.004908
      f+1     :     0.000709
      f-1     :     0.001010
      f+2     :     0.000391
      f-2     :     0.000421
      f+3     :     0.001086
      f-3     :     0.000377
 16 H s       :     0.676548  s :     0.676548
      pz      :     0.080511  p :     0.161676
      px      :     0.043948
      py      :     0.037218
 17 H s       :     0.678473  s :     0.678473
      pz      :     0.030918  p :     0.175784
      px      :     0.059408
      py      :     0.085459


                      *****************************
                      * MAYER POPULATION ANALYSIS *
                      *****************************

  NA   - Mulliken gross atomic population
  ZA   - Total nuclear charge
  QA   - Mulliken gross atomic charge
  VA   - Mayer's total valence
  BVA  - Mayer's bonded valence
  FA   - Mayer's free valence

  ATOM       NA         ZA         QA         VA         BVA        FA
  0 O      8.7145     8.0000    -0.7145     2.1054     1.7198     0.3856
  1 H      0.6351     1.0000     0.3649     0.8868     0.8423     0.0445
  2 H      0.6262     1.0000     0.3738     0.8798     0.8331     0.0467
  3 O      8.6787     8.0000    -0.6787     2.0923     1.7115     0.3808
  4 H      0.6765     1.0000     0.3235     0.9162     0.8673     0.0489
  5 H      0.6430     1.0000     0.3570     0.8965     0.8506     0.0459
  6 O      8.6812     8.0000    -0.6812     2.1150     1.7324     0.3825
  7 H      0.6368     1.0000     0.3632     0.8899     0.8443     0.0456
  8 H      0.6455     1.0000     0.3545     0.8995     0.8524     0.0471
  9 O      8.7397     8.0000    -0.7397     2.0325     1.6437     0.3888
 10 H      0.6334     1.0000     0.3666     0.9041     0.8598     0.0443
 11 H      0.6634     1.0000     0.3366     0.9430     0.8953     0.0478
 12 O      8.6980     8.0000    -0.6980     2.0759     1.6929     0.3830
 13 H      0.6239     1.0000     0.3761     0.8999     0.8565     0.0434
 14 H      0.6880     1.0000     0.3120     0.9270     0.8768     0.0502
 15 O      8.7062     8.0000    -0.7062     2.0648     1.6824     0.3824
 16 H      0.6664     1.0000     0.3336     0.9090     0.8611     0.0479
 17 H      0.6436     1.0000     0.3564     0.9152     0.8703     0.0449

  Mayer bond orders larger than 0.100000
B(  0-O ,  1-H ) :   0.8316 B(  0-O ,  2-H ) :   0.8188 B(  3-O ,  4-H ) :   0.8591 
B(  3-O ,  5-H ) :   0.8365 B(  6-O ,  7-H ) :   0.8333 B(  6-O ,  8-H ) :   0.8344 
B(  9-O , 10-H ) :   0.8206 B(  9-O , 11-H ) :   0.7952 B( 12-O , 13-H ) :   0.8102 
B( 12-O , 14-H ) :   0.8642 B( 15-O , 16-H ) :   0.8544 B( 15-O , 17-H ) :   0.8248 



----------------------------------
MP2 DERIVATIVE INTEGRAL GENERATION
----------------------------------


Input Wavefunction Amplitudes       ... 12h2o.su.etal.mol0,3,4,6,8,9-orca.engrad-mp2.def2tzvp.frozencore.mp2tsaa.tmp
Input Correlated Electron Density   ... 12h2o.su.etal.mol0,3,4,6,8,9-orca.engrad-mp2.def2tzvp.frozencore.pmp2re
Input Energy Weighted Density       ... 12h2o.su.etal.mol0,3,4,6,8,9-orca.engrad-mp2.def2tzvp.frozencore.wmp2.tmp
Input SCF Electron Density          ... 12h2o.su.etal.mol0,3,4,6,8,9-orca.engrad-mp2.def2tzvp.frozencore.scfp

One-Electron Terms    ...
                        ... One-Electron Terms done
Prescreening matrices              ... done

Batch handling in the gradient evaluation:
Memory available                      ... 8000.0 MB
Memory per occupied orbital in Q2     ...   12.2 MB
Memory per occupied orbital in Q3     ...    0.1 MB
Total memory requirement per |i>      ...   12.3 MB
Max. Number of orbitals possible      ...    651
Number of orbitals treated per batch  ...     24
Number of batches to be done          ...      1
Batch   0: i=    6 ...    29

---------------------------------------
MP2 TOTAL ENERGY:     -457.910262034 Eh
---------------------------------------

The final MP2 gradient
  0:   0.02539995  -0.00907536  -0.00186448
  1:   0.00009217  -0.00244586  -0.00297006
  2:  -0.02573699   0.00817669   0.00088397
  3:  -0.00599028   0.00382222  -0.01068232
  4:  -0.00170069   0.00112502   0.00983002
  5:   0.00645533  -0.00603654   0.00004974
  6:   0.00943590   0.01431061   0.00892266
  7:   0.00154456   0.00126148  -0.00656335
  8:  -0.00583170  -0.01645976  -0.00119919
  9:   0.00504268  -0.00575184  -0.00270716
 10:   0.00175746   0.00258905   0.00602013
 11:  -0.01097656   0.00456997  -0.00209031
 12:   0.01043155  -0.00723320   0.00107246
 13:   0.00093401   0.00340930  -0.00052351
 14:  -0.01061473   0.00638149   0.00036345
 15:  -0.00245836  -0.00210344   0.00836816
 16:   0.00052458  -0.00304738  -0.00921930
 17:   0.00169112   0.00650755   0.00230908

-----------------------------------
NORM OF THE MP2 GRADIENT:  0.057948
-----------------------------------

-------------------------   --------------------
FINAL SINGLE POINT ENERGY      -457.910262033879
-------------------------   --------------------


                            ***************************************
                            *     ORCA property calculations      *
                            ***************************************

                                    ---------------------
                                    Active property flags
                                    ---------------------
   (+) Dipole Moment


------------------------------------------------------------------------------
                       ORCA ELECTRIC PROPERTIES CALCULATION
------------------------------------------------------------------------------

Dipole Moment Calculation                       ... on
Quadrupole Moment Calculation                   ... off
Polarizability Calculation                      ... off
GBWName                                         ... 12h2o.su.etal.mol0,3,4,6,8,9-orca.engrad-mp2.def2tzvp.frozencore.gbw
Electron density file                           ... 12h2o.su.etal.mol0,3,4,6,8,9-orca.engrad-mp2.def2tzvp.frozencore.scfp
The origin for moment calculation is the CENTER OF MASS  = ( 1.053369,  0.589232 -0.012373)

-------------
DIPOLE MOMENT
-------------
                                X             Y             Z
Electronic contribution:      0.01723       0.04691       0.12239
Nuclear contribution   :     -0.65166       1.13367       1.31870
                        -----------------------------------------
Total Dipole Moment    :     -0.63443       1.18057       1.44109
                        -----------------------------------------
Magnitude (a.u.)       :      1.96799
Magnitude (Debye)      :      5.00225



--------------------
Rotational spectrum 
--------------------
 
Rotational constants in cm-1:     0.052400     0.022708     0.020158 
Rotational constants in MHz :  1570.923195   680.774708   604.335712 

 Dipole components along the rotational axes: 
x,y,z [a.u.] :     1.122221     0.028883    -1.616412 
x,y,z [Debye]:     2.852459     0.073414    -4.108594 

 

                         *** MP2 UNRELAXED DENSITY ***

------------------------------------------------------------------------------
                       ORCA ELECTRIC PROPERTIES CALCULATION
------------------------------------------------------------------------------

Dipole Moment Calculation                       ... on
Quadrupole Moment Calculation                   ... off
Polarizability Calculation                      ... off
GBWName                                         ... 12h2o.su.etal.mol0,3,4,6,8,9-orca.engrad-mp2.def2tzvp.frozencore.gbw
Electron density file                           ... 12h2o.su.etal.mol0,3,4,6,8,9-orca.engrad-mp2.def2tzvp.frozencore.pmp2ur
The origin for moment calculation is the CENTER OF MASS  = ( 1.053369,  0.589232 -0.012373)

-------------
DIPOLE MOMENT
-------------
                                X             Y             Z
Electronic contribution:      0.02354       0.03680       0.11147
Nuclear contribution   :     -0.65166       1.13367       1.31870
                        -----------------------------------------
Total Dipole Moment    :     -0.62813       1.17047       1.43017
                        -----------------------------------------
Magnitude (a.u.)       :      1.95190
Magnitude (Debye)      :      4.96134



--------------------
Rotational spectrum 
--------------------
 
Rotational constants in cm-1:     0.052400     0.022708     0.020158 
Rotational constants in MHz :  1570.923195   680.774708   604.335712 

 Dipole components along the rotational axes: 
x,y,z [a.u.] :     1.114220     0.028253    -1.602386 
x,y,z [Debye]:     2.832122     0.071814    -4.072942 

 

                           *** MP2 RELAXED DENSITY ***

------------------------------------------------------------------------------
                       ORCA ELECTRIC PROPERTIES CALCULATION
------------------------------------------------------------------------------

Dipole Moment Calculation                       ... on
Quadrupole Moment Calculation                   ... off
Polarizability Calculation                      ... off
GBWName                                         ... 12h2o.su.etal.mol0,3,4,6,8,9-orca.engrad-mp2.def2tzvp.frozencore.gbw
Electron density file                           ... 12h2o.su.etal.mol0,3,4,6,8,9-orca.engrad-mp2.def2tzvp.frozencore.pmp2re
The origin for moment calculation is the CENTER OF MASS  = ( 1.053369,  0.589232 -0.012373)

-------------
DIPOLE MOMENT
-------------
                                X             Y             Z
Electronic contribution:      0.01206       0.02729       0.09943
Nuclear contribution   :     -0.65166       1.13367       1.31870
                        -----------------------------------------
Total Dipole Moment    :     -0.63960       1.16096       1.41813
                        -----------------------------------------
Magnitude (a.u.)       :      1.94113
Magnitude (Debye)      :      4.93397



--------------------
Rotational spectrum 
--------------------
 
Rotational constants in cm-1:     0.052400     0.022708     0.020158 
Rotational constants in MHz :  1570.923195   680.774708   604.335712 

 Dipole components along the rotational axes: 
x,y,z [a.u.] :     1.099869     0.040476    -1.598952 
x,y,z [Debye]:     2.795646     0.102881    -4.064212 

 

Timings for individual modules:

Sum of individual times         ...       89.638 sec (=   1.494 min)
GTO integral calculation        ...        1.368 sec (=   0.023 min)   1.5 %
SCF iterations                  ...       16.800 sec (=   0.280 min)  18.7 %
MP2 module                      ...       71.470 sec (=   1.191 min)  79.7 %
                             ****ORCA TERMINATED NORMALLY****
TOTAL RUN TIME: 0 days 0 hours 1 minutes 30 seconds 716 msec
