37
Energy:   -674.86293440
O   -0.35988264  -0.82358580   1.70683615
H    0.02933446  -1.63107556   1.37112469
H   -1.30086559  -0.93701849   1.57298562
O    0.77038252  -2.91077683   0.26873552
H    1.47747164  -2.32354083   0.00150770
H    1.21292710  -3.72353591   0.51329395
O   -1.22568094   2.87093020   0.75470752
H   -2.02094909   2.42113775   0.46928301
H   -1.52707452   3.73347584   1.04002974
O   -3.23200082   1.24913840  -0.23675558
H   -3.29730022   0.41856000   0.23452709
H   -4.12866441   1.43998183  -0.51208274
O    3.35197037   0.79721120   1.76016585
H    2.74985473   0.83127591   2.50348825
H    4.19840665   1.05552202   2.12493015
O    2.58835480   1.40517560  -1.84401225
H    3.34611556   1.86444703  -2.20608990
H    1.96759060   1.35609371  -2.57097486
O   -0.95178213   0.31725498  -1.49245262
H   -1.78250985   0.70634246  -1.21907698
H   -1.11459097  -0.62596819  -1.48502416
O    1.05019219   0.97339810   3.22840918
H    0.73239474   1.25330645   4.08683095
H    0.47456114   0.24873053   2.98399630
O    0.56757583   1.18852816  -3.61577416
H   -0.10775389   0.87106776  -3.01629062
H    0.11836182   1.28123234  -4.45591971
O   -1.50361927  -2.37838781  -1.17134919
H   -0.70507743  -2.68669931  -0.74297224
H   -1.66761013  -3.01927614  -1.86315913
O   -2.97390384  -1.25748087   0.88113801
H   -3.59039382  -1.85301610   1.30717761
H   -2.61515908  -1.76427216   0.15264874
O    2.53000136  -0.89736213  -0.25909235
H    3.05623045  -0.53188599   0.45206304
H    2.75194062  -0.36246230  -1.02123209
K    0.89922512   1.29937263   0.34855243
