37
Energy:   -676.24656064
O    2.43996900   0.45951456  -1.76318302
H    3.35937690   0.51309546  -2.02404704
H    2.25494693   1.30791907  -1.36043190
O    1.42818782  -1.97601805   2.93198325
H    1.83791596  -1.99610726   2.06714158
H    1.95714771  -2.57222581   3.46204889
O    1.73535596   2.76392186  -0.45131169
H    0.79973090   2.58484365  -0.35767091
H    1.77909606   3.68623908  -0.70360039
O   -1.73434034  -1.39501058   0.02267571
H   -1.97809085  -0.79341619  -0.68081681
H   -1.21401965  -2.07198726  -0.40999136
O    1.81568870   1.78335096   2.13781635
H    1.94494209   2.22592253   1.29897440
H    2.52249545   2.11146989   2.69368868
O    1.63136743  -1.31776324   0.21576571
H    1.18952888  -1.96020064  -0.33946823
H    2.05209435  -0.71752838  -0.39981436
O   -2.36984456   1.74464420   2.24355327
H   -2.82742922   2.38294746   2.79074343
H   -2.81274166   0.91489414   2.42128580
O   -0.79519507   1.87408980  -0.02682068
H   -1.26734091   1.48418797  -0.76254258
H   -1.47617475   2.07872644   0.61397755
O   -1.93050732   0.41315180  -2.05729738
H   -2.60835462   0.58975448  -2.70965188
H   -1.18836007   0.08515841  -2.56510605
O    0.35492193  -0.64893603  -3.20419905
H    0.57951409  -0.63984223  -4.13463310
H    1.09772790  -0.22551389  -2.77386799
O   -2.78934772  -0.96197664   2.52060684
H   -3.31653266  -1.61412042   2.98214382
H   -2.68860980  -1.31639691   1.63716471
O    0.09613532  -2.82552066  -1.49753020
H    0.16570221  -2.20498059  -2.22301095
H    0.15319423  -3.68650946  -1.91186632
K   -0.15107351  -0.03667708   1.95358360
