4
Energy:   -235.82155417
O   -0.01107884   0.03197192  -0.01624021
H   -0.39824032  -0.34416181  -0.80672187
H    0.86013876   0.31956725  -0.28918828
H   -0.50170578  -0.02801529   1.26452240
