4
Energy:   -232.81397643
O   -0.09629671   0.04840752   0.00544170
H   -0.25589290   0.18940093  -0.92776876
H    0.60435907   0.66264992   0.22457545
H   -0.22513490  -1.04554518   0.78372034
