4
Energy:   -236.83864624
O   -0.00096073  -0.00348851   0.01304987
H   -0.47820895  -0.67484320  -0.47454510
H   -0.31972768  -0.08739707   0.91170377
H    0.90175764   0.86590009  -0.51587892
