4
Energy:   -225.07446017
O   -0.08629303  -0.00468935   0.05488906
H    0.48598212  -0.40849110  -0.59755032
H   -0.90225367  -0.50200606  -0.00093358
H    0.62005229   1.03522990   0.57937186
