4
Energy:   -225.39389368
O    0.00193062   0.01130837  -0.10151279
H   -0.52453726  -0.04311158   0.69604717
H   -0.57154863   0.43660221  -0.73906949
H    1.23303115  -0.46358370   0.22556555
