4
Energy:   -236.01167374
O    0.00976998   0.01447818  -0.01188799
H    0.54904577  -0.64643406  -0.44617877
H   -0.44413196   0.46123760  -0.72645842
H   -0.13538265   0.18365424   1.34348127
