4
Energy:   -232.37030372
O    0.03331799   0.06678817  -0.03641219
H    0.79595144  -0.08122703   0.52279579
H   -0.50037496   0.69707790   0.44746645
H   -0.39151960  -0.81116416  -1.03096551
