19
Energy:   -380.67530333
Na  -0.72115387  -0.69048102   0.18526125
O   -1.06348515   1.18975547   1.49419248
H   -1.19083190   1.43621138   2.41031154
H   -1.01950714   2.02312051   1.02536363
O   -1.38647042   0.57170506  -1.71323910
H   -1.65361212   0.30790319  -2.59373654
H   -1.40649009   1.52849307  -1.73293095
O   -1.67651581  -2.75307488   0.68597920
H   -2.46521674  -3.19703494   0.37439910
H   -1.29812713  -3.35659713   1.32536543
O   -0.91473299   3.55275899   0.01233492
H   -0.11407927   4.06246851  -0.11168796
H   -1.59771528   4.20879127   0.15157814
C    4.11587080  -2.06150757  -0.38945532
H    4.58975037  -2.08914663   0.56948911
H    4.57985116  -1.31128864  -0.99508958
H    4.21566646  -3.01519887  -0.86423193
C    2.62241977  -1.72887930  -0.21463411
N    1.51047759  -1.48122244  -0.08447178
