19
Energy:   -380.60673603
Na  -0.11396755  -0.55346969  -0.02818221
O   -0.44242885   1.54106193   3.48378012
H   -0.32197285   2.48406326   3.59545241
H   -0.40857647   1.18785891   4.37278715
O   -1.75713203   0.40734358   1.29429806
H   -1.41987718   0.83601229   2.08089461
H   -2.68167880   0.65343347   1.26455103
O   -0.98772825  -2.68616689  -0.37955274
H   -1.79830820  -3.03997943  -0.01348078
H   -0.58841226  -3.42570926  -0.83765280
O    1.77632285  -0.14223590   1.32067915
H    1.64602442   0.16444024   2.21801071
H    2.72559089  -0.22683686   1.23143397
C    1.08196880   0.74634812  -4.76606534
H    2.09746667   0.48527791  -4.97938807
H    0.95526487   1.80334267  -4.87380458
H    0.43230781   0.23795679  -5.44751816
C    0.73779548   0.33251482  -3.32319087
N    0.48154281   0.02439711  -2.24890525
