19
Energy:   -382.60867182
Na  -0.26698658   0.49273570  -0.46766434
O   -1.73278856   1.72748430  -1.80114040
H   -2.06771283   2.58194541  -1.52919595
H   -1.96334392   1.66323598  -2.72793500
O    1.50671792   1.60805532   0.61401555
H    2.43218095   1.77630100   0.43669261
H    1.43078133   1.66431229   1.56653885
O   -1.19417685  -0.09481201   1.55198664
H   -0.68244098   0.18030502   2.31268952
H   -1.94915088  -0.55149073   1.92305349
O    0.29663838   0.90339388   3.61278713
H   -0.10725448   1.61748821   4.10591156
H    0.82434649   0.43401227   4.25888070
C    0.83904513  -3.47392798  -3.32191077
H    1.85438283  -3.79808497  -3.22750851
H    0.63464408  -3.23467805  -4.34459292
H    0.18354233  -4.25627937  -3.00075430
C    0.61533619  -2.22572191  -2.44810536
N    0.44877471  -1.29637575  -1.79751751
