19
Energy:   -381.15658460
Na   0.23294901   0.24920527  -0.25341591
O   -2.03642956   0.06272674   0.14635064
H   -2.67568946   0.36519135   0.79140396
H   -2.44926485  -0.69816380  -0.26211535
O    0.42192150  -1.94272518  -1.04856837
H   -0.34934923  -2.49344854  -1.18301946
H    1.13803214  -2.42864122  -1.45759525
O    0.30364954   1.97916867  -1.81104908
H   -0.41355149   2.60526797  -1.91031738
H    1.01099620   2.33753059  -2.34721070
O   -3.06790486  -2.11934891  -1.18381553
H   -3.51801295  -1.91245569  -2.00285750
H   -3.54836892  -2.86693676  -0.82814918
C    3.62964956   1.64623155   3.25599066
H    3.36571004   2.59381713   3.67708172
H    4.58092673   1.72342502   2.77224277
H    3.68329781   0.91296871   4.03338796
C    2.56318190   1.22666540   2.22729685
N    1.76914825   0.91427933   1.46138755
