19
Energy:   -381.79243857
Na   0.55232442  -0.02793827  -0.34553184
O   -0.11326819  -1.96790525   0.81684486
H   -0.55053919  -2.74459066   0.46786677
H    0.03100210  -2.16884156   1.74152996
O    0.27265802  -0.64530096   3.68032349
H    0.83836041  -1.05812924   4.33284587
H   -0.54593281  -0.47439384   4.14608272
O    2.44069318   0.04379477  -1.68476957
H    3.25575778   0.42422233  -1.35739149
H    2.67005320  -0.31301493  -2.54285620
O    1.05807515   1.03977694   1.64536491
H    0.82128227   0.50177779   2.40082365
H    1.31026285   1.88328297   2.02103868
C   -3.01799683   1.30384266  -3.67982510
H   -3.08523480   2.36409284  -3.80729587
H   -3.94133620   0.93260044  -3.28673132
H   -2.82173281   0.84268363  -4.62518845
C   -1.87477740   0.97590995  -2.70150537
N   -1.02359858   0.73174914  -1.97310187
