19
Energy:   -381.16007228
Na  -0.19061208   0.17410181  -0.49159189
O   -0.89057168   0.22852200   1.70091466
H   -0.61962643   0.96475556   2.24934939
H   -1.35043468  -0.36012315   2.29945853
O    1.57316172   1.68029192  -0.17942672
H    2.33914792   1.99131335  -0.66188154
H    1.63784576   2.10740274   0.67475368
O   -2.01312300   0.92443179  -1.69304278
H   -2.09179637   1.16558668  -2.61601985
H   -2.89717656   1.02938215  -1.34138019
O    0.03102444   2.34809512   3.15553360
H    0.52983209   2.21470505   3.96152980
H   -0.37377147   3.20874625   3.26347687
C    1.06711335  -4.31222314  -2.47779065
H    0.41885393  -4.49995589  -3.30810163
H    0.95821251  -5.09475701  -1.75620875
H    2.08121985  -4.27887362  -2.81745948
C    0.69730219  -2.96376047  -1.83243172
N    0.42196097  -1.95976873  -1.35193266
