19
Energy:   -381.80268171
Na   0.55422030  -0.87584464   0.06244108
O    1.07089425   1.02505176   1.23594797
H    1.35313938   1.74979781   0.67799394
H    1.05287342   1.39471000   2.11870495
O    1.38706063  -2.98672536   0.52267111
H    2.27985215  -3.24397945   0.75283512
H    0.87629323  -3.79197976   0.60582078
O    1.86622460   3.03586913  -0.44964055
H    2.77832494   3.32616180  -0.45555584
H    1.36152432   3.82641885  -0.64079652
O    1.10106999   0.02209392  -2.00333446
H    1.08309002   0.97825777  -2.04406831
H    1.32362877  -0.25187251  -2.89307703
C   -4.46747369  -0.90705071   0.61050109
H   -4.82976733  -1.89225685   0.81789528
H   -4.92911198  -0.53766129  -0.28131763
H   -4.70463373  -0.26014423   1.42913789
C   -2.94029171  -0.95179681   0.41733539
N   -1.80323531  -0.98511232   0.27351475
