19
Energy:   -381.16226179
Na  -0.45138671  -0.42176833   0.44258921
O   -1.83299479  -2.16794177   1.11555584
H   -1.88083814  -2.55131511   1.99132279
H   -2.46252431  -2.67076670   0.59874686
O    2.49174407   1.74399791   2.25186419
H    2.81826181   1.65178412   3.14691426
H    3.00436732   2.46292241   1.88227415
O   -0.97717505   1.67718591   1.29260877
H   -1.83737124   2.09659406   1.27283067
H   -0.39456032   2.34173792   1.66025336
O    1.77931912  -0.50458625   0.87583483
H    2.08928022   0.27297526   1.34011283
H    2.57435841  -1.00103159   0.68170498
C   -1.13833918  -0.65356027  -4.56988348
H   -0.17781334  -0.78402563  -5.02294978
H   -1.57344678   0.26158482  -4.91352566
H   -1.77291759  -1.47260805  -4.83703524
C   -0.98122987  -0.60409586  -3.03871728
N   -0.86425485  -0.56726736  -1.89869444
