
                                 *****************
                                 * O   R   C   A *
                                 *****************

           --- An Ab Initio, DFT and Semiempirical electronic structure package ---

                  #######################################################
                  #                        -***-                        #
                  #          Department of theory and spectroscopy      #
                  #               Directorship: Frank Neese             #
                  #        Max Planck Institute fuer Kohlenforschung    #
                  #                Kaiser Wilhelm Platz 1               #
                  #                 D-45470 Muelheim/Ruhr               #
                  #                      Germany                        #
                  #                                                     #
                  #                  All rights reserved                #
                  #                        -***-                        #
                  #######################################################


                         Program Version 4.2.0 -  RELEASE  -


 With contributions from (in alphabetic order):
   Daniel Aravena         : Magnetic Suceptibility
   Michael Atanasov       : Ab Initio Ligand Field Theory (pilot matlab implementation)
   Alexander A. Auer      : GIAO ZORA, VPT2
   Ute Becker             : Parallelization
   Giovanni Bistoni       : ED, misc. LED, open-shell LED, HFLED
   Martin Brehm           : Molecular dynamics
   Dmytro Bykov           : SCF Hessian
   Vijay G. Chilkuri      : MRCI spin determinant printing, contributions to CSF-ICE
   Dipayan Datta          : RHF DLPNO-CCSD density
   Achintya Kumar Dutta   : EOM-CC, STEOM-CC
   Dmitry Ganyushin       : Spin-Orbit,Spin-Spin,Magnetic field MRCI
   Miquel Garcia          : C-PCM Hessian, Gaussian charge scheme
   Yang Guo               : DLPNO-NEVPT2, CIM, IAO-localization
   Andreas Hansen         : Spin unrestricted coupled pair/coupled cluster methods
   Benjamin Helmich-Paris : CASSCF linear response (MC-RPA)
   Lee Huntington         : MR-EOM, pCC
   Robert Izsak           : Overlap fitted RIJCOSX, COSX-SCS-MP3, EOM
   Christian Kollmar      : KDIIS, OOCD, Brueckner-CCSD(T), CCSD density
   Simone Kossmann        : Meta GGA functionals, TD-DFT gradient, OOMP2, MP2 Hessian
   Martin Krupicka        : AUTO-CI
   Lucas Lang             : DCDCAS
   Dagmar Lenk            : GEPOL surface, SMD
   Dimitrios Liakos       : Extrapolation schemes; Compound Job, initial MDCI parallelization
   Dimitrios Manganas     : Further ROCIS development; embedding schemes
   Dimitrios Pantazis     : SARC Basis sets
   Taras Petrenko         : DFT Hessian,TD-DFT gradient, ASA, ECA, R-Raman, ABS, FL, XAS/XES, NRVS
   Peter Pinski           : DLPNO-MP2, DLPNO-MP2 Gradient
   Christoph Reimann      : Effective Core Potentials
   Marius Retegan         : Local ZFS, SOC
   Christoph Riplinger    : Optimizer, TS searches, QM/MM, DLPNO-CCSD(T), (RO)-DLPNO pert. Triples
   Tobias Risthaus        : Range-separated hybrids, TD-DFT gradient, RPA, STAB
   Michael Roemelt        : Original ROCIS implementation
   Masaaki Saitow         : Open-shell DLPNO-CCSD energy and density
   Barbara Sandhoefer     : DKH picture change effects
   Avijit Sen             : IP-ROCIS
   Kantharuban Sivalingam : CASSCF convergence, NEVPT2, FIC-MRCI
   Bernardo de Souza      : ESD, SOC TD-DFT
   Georgi Stoychev        : AutoAux, RI-MP2 NMR
   Willem Van den Heuvel  : Paramagnetic NMR
   Boris Wezisla          : Elementary symmetry handling
   Frank Wennmohs         : Technical directorship


 We gratefully acknowledge several colleagues who have allowed us to
 interface, adapt or use parts of their codes:
   Stefan Grimme, W. Hujo, H. Kruse,             : VdW corrections, initial TS optimization,
                  C. Bannwarth                     DFT functionals, gCP, sTDA/sTD-DF
   Ed Valeev, F. Pavosevic, A. Kumar             : LibInt (2-el integral package), F12 methods
   Garnet Chan, S. Sharma, J. Yang, R. Olivares  : DMRG
   Ulf Ekstrom                                   : XCFun DFT Library
   Mihaly Kallay                                 : mrcc  (arbitrary order and MRCC methods)
   Andreas Klamt, Michael Diedenhofen            : otool_cosmo (COSMO solvation model)
   Jiri Pittner, Ondrej Demel                    : Mk-CCSD
   Frank Weinhold                                : gennbo (NPA and NBO analysis)
   Christopher J. Cramer and Donald G. Truhlar   : smd solvation model
   Lars Goerigk                                  : TD-DFT with DH, B97 family of functionals
   V. Asgeirsson, H. Jonsson                     : NEB implementation
   FAccTs GmbH                                   : IRC, NEB, NEB-TS, Multilevel, MM, QM/MM, CI optimization
   S Lehtola, MJT Oliveira, MAL Marques          : LibXC Library


 Your calculation uses the libint2 library for the computation of 2-el integrals
 For citations please refer to: http://libint.valeyev.net

 Your ORCA version has been built with support for libXC version: 4.2.3
 For citations please refer to: https://tddft.org/programs/libxc/

 This ORCA versions uses:
   CBLAS   interface :  Fast vector & matrix operations
   LAPACKE interface :  Fast linear algebra routines
   SCALAPACK package :  Parallel linear algebra routines


----- Orbital basis set information -----
Your calculation utilizes the basis: def2-TZVP
   F. Weigend and R. Ahlrichs, Phys. Chem. Chem. Phys. 7, 3297 (2005).

================================================================================
                                        WARNINGS
                       Please study these warnings very carefully!
================================================================================


WARNING: The frozen-core approximation for MP2-gradient calculations is turned on by default.

INFO   : the flag for use of LIBINT has been found!

================================================================================
                                       INPUT FILE
================================================================================
NAME = 12h2o.su.etal.mol1,4,6,9,11-orca.engrad-mp2.def2tzvp.frozencore.inp
|  1> # 12h2o.su.etal.mol1,4,6,9,11
|  2> ! MP2 def2-TZVP EnGrad TightSCF
|  3> 
|  4> %pal
|  5>     nprocs 6
|  6> end
|  7> 
|  8> %maxcore 8000
|  9> 
| 10> %scf
| 11>     ConvForced true
| 12> end
| 13> 
| 14> *xyz 0 1
| 15> O  -1.794470000  -0.923410000   2.768350000
| 16> H  -2.338250000  -1.359750000   3.430940000
| 17> H  -0.879480000  -1.303000000   2.865760000
| 18> O  -0.885520000   1.737840000   0.052730000
| 19> H  -1.032320000   2.090180000  -0.841890000
| 20> H  -1.284090000   0.839590000   0.017130000
| 21> O   1.737840000   0.885520000  -0.052730000
| 22> H   2.090180000   1.032320000   0.841890000
| 23> H   0.839590000   1.284090000  -0.017130000
| 24> O   0.741530000  -1.752130000   2.896280000
| 25> H   0.920500000  -2.036450000   1.984040000
| 26> H   1.242140000  -0.921210000   2.984230000
| 27> O  -0.741530000   1.752130000   2.896280000
| 28> H  -0.920500000   2.036450000   1.984040000
| 29> H  -1.242140000   0.921210000   2.984230000
| 30> *
| 31> 
| 32>                          ****END OF INPUT****
================================================================================

                     *******************************
                     * Energy+Gradient Calculation *
                     *******************************

---------------------------------
CARTESIAN COORDINATES (ANGSTROEM)
---------------------------------
  O     -1.794470   -0.923410    2.768350
  H     -2.338250   -1.359750    3.430940
  H     -0.879480   -1.303000    2.865760
  O     -0.885520    1.737840    0.052730
  H     -1.032320    2.090180   -0.841890
  H     -1.284090    0.839590    0.017130
  O      1.737840    0.885520   -0.052730
  H      2.090180    1.032320    0.841890
  H      0.839590    1.284090   -0.017130
  O      0.741530   -1.752130    2.896280
  H      0.920500   -2.036450    1.984040
  H      1.242140   -0.921210    2.984230
  O     -0.741530    1.752130    2.896280
  H     -0.920500    2.036450    1.984040
  H     -1.242140    0.921210    2.984230

----------------------------
CARTESIAN COORDINATES (A.U.)
----------------------------
  NO LB      ZA    FRAG     MASS         X           Y           Z
   0 O     8.0000    0    15.999   -3.391057   -1.744992    5.231423
   1 H     1.0000    0     1.008   -4.418652   -2.569555    6.483537
   2 H     1.0000    0     1.008   -1.661976   -2.462313    5.415502
   3 O     8.0000    0    15.999   -1.673390    3.284042    0.099645
   4 H     1.0000    0     1.008   -1.950802    3.949868   -1.590942
   5 H     1.0000    0     1.008   -2.426578    1.586595    0.032371
   6 O     8.0000    0    15.999    3.284042    1.673390   -0.099645
   7 H     1.0000    0     1.008    3.949868    1.950802    1.590942
   8 H     1.0000    0     1.008    1.586595    2.426578   -0.032371
   9 O     8.0000    0    15.999    1.401289   -3.311046    5.473176
  10 H     1.0000    0     1.008    1.739493   -3.848333    3.749292
  11 H     1.0000    0     1.008    2.347304   -1.740835    5.639377
  12 O     8.0000    0    15.999   -1.401289    3.311046    5.473176
  13 H     1.0000    0     1.008   -1.739493    3.848333    3.749292
  14 H     1.0000    0     1.008   -2.347304    1.740835    5.639377

--------------------------------
INTERNAL COORDINATES (ANGSTROEM)
--------------------------------
 O      0   0   0     0.000000000000     0.00000000     0.00000000
 H      1   0   0     0.961828878803     0.00000000     0.00000000
 H      1   2   0     0.995381322057   106.21731035     0.00000000
 O      1   2   3     3.909352075396   156.75189195   192.19368952
 H      4   1   2     0.972645187106   148.25827701   289.33301105
 H      4   1   2     0.983350632989    46.29716176   266.74328444
 O      4   1   2     2.760360281485    92.13838953   170.70547830
 H      7   4   1     0.972645187106   105.22009255   298.61152741
 H      7   4   1     0.983350632989     5.92595386   222.96568013
 O      3   1   2     1.682356278379   171.61043709   195.73896161
 H     10   3   1     0.972136791249   103.79460456   289.35412162
 H     10   3   1     0.974050112161   105.61118924    38.30604821
 O      4   1   2     2.847229166523    47.26764468    83.33509555
 H     13   4   1     0.972136791249    19.08819947   225.99629915
 H     13   4   1     0.974050112161    93.43428486   350.09257904

---------------------------
INTERNAL COORDINATES (A.U.)
---------------------------
 O      0   0   0     0.000000000000     0.00000000     0.00000000
 H      1   0   0     1.817593168635     0.00000000     0.00000000
 H      1   2   0     1.880998097508   106.21731035     0.00000000
 O      1   2   3     7.387604783574   156.75189195   192.19368952
 H      4   1   2     1.838033029106   148.25827701   289.33301105
 H      4   1   2     1.858263389967    46.29716176   266.74328444
 O      4   1   2     5.216324962960    92.13838953   170.70547830
 H      7   4   1     1.838033029106   105.22009255   298.61152741
 H      7   4   1     1.858263389967     5.92595386   222.96568013
 O      3   1   2     3.179192625819   171.61043709   195.73896161
 H     10   3   1     1.837072300170   103.79460456   289.35412162
 H     10   3   1     1.840687952699   105.61118924    38.30604821
 O      4   1   2     5.380483365242    47.26764468    83.33509555
 H     13   4   1     1.837072300170    19.08819947   225.99629915
 H     13   4   1     1.840687952699    93.43428486   350.09257904

---------------------
BASIS SET INFORMATION
---------------------
There are 2 groups of distinct atoms

 Group   1 Type O   : 11s6p2d1f contracted to 5s3p2d1f pattern {62111/411/11/1}
 Group   2 Type H   : 5s1p contracted to 3s1p pattern {311/1}

Atom   0O    basis set group =>   1
Atom   1H    basis set group =>   2
Atom   2H    basis set group =>   2
Atom   3O    basis set group =>   1
Atom   4H    basis set group =>   2
Atom   5H    basis set group =>   2
Atom   6O    basis set group =>   1
Atom   7H    basis set group =>   2
Atom   8H    basis set group =>   2
Atom   9O    basis set group =>   1
Atom  10H    basis set group =>   2
Atom  11H    basis set group =>   2
Atom  12O    basis set group =>   1
Atom  13H    basis set group =>   2
Atom  14H    basis set group =>   2


           ************************************************************
           *        Program running with 6 parallel MPI-processes     *
           *              working on a common directory               *
           ************************************************************
------------------------------------------------------------------------------
                           ORCA GTO INTEGRAL CALCULATION
------------------------------------------------------------------------------

                         BASIS SET STATISTICS AND STARTUP INFO

 # of primitive gaussian shells          ...  160
 # of primitive gaussian functions       ...  310
 # of contracted shells                  ...   95
 # of contracted basis functions         ...  215
 Highest angular momentum                ...    3
 Maximum contraction depth               ...    6
 Integral package used                   ... LIBINT
 Integral threshhold            Thresh   ...  2.500e-11
 Primitive cut-off              TCut     ...  2.500e-12


------------------------------ INTEGRAL EVALUATION ----------------------------


 * One electron integrals 
 Pre-screening matrix                    ... done
 Shell pair data                         ... done (   0.001 sec)



           ************************************************************
           *        Program running with 6 parallel MPI-processes     *
           *              working on a common directory               *
           ************************************************************
-------------------------------------------------------------------------------
                                 ORCA SCF
-------------------------------------------------------------------------------

------------
SCF SETTINGS
------------
Hamiltonian:
 Ab initio Hamiltonian  Method          .... Hartree-Fock(GTOs)


General Settings:
 Integral files         IntName         .... 12h2o.su.etal.mol1,4,6,9,11-orca.engrad-mp2.def2tzvp.frozencore
 Hartree-Fock type      HFTyp           .... RHF
 Total Charge           Charge          ....    0
 Multiplicity           Mult            ....    1
 Number of Electrons    NEL             ....   50
 Basis Dimension        Dim             ....  215
 Nuclear Repulsion      ENuc            ....    198.4465098481 Eh

Convergence Acceleration:
 DIIS                   CNVDIIS         .... on
   Start iteration      DIISMaxIt       ....    12
   Startup error        DIISStart       ....  0.200000
   # of expansion vecs  DIISMaxEq       ....     5
   Bias factor          DIISBfac        ....   1.050
   Max. coefficient     DIISMaxC        ....  10.000
 Newton-Raphson         CNVNR           .... off
 SOSCF                  CNVSOSCF        .... on
   Start iteration      SOSCFMaxIt      ....   150
   Startup grad/error   SOSCFStart      ....  0.003300
 Level Shifting         CNVShift        .... on
   Level shift para.    LevelShift      ....    0.2500
   Turn off err/grad.   ShiftErr        ....    0.0010
 Zerner damping         CNVZerner       .... off
 Static damping         CNVDamp         .... on
   Fraction old density DampFac         ....    0.7000
   Max. Damping (<1)    DampMax         ....    0.9800
   Min. Damping (>=0)   DampMin         ....    0.0000
   Turn off err/grad.   DampErr         ....    0.1000
 Fernandez-Rico         CNVRico         .... off

SCF Procedure:
 Maximum # iterations   MaxIter         ....   125
 SCF integral mode      SCFMode         .... Direct
   Integral package                     .... LIBINT
 Reset frequency        DirectResetFreq ....    20
 Integral Threshold     Thresh          ....  2.500e-11 Eh
 Primitive CutOff       TCut            ....  2.500e-12 Eh

Convergence Tolerance:
 Convergence Check Mode ConvCheckMode   .... Total+1el-Energy
 Convergence forced     ConvForced      .... 1
 Energy Change          TolE            ....  1.000e-08 Eh
 1-El. energy change                    ....  1.000e-05 Eh
 Orbital Gradient       TolG            ....  1.000e-05
 Orbital Rotation angle TolX            ....  1.000e-05
 DIIS Error             TolErr          ....  5.000e-07


Diagonalization of the overlap matrix:
Smallest eigenvalue                        ... 4.095e-03
Time for diagonalization                   ...    0.008 sec
Threshold for overlap eigenvalues          ... 1.000e-08
Number of eigenvalues below threshold      ... 0
Time for construction of square roots      ...    0.004 sec
Total time needed                          ...    0.012 sec

-------------------
DFT GRID GENERATION
-------------------

General Integration Accuracy     IntAcc      ...  4.340
Radial Grid Type                 RadialGrid  ... Gauss-Chebyshev
Angular Grid (max. acc.)         AngularGrid ... Lebedev-110
Angular grid pruning method      GridPruning ... 3 (G Style)
Weight generation scheme         WeightScheme... Becke
Basis function cutoff            BFCut       ...    1.0000e-11
Integration weight cutoff        WCut        ...    1.0000e-14
Grids for H and He will be reduced by one unit

# of grid points (after initial pruning)     ...  16520 (   0.0 sec)
# of grid points (after weights+screening)   ...  15685 (   0.0 sec)
nearest neighbour list constructed           ...    0.0 sec
Grid point re-assignment to atoms done       ...    0.0 sec
Grid point division into batches done        ...    0.0 sec
Reduced shell lists constructed in    0.0 sec

Total number of grid points                  ...    15685
Total number of batches                      ...      253
Average number of points per batch           ...       61
Average number of grid points per atom       ...     1046
Average number of shells per batch           ...    53.41 (56.22%)
Average number of basis functions per batch  ...   111.05 (51.65%)
Average number of large shells per batch     ...    39.23 (73.45%)
Average number of large basis fcns per batch ...    79.00 (71.14%)
Maximum spatial batch extension              ...  12.83, 14.40, 14.52 au
Average spatial batch extension              ...   0.57,  0.65,  0.64 au

Time for grid setup =    0.043 sec

------------------------------
INITIAL GUESS: MODEL POTENTIAL
------------------------------
Loading Hartree-Fock densities                     ... done
Calculating cut-offs                               ... done
Setting up the integral package                    ... done
Initializing the effective Hamiltonian             ... done
Starting the Coulomb interaction                   ... done (   0.0 sec)
Reading the grid                                   ... done
Mapping shells                                     ... done
Starting the XC term evaluation                    ... done (   0.0 sec)
Transforming the Hamiltonian                       ... done (   0.0 sec)
Diagonalizing the Hamiltonian                      ... done (   0.0 sec)
Back transforming the eigenvectors                 ... done (   0.0 sec)
Now organizing SCF variables                       ... done
                      ------------------
                      INITIAL GUESS DONE (   0.2 sec)
                      ------------------
--------------
SCF ITERATIONS
--------------
ITER       Energy         Delta-E        Max-DP      RMS-DP      [F,P]     Damp
               ***  Starting incremental Fock matrix formation  ***
  0   -379.8612513421   0.000000000000 0.04380314  0.00106221  0.3507613 0.7000
  1   -380.0370187746  -0.175767432497 0.02903866  0.00073540  0.2169168 0.7000
                               ***Turning on DIIS***
  2   -380.1300634329  -0.093044658276 0.01653991  0.00041059  0.1635820 0.7000
  3   -380.9631423526  -0.833078919726 0.00723235  0.00018826  0.1218386 0.7000
  4   -380.7948555364   0.168286816152 0.01599345  0.00043739  0.0861763 0.0000
  5   -380.3435874836   0.451268052868 0.00216317  0.00007059  0.0054002 0.0000
                      *** Initiating the SOSCF procedure ***
                           *** Shutting down DIIS ***
                      *** Re-Reading the Fockian *** 
                      *** Removing any level shift *** 
ITER      Energy       Delta-E        Grad      Rot      Max-DP    RMS-DP
  6   -380.31740901   0.0261784691  0.000887  0.000887  0.001325  0.000043
               *** Restarting incremental Fock matrix formation ***
  7   -380.30969044   0.0077185740  0.000325  0.000430  0.000616  0.000019
  8   -380.30969771  -0.0000072648  0.000123  0.000338  0.000457  0.000015
  9   -380.30969942  -0.0000017165  0.000069  0.000037  0.000088  0.000003
 10   -380.30969956  -0.0000001378  0.000015  0.000007  0.000020  0.000001
 11   -380.30969956  -0.0000000041  0.000003  0.000003  0.000005  0.000000
                  ***Gradient check signals convergence***
              ***Rediagonalizing the Fockian in SOSCF/NRSCF***

               *****************************************************
               *                     SUCCESS                       *
               *           SCF CONVERGED AFTER  12 CYCLES          *
               *****************************************************


----------------
TOTAL SCF ENERGY
----------------

Total Energy       :         -380.30969956 Eh          -10348.75305 eV

Components:
Nuclear Repulsion  :          198.44650985 Eh            5400.00406 eV
Electronic Energy  :         -578.75620941 Eh          -15748.75711 eV
One Electron Energy:         -920.24738460 Eh          -25041.20441 eV
Two Electron Energy:          341.49117518 Eh            9292.44730 eV

Virial components:
Potential Energy   :         -760.11576234 Eh          -20683.80144 eV
Kinetic Energy     :          379.80606278 Eh           10335.04839 eV
Virial Ratio       :            2.00132604


---------------
SCF CONVERGENCE
---------------

  Last Energy change         ...    2.6262e-11  Tolerance :   1.0000e-08
  Last MAX-Density change    ...    1.6712e-06  Tolerance :   1.0000e-07
  Last RMS-Density change    ...    4.4942e-08  Tolerance :   5.0000e-09
  Last Orbital Gradient      ...    9.5925e-07  Tolerance :   1.0000e-05
  Last Orbital Rotation      ...    1.0041e-06  Tolerance :   1.0000e-05

             **** THE GBW FILE WAS UPDATED (12h2o.su.etal.mol1,4,6,9,11-orca.engrad-mp2.def2tzvp.frozencore.gbw) ****
             **** DENSITY FILE WAS UPDATED (12h2o.su.etal.mol1,4,6,9,11-orca.engrad-mp2.def2tzvp.frozencore.scfp) ****
             **** ENERGY FILE WAS UPDATED (12h2o.su.etal.mol1,4,6,9,11-orca.engrad-mp2.def2tzvp.frozencore.en.tmp) ****
             **** THE GBW FILE WAS UPDATED (12h2o.su.etal.mol1,4,6,9,11-orca.engrad-mp2.def2tzvp.frozencore.gbw) ****
             **** DENSITY FILE WAS UPDATED (12h2o.su.etal.mol1,4,6,9,11-orca.engrad-mp2.def2tzvp.frozencore.scfp) ****
----------------
ORBITAL ENERGIES
----------------

  NO   OCC          E(Eh)            E(eV) 
   0   2.0000     -20.611966      -560.8801 
   1   2.0000     -20.601502      -560.5954 
   2   2.0000     -20.551117      -559.2243 
   3   2.0000     -20.540025      -558.9225 
   4   2.0000     -20.515691      -558.2603 
   5   2.0000      -1.394860       -37.9561 
   6   2.0000      -1.387341       -37.7515 
   7   2.0000      -1.335267       -36.3345 
   8   2.0000      -1.320948       -35.9448 
   9   2.0000      -1.300529       -35.3892 
  10   2.0000      -0.752648       -20.4806 
  11   2.0000      -0.743883       -20.2421 
  12   2.0000      -0.720114       -19.5953 
  13   2.0000      -0.698598       -19.0098 
  14   2.0000      -0.680459       -18.5162 
  15   2.0000      -0.633653       -17.2426 
  16   2.0000      -0.623455       -16.9651 
  17   2.0000      -0.585649       -15.9363 
  18   2.0000      -0.577143       -15.7049 
  19   2.0000      -0.543600       -14.7921 
  20   2.0000      -0.534452       -14.5432 
  21   2.0000      -0.528508       -14.3814 
  22   2.0000      -0.497586       -13.5400 
  23   2.0000      -0.487953       -13.2779 
  24   2.0000      -0.465531       -12.6677 
  25   0.0000       0.092150         2.5075 
  26   0.0000       0.121689         3.3113 
  27   0.0000       0.151519         4.1230 
  28   0.0000       0.169996         4.6258 
  29   0.0000       0.191034         5.1983 
  30   0.0000       0.218684         5.9507 
  31   0.0000       0.244640         6.6570 
  32   0.0000       0.309614         8.4250 
  33   0.0000       0.318288         8.6611 
  34   0.0000       0.332668         9.0524 
  35   0.0000       0.431007        11.7283 
  36   0.0000       0.477620        12.9967 
  37   0.0000       0.495756        13.4902 
  38   0.0000       0.513942        13.9851 
  39   0.0000       0.521087        14.1795 
  40   0.0000       0.536436        14.5972 
  41   0.0000       0.551540        15.0082 
  42   0.0000       0.570048        15.5118 
  43   0.0000       0.576459        15.6862 
  44   0.0000       0.608760        16.5652 
  45   0.0000       0.611661        16.6442 
  46   0.0000       0.624434        16.9917 
  47   0.0000       0.627764        17.0823 
  48   0.0000       0.635876        17.3031 
  49   0.0000       0.674909        18.3652 
  50   0.0000       0.704389        19.1674 
  51   0.0000       0.707567        19.2539 
  52   0.0000       0.732468        19.9315 
  53   0.0000       0.747567        20.3423 
  54   0.0000       0.762436        20.7470 
  55   0.0000       0.781437        21.2640 
  56   0.0000       0.808588        22.0028 
  57   0.0000       0.815730        22.1971 
  58   0.0000       0.835355        22.7312 
  59   0.0000       0.891228        24.2515 
  60   0.0000       0.941974        25.6324 
  61   0.0000       0.973486        26.4899 
  62   0.0000       0.979303        26.6482 
  63   0.0000       1.038963        28.2716 
  64   0.0000       1.059035        28.8178 
  65   0.0000       1.351274        36.7700 
  66   0.0000       1.353677        36.8354 
  67   0.0000       1.375240        37.4222 
  68   0.0000       1.381864        37.6024 
  69   0.0000       1.436990        39.1025 
  70   0.0000       1.441376        39.2218 
  71   0.0000       1.460358        39.7384 
  72   0.0000       1.473265        40.0896 
  73   0.0000       1.486439        40.4481 
  74   0.0000       1.536518        41.8108 
  75   0.0000       1.558661        42.4133 
  76   0.0000       1.588496        43.2252 
  77   0.0000       1.589738        43.2590 
  78   0.0000       1.601248        43.5722 
  79   0.0000       1.647682        44.8357 
  80   0.0000       1.781939        48.4890 
  81   0.0000       1.793830        48.8126 
  82   0.0000       1.811270        49.2872 
  83   0.0000       1.837304        49.9956 
  84   0.0000       1.868139        50.8347 
  85   0.0000       1.896445        51.6049 
  86   0.0000       1.945946        52.9519 
  87   0.0000       1.976039        53.7708 
  88   0.0000       1.989273        54.1309 
  89   0.0000       2.027772        55.1785 
  90   0.0000       2.035779        55.3964 
  91   0.0000       2.078072        56.5472 
  92   0.0000       2.111144        57.4471 
  93   0.0000       2.138320        58.1866 
  94   0.0000       2.176692        59.2308 
  95   0.0000       2.230557        60.6965 
  96   0.0000       2.278678        62.0060 
  97   0.0000       2.297988        62.5314 
  98   0.0000       2.311258        62.8925 
  99   0.0000       2.326096        63.2963 
 100   0.0000       2.341597        63.7181 
 101   0.0000       2.346638        63.8553 
 102   0.0000       2.375666        64.6452 
 103   0.0000       2.400625        65.3243 
 104   0.0000       2.417476        65.7829 
 105   0.0000       2.446180        66.5639 
 106   0.0000       2.484300        67.6012 
 107   0.0000       2.487348        67.6842 
 108   0.0000       2.541107        69.1470 
 109   0.0000       2.548178        69.3395 
 110   0.0000       2.593292        70.5671 
 111   0.0000       2.597261        70.6751 
 112   0.0000       2.610225        71.0278 
 113   0.0000       2.634449        71.6870 
 114   0.0000       2.643746        71.9400 
 115   0.0000       2.659390        72.3657 
 116   0.0000       2.701126        73.5014 
 117   0.0000       2.728321        74.2414 
 118   0.0000       2.739009        74.5322 
 119   0.0000       2.792604        75.9906 
 120   0.0000       2.888786        78.6079 
 121   0.0000       2.907549        79.1184 
 122   0.0000       2.920128        79.4607 
 123   0.0000       2.927909        79.6724 
 124   0.0000       2.948996        80.2463 
 125   0.0000       2.956640        80.4543 
 126   0.0000       3.009117        81.8822 
 127   0.0000       3.026684        82.3602 
 128   0.0000       3.037450        82.6532 
 129   0.0000       3.088804        84.0506 
 130   0.0000       3.105573        84.5069 
 131   0.0000       3.148649        85.6791 
 132   0.0000       3.184210        86.6468 
 133   0.0000       3.186225        86.7016 
 134   0.0000       3.219557        87.6086 
 135   0.0000       3.266054        88.8739 
 136   0.0000       3.292124        89.5832 
 137   0.0000       3.354431        91.2787 
 138   0.0000       3.421272        93.0975 
 139   0.0000       3.496998        95.1581 
 140   0.0000       3.997853       108.7871 
 141   0.0000       4.000822       108.8679 
 142   0.0000       4.073700       110.8510 
 143   0.0000       4.099091       111.5419 
 144   0.0000       4.121420       112.1495 
 145   0.0000       4.258483       115.8792 
 146   0.0000       4.272608       116.2636 
 147   0.0000       4.350835       118.3923 
 148   0.0000       4.360098       118.6443 
 149   0.0000       4.381213       119.2189 
 150   0.0000       5.496986       149.5806 
 151   0.0000       5.506614       149.8426 
 152   0.0000       5.552074       151.0796 
 153   0.0000       5.565939       151.4569 
 154   0.0000       5.587874       152.0538 
 155   0.0000       5.622837       153.0052 
 156   0.0000       5.643557       153.5690 
 157   0.0000       5.659403       154.0002 
 158   0.0000       5.672511       154.3569 
 159   0.0000       5.694394       154.9523 
 160   0.0000       5.773220       157.0973 
 161   0.0000       5.790623       157.5709 
 162   0.0000       5.796847       157.7402 
 163   0.0000       5.800307       157.8344 
 164   0.0000       5.837516       158.8469 
 165   0.0000       5.839648       158.9049 
 166   0.0000       5.841136       158.9454 
 167   0.0000       5.853775       159.2893 
 168   0.0000       5.857124       159.3804 
 169   0.0000       5.875993       159.8939 
 170   0.0000       5.885920       160.1640 
 171   0.0000       5.913082       160.9031 
 172   0.0000       5.920431       161.1031 
 173   0.0000       5.936719       161.5463 
 174   0.0000       5.943667       161.7354 
 175   0.0000       6.422515       174.7655 
 176   0.0000       6.448913       175.4838 
 177   0.0000       6.475221       176.1997 
 178   0.0000       6.482711       176.4035 
 179   0.0000       6.531913       177.7424 
 180   0.0000       6.652638       181.0275 
 181   0.0000       6.672964       181.5806 
 182   0.0000       6.704580       182.4409 
 183   0.0000       6.737714       183.3425 
 184   0.0000       6.759643       183.9392 
 185   0.0000       6.827328       185.7810 
 186   0.0000       6.830239       185.8602 
 187   0.0000       6.846092       186.2916 
 188   0.0000       6.865360       186.8160 
 189   0.0000       6.877870       187.1563 
 190   0.0000       6.889092       187.4617 
 191   0.0000       6.918081       188.2506 
 192   0.0000       6.920214       188.3086 
 193   0.0000       6.922963       188.3834 
 194   0.0000       6.953741       189.2209 
 195   0.0000       6.977877       189.8777 
 196   0.0000       6.988146       190.1571 
 197   0.0000       7.000101       190.4824 
 198   0.0000       7.025600       191.1763 
 199   0.0000       7.055990       192.0033 
 200   0.0000       7.340171       199.7362 
 201   0.0000       7.385569       200.9716 
 202   0.0000       7.427116       202.1021 
 203   0.0000       7.445739       202.6088 
 204   0.0000       7.470240       203.2756 
 205   0.0000       7.487145       203.7356 
 206   0.0000       7.507970       204.3023 
 207   0.0000       7.558377       205.6739 
 208   0.0000       7.572894       206.0689 
 209   0.0000       7.622193       207.4104 
 210   0.0000      44.908130      1222.0124 
 211   0.0000      44.913488      1222.1581 
 212   0.0000      44.964064      1223.5344 
 213   0.0000      44.985190      1224.1092 
 214   0.0000      45.021051      1225.0851 

                    ********************************
                    * MULLIKEN POPULATION ANALYSIS *
                    ********************************

-----------------------
MULLIKEN ATOMIC CHARGES
-----------------------
   0 O :   -0.774260
   1 H :    0.351559
   2 H :    0.404587
   3 O :   -0.738184
   4 H :    0.375624
   5 H :    0.383242
   6 O :   -0.739259
   7 H :    0.336735
   8 H :    0.380316
   9 O :   -0.715017
  10 H :    0.372274
  11 H :    0.376448
  12 O :   -0.761440
  13 H :    0.375139
  14 H :    0.372237
Sum of atomic charges:    0.0000000

--------------------------------
MULLIKEN REDUCED ORBITAL CHARGES
--------------------------------
  0 O s       :     3.806395  s :     3.806395
      pz      :     1.732154  p :     4.943546
      px      :     1.426470
      py      :     1.784922
      dz2     :     0.003961  d :     0.022889
      dxz     :     0.004741
      dyz     :     0.005224
      dx2y2   :     0.002325
      dxy     :     0.006637
      f0      :     0.000089  f :     0.001431
      f+1     :     0.000332
      f-1     :     0.000177
      f+2     :     0.000062
      f-2     :     0.000356
      f+3     :     0.000082
      f-3     :     0.000332
  1 H s       :     0.602753  s :     0.602753
      pz      :     0.017092  p :     0.045688
      px      :     0.013706
      py      :     0.014890
  2 H s       :     0.539305  s :     0.539305
      pz      :     0.010606  p :     0.056108
      px      :     0.032238
      py      :     0.013264
  3 O s       :     3.806883  s :     3.806883
      pz      :     1.568040  p :     4.904820
      px      :     1.854733
      py      :     1.482048
      dz2     :     0.011368  d :     0.025041
      dxz     :     0.002237
      dyz     :     0.002729
      dx2y2   :     0.003578
      dxy     :     0.005129
      f0      :     0.000186  f :     0.001439
      f+1     :     0.000119
      f-1     :     0.000456
      f+2     :     0.000070
      f-2     :     0.000038
      f+3     :     0.000459
      f-3     :     0.000110
  4 H s       :     0.580658  s :     0.580658
      pz      :     0.019128  p :     0.043718
      px      :     0.013157
      py      :     0.011432
  5 H s       :     0.575190  s :     0.575190
      pz      :     0.009086  p :     0.041568
      px      :     0.013768
      py      :     0.018714
  6 O s       :     3.810603  s :     3.810603
      pz      :     1.526058  p :     4.902062
      px      :     1.500815
      py      :     1.875189
      dz2     :     0.011591  d :     0.025142
      dxz     :     0.002936
      dyz     :     0.002579
      dx2y2   :     0.003042
      dxy     :     0.004995
      f0      :     0.000185  f :     0.001452
      f+1     :     0.000455
      f-1     :     0.000124
      f+2     :     0.000077
      f-2     :     0.000042
      f+3     :     0.000118
      f-3     :     0.000451
  7 H s       :     0.618352  s :     0.618352
      pz      :     0.018276  p :     0.044913
      px      :     0.012228
      py      :     0.014409
  8 H s       :     0.565779  s :     0.565779
      pz      :     0.009675  p :     0.053906
      px      :     0.028549
      py      :     0.015682
  9 O s       :     3.800170  s :     3.800170
      pz      :     1.531218  p :     4.887583
      px      :     1.791099
      py      :     1.565266
      dz2     :     0.012575  d :     0.025820
      dxz     :     0.002445
      dyz     :     0.001240
      dx2y2   :     0.002448
      dxy     :     0.007112
      f0      :     0.000248  f :     0.001445
      f+1     :     0.000163
      f-1     :     0.000394
      f+2     :     0.000051
      f-2     :     0.000057
      f+3     :     0.000480
      f-3     :     0.000052
 10 H s       :     0.584190  s :     0.584190
      pz      :     0.019555  p :     0.043536
      px      :     0.012443
      py      :     0.011537
 11 H s       :     0.580397  s :     0.580397
      pz      :     0.010076  p :     0.043155
      px      :     0.014494
      py      :     0.018585
 12 O s       :     3.806596  s :     3.806596
      pz      :     1.539841  p :     4.928727
      px      :     1.820518
      py      :     1.568369
      dz2     :     0.011545  d :     0.024681
      dxz     :     0.002854
      dyz     :     0.001254
      dx2y2   :     0.002009
      dxy     :     0.007019
      f0      :     0.000256  f :     0.001437
      f+1     :     0.000160
      f-1     :     0.000371
      f+2     :     0.000055
      f-2     :     0.000054
      f+3     :     0.000478
      f-3     :     0.000062
 13 H s       :     0.576382  s :     0.576382
      pz      :     0.023477  p :     0.048479
      px      :     0.013259
      py      :     0.011743
 14 H s       :     0.577177  s :     0.577177
      pz      :     0.010108  p :     0.050587
      px      :     0.016515
      py      :     0.023963


                     *******************************
                     * LOEWDIN POPULATION ANALYSIS *
                     *******************************

----------------------
LOEWDIN ATOMIC CHARGES
----------------------
   0 O :   -0.348833
   1 H :    0.155856
   2 H :    0.154711
   3 O :   -0.286554
   4 H :    0.176397
   5 H :    0.186224
   6 O :   -0.360990
   7 H :    0.156787
   8 H :    0.149986
   9 O :   -0.278475
  10 H :    0.176393
  11 H :    0.178234
  12 O :   -0.359507
  13 H :    0.150553
  14 H :    0.149220

-------------------------------
LOEWDIN REDUCED ORBITAL CHARGES
-------------------------------
  0 O s       :     3.460886  s :     3.460886
      pz      :     1.710535  p :     4.857020
      px      :     1.399027
      py      :     1.747457
      dz2     :     0.004342  d :     0.028952
      dxz     :     0.006910
      dyz     :     0.005324
      dx2y2   :     0.003741
      dxy     :     0.008634
      f0      :     0.000074  f :     0.001976
      f+1     :     0.000439
      f-1     :     0.000264
      f+2     :     0.000031
      f-2     :     0.000618
      f+3     :     0.000083
      f-3     :     0.000466
  1 H s       :     0.679244  s :     0.679244
      pz      :     0.065826  p :     0.164900
      px      :     0.045950
      py      :     0.053125
  2 H s       :     0.650102  s :     0.650102
      pz      :     0.033483  p :     0.195187
      px      :     0.114169
      py      :     0.047535
  3 O s       :     3.463975  s :     3.463975
      pz      :     1.537605  p :     4.787533
      px      :     1.790611
      py      :     1.459317
      dz2     :     0.015851  d :     0.032953
      dxz     :     0.001429
      dyz     :     0.004021
      dx2y2   :     0.005206
      dxy     :     0.006445
      f0      :     0.000373  f :     0.002093
      f+1     :     0.000209
      f-1     :     0.000743
      f+2     :     0.000041
      f-2     :     0.000045
      f+3     :     0.000609
      f-3     :     0.000074
  4 H s       :     0.664685  s :     0.664685
      pz      :     0.080682  p :     0.158919
      px      :     0.042715
      py      :     0.035522
  5 H s       :     0.659265  s :     0.659265
      pz      :     0.029156  p :     0.154512
      px      :     0.049260
      py      :     0.076096
  6 O s       :     3.471366  s :     3.471366
      pz      :     1.537276  p :     4.856466
      px      :     1.480918
      py      :     1.838273
      dz2     :     0.015080  d :     0.031093
      dxz     :     0.004331
      dyz     :     0.001723
      dx2y2   :     0.003914
      dxy     :     0.006045
      f0      :     0.000394  f :     0.002066
      f+1     :     0.000759
      f-1     :     0.000193
      f+2     :     0.000049
      f-2     :     0.000045
      f+3     :     0.000066
      f-3     :     0.000559
  7 H s       :     0.684507  s :     0.684507
      pz      :     0.078455  p :     0.158706
      px      :     0.036635
      py      :     0.043616
  8 H s       :     0.666715  s :     0.666715
      pz      :     0.029214  p :     0.183299
      px      :     0.101575
      py      :     0.052510
  9 O s       :     3.457451  s :     3.457451
      pz      :     1.520701  p :     4.785763
      px      :     1.728653
      py      :     1.536410
      dz2     :     0.016569  d :     0.033084
      dxz     :     0.001944
      dyz     :     0.001976
      dx2y2   :     0.003612
      dxy     :     0.008984
      f0      :     0.000452  f :     0.002177
      f+1     :     0.000343
      f-1     :     0.000586
      f+2     :     0.000022
      f-2     :     0.000049
      f+3     :     0.000698
      f-3     :     0.000027
 10 H s       :     0.664845  s :     0.664845
      pz      :     0.081708  p :     0.158762
      px      :     0.041458
      py      :     0.035596
 11 H s       :     0.663739  s :     0.663739
      pz      :     0.029668  p :     0.158027
      px      :     0.054961
      py      :     0.073398
 12 O s       :     3.460698  s :     3.460698
      pz      :     1.527227  p :     4.866700
      px      :     1.792301
      py      :     1.547172
      dz2     :     0.015124  d :     0.030083
      dxz     :     0.002234
      dyz     :     0.001999
      dx2y2   :     0.002064
      dxy     :     0.008660
      f0      :     0.000460  f :     0.002027
      f+1     :     0.000305
      f-1     :     0.000545
      f+2     :     0.000023
      f-2     :     0.000048
      f+3     :     0.000645
      f-3     :     0.000002
 13 H s       :     0.679711  s :     0.679711
      pz      :     0.090120  p :     0.169736
      px      :     0.042502
      py      :     0.037114
 14 H s       :     0.675885  s :     0.675885
      pz      :     0.030873  p :     0.174895
      px      :     0.058020
      py      :     0.086003


                      *****************************
                      * MAYER POPULATION ANALYSIS *
                      *****************************

  NA   - Mulliken gross atomic population
  ZA   - Total nuclear charge
  QA   - Mulliken gross atomic charge
  VA   - Mayer's total valence
  BVA  - Mayer's bonded valence
  FA   - Mayer's free valence

  ATOM       NA         ZA         QA         VA         BVA        FA
  0 O      8.7743     8.0000    -0.7743     1.6946     1.6946     0.0000
  1 H      0.6484     1.0000     0.3516     0.8933     0.8933    -0.0000
  2 H      0.5954     1.0000     0.4046     0.8690     0.8690     0.0000
  3 O      8.7382     8.0000    -0.7382     1.7616     1.7616    -0.0000
  4 H      0.6244     1.0000     0.3756     0.8743     0.8743    -0.0000
  5 H      0.6168     1.0000     0.3832     0.8699     0.8699    -0.0000
  6 O      8.7393     8.0000    -0.7393     1.7278     1.7278     0.0000
  7 H      0.6633     1.0000     0.3367     0.9028     0.9028    -0.0000
  8 H      0.6197     1.0000     0.3803     0.8912     0.8912     0.0000
  9 O      8.7150     8.0000    -0.7150     1.7729     1.7729     0.0000
 10 H      0.6277     1.0000     0.3723     0.8766     0.8766     0.0000
 11 H      0.6236     1.0000     0.3764     0.8782     0.8782    -0.0000
 12 O      8.7614     8.0000    -0.7614     1.7242     1.7242    -0.0000
 13 H      0.6249     1.0000     0.3751     0.8796     0.8796    -0.0000
 14 H      0.6278     1.0000     0.3722     0.8976     0.8976     0.0000

  Mayer bond orders larger than 0.100000
B(  0-O ,  1-H ) :   0.8849 B(  0-O ,  2-H ) :   0.7994 B(  3-O ,  4-H ) :   0.8658 
B(  3-O ,  5-H ) :   0.8563 B(  6-O ,  7-H ) :   0.8960 B(  6-O ,  8-H ) :   0.8388 
B(  9-O , 10-H ) :   0.8683 B(  9-O , 11-H ) :   0.8628 B( 12-O , 13-H ) :   0.8671 
B( 12-O , 14-H ) :   0.8500 

-------
TIMINGS
-------

Total SCF time: 0 days 0 hours 0 min 8 sec 

Total time                  ....       8.130 sec
Sum of individual times     ....       7.901 sec  ( 97.2%)

Fock matrix formation       ....       7.622 sec  ( 93.8%)
Diagonalization             ....       0.052 sec  (  0.6%)
Density matrix formation    ....       0.006 sec  (  0.1%)
Population analysis         ....       0.006 sec  (  0.1%)
Initial guess               ....       0.129 sec  (  1.6%)
Orbital Transformation      ....       0.000 sec  (  0.0%)
Orbital Orthonormalization  ....       0.000 sec  (  0.0%)
DIIS solution               ....       0.017 sec  (  0.2%)
SOSCF solution              ....       0.025 sec  (  0.3%)


           ************************************************************
           *        Program running with 6 parallel MPI-processes     *
           *              working on a common directory               *
           ************************************************************

------------------------------------------------------------------------------
                                ORCA  MP2 
------------------------------------------------------------------------------

Freezing NCore=10 chemical core electrons
MP2 will be done in the AO integral direct mode
The Q1-step will be done using symmetric double matrices
Dimension of the basis                    ...  215
Memory devoted for MP2                    ... 8000 MB   
Memory needed for all in one shot         ...  153 MB
Number of MOs that can be treated together...  209      
MP2 density construction                  ... relaxed
The MP2 gradient is requested => amplitudes will be stored on disk
Total number of MOs              ...   20
Number of MOs treated per batch  ...    4 
Number of batches necessary      ...    1 
OPERATORS   0/  0 PASS   0
-----------------------------------------------
 MP2 CORRELATION ENERGY   :     -1.290855579 Eh
-----------------------------------------------


---------------------
MP2 DENSITY FORMATION
---------------------

Completing the external part of the density      ... done
Storing the unrelaxed density                    ... done

Calculating G(D)                                 ... done
Completing the Lagrangian                        ... done
Solving the Z-vector equations                   ... 

------------------------------------------------------------------------------
                           ORCA CP-SCF CALCULATION
------------------------------------------------------------------------------

Input orbitals are from        ... 12h2o.su.etal.mol1,4,6,9,11-orca.engrad-mp2.def2tzvp.frozencore.gbw
Input Perturbation             ... 12h2o.su.etal.mol1,4,6,9,11-orca.engrad-mp2.def2tzvp.frozencore.pin.tmp
Wavefunction output            ... 12h2o.su.etal.mol1,4,6,9,11-orca.engrad-mp2.def2tzvp.frozencore.pout.tmp
Perturbation mode              ... Real perturbation (singlet)
Solver                         ... POPLE
Max. number of iterations      ... 128
Convergence tolerance          ... 1.000e-08
Integral handling              ... Direct
Number of perturbations        ... 1
Number of operators            ... 1
Orbital ranges used for CP-SCF:
 Operator 0:  Orbitals   0... 24  to  25...214
Variables per vector in CP-SCF ... 4750
Number of vectors sought       ... 1
     CP-SCF ITERATION   0: 
     CP-SCF ITERATION   1:      0.000618711150
     CP-SCF ITERATION   2:      0.000014931467
     CP-SCF ITERATION   3:      0.000000443348
     CP-SCF ITERATION   4:      0.000000056054
     CP-SCF ITERATION   5:      0.000000005206
                                                 ... done
Finalizing the relaxed density                   ... done
Transforming P to the AO basis                   ... done
Storing the relaxed density                      ... done

------------------------------------
ENERGY WEIGHTED DENSITY FINALIZATION
------------------------------------

Gathering the parts of the W-matrix              ...                                                      done
Forming the Z-density                            ... done
Transforming Z to the AO basis                   ... done
Calculating G(Z)                                 ... done
Finalizing the W-matrix                          ...                                                      done
Transforming W to the AO basis and storing       ... done

                *********************************************
                * UNRELAXED MP2 DENSITY POPULATION ANALYSIS *
                *********************************************

------------------------------------------------------------------------------
                           ORCA POPULATION ANALYSIS
------------------------------------------------------------------------------
Input electron density              ... 12h2o.su.etal.mol1,4,6,9,11-orca.engrad-mp2.def2tzvp.frozencore.pmp2ur
BaseName (.gbw .S,...)              ... 12h2o.su.etal.mol1,4,6,9,11-orca.engrad-mp2.def2tzvp.frozencore

                    ********************************
                    * MULLIKEN POPULATION ANALYSIS *
                    ********************************

-----------------------
MULLIKEN ATOMIC CHARGES
-----------------------
   0 O :   -0.768144
   1 H :    0.349266
   2 H :    0.400105
   3 O :   -0.732183
   4 H :    0.373259
   5 H :    0.380484
   6 O :   -0.733571
   7 H :    0.334212
   8 H :    0.376255
   9 O :   -0.708785
  10 H :    0.369839
  11 H :    0.373787
  12 O :   -0.755541
  13 H :    0.372316
  14 H :    0.368701
Sum of atomic charges:    0.0000000

--------------------------------
MULLIKEN REDUCED ORBITAL CHARGES
--------------------------------
  0 O s       :     3.801447  s :     3.801447
      pz      :     1.721521  p :     4.912316
      px      :     1.417821
      py      :     1.772975
      dz2     :     0.009474  d :     0.050368
      dxz     :     0.010151
      dyz     :     0.010678
      dx2y2   :     0.007955
      dxy     :     0.012110
      f0      :     0.000459  f :     0.004013
      f+1     :     0.000698
      f-1     :     0.000542
      f+2     :     0.000433
      f-2     :     0.000723
      f+3     :     0.000459
      f-3     :     0.000700
  1 H s       :     0.603405  s :     0.603405
      pz      :     0.017574  p :     0.047329
      px      :     0.014151
      py      :     0.015604
  2 H s       :     0.542136  s :     0.542136
      pz      :     0.011429  p :     0.057759
      px      :     0.032349
      py      :     0.013981
  3 O s       :     3.801808  s :     3.801808
      pz      :     1.558535  p :     4.873979
      px      :     1.842133
      py      :     1.473310
      dz2     :     0.016647  d :     0.052375
      dxz     :     0.007889
      dyz     :     0.008098
      dx2y2   :     0.009133
      dxy     :     0.010608
      f0      :     0.000570  f :     0.004020
      f+1     :     0.000495
      f-1     :     0.000821
      f+2     :     0.000435
      f-2     :     0.000405
      f+3     :     0.000815
      f-3     :     0.000480
  4 H s       :     0.581488  s :     0.581488
      pz      :     0.019271  p :     0.045254
      px      :     0.013982
      py      :     0.012001
  5 H s       :     0.576453  s :     0.576453
      pz      :     0.009863  p :     0.043063
      px      :     0.014470
      py      :     0.018730
  6 O s       :     3.805606  s :     3.805606
      pz      :     1.516911  p :     4.872014
      px      :     1.491793
      py      :     1.863310
      dz2     :     0.016643  d :     0.051937
      dxz     :     0.008281
      dyz     :     0.008071
      dx2y2   :     0.008540
      dxy     :     0.010402
      f0      :     0.000564  f :     0.004014
      f+1     :     0.000820
      f-1     :     0.000493
      f+2     :     0.000439
      f-2     :     0.000407
      f+3     :     0.000484
      f-3     :     0.000808
  7 H s       :     0.619157  s :     0.619157
      pz      :     0.018431  p :     0.046631
      px      :     0.012898
      py      :     0.015302
  8 H s       :     0.568136  s :     0.568136
      pz      :     0.010501  p :     0.055609
      px      :     0.028706
      py      :     0.016403
  9 O s       :     3.795017  s :     3.795017
      pz      :     1.522048  p :     4.856886
      px      :     1.778817
      py      :     1.556021
      dz2     :     0.017651  d :     0.052853
      dxz     :     0.007995
      dyz     :     0.006622
      dx2y2   :     0.008068
      dxy     :     0.012518
      f0      :     0.000628  f :     0.004028
      f+1     :     0.000538
      f-1     :     0.000759
      f+2     :     0.000413
      f-2     :     0.000423
      f+3     :     0.000840
      f-3     :     0.000427
 10 H s       :     0.585098  s :     0.585098
      pz      :     0.019616  p :     0.045063
      px      :     0.013249
      py      :     0.012198
 11 H s       :     0.581558  s :     0.581558
      pz      :     0.010826  p :     0.044655
      px      :     0.015103
      py      :     0.018726
 12 O s       :     3.801794  s :     3.801794
      pz      :     1.530463  p :     4.898044
      px      :     1.808819
      py      :     1.558762
      dz2     :     0.016710  d :     0.051691
      dxz     :     0.008360
      dyz     :     0.006711
      dx2y2   :     0.007581
      dxy     :     0.012329
      f0      :     0.000636  f :     0.004012
      f+1     :     0.000534
      f-1     :     0.000740
      f+2     :     0.000416
      f-2     :     0.000421
      f+3     :     0.000835
      f-3     :     0.000432
 13 H s       :     0.577572  s :     0.577572
      pz      :     0.023563  p :     0.050112
      px      :     0.014116
      py      :     0.012432
 14 H s       :     0.579117  s :     0.579117
      pz      :     0.010904  p :     0.052182
      px      :     0.017130
      py      :     0.024148


                     *******************************
                     * LOEWDIN POPULATION ANALYSIS *
                     *******************************

----------------------
LOEWDIN ATOMIC CHARGES
----------------------
   0 O :   -0.345475
   1 H :    0.154587
   2 H :    0.152163
   3 O :   -0.281985
   4 H :    0.175029
   5 H :    0.184537
   6 O :   -0.358216
   7 H :    0.155217
   8 H :    0.147526
   9 O :   -0.274255
  10 H :    0.175013
  11 H :    0.176700
  12 O :   -0.356496
  13 H :    0.148667
  14 H :    0.146989

-------------------------------
LOEWDIN REDUCED ORBITAL CHARGES
-------------------------------
  0 O s       :     3.457230  s :     3.457230
      pz      :     1.699936  p :     4.825979
      px      :     1.390634
      py      :     1.735409
      dz2     :     0.009973  d :     0.057512
      dxz     :     0.012543
      dyz     :     0.011094
      dx2y2   :     0.009455
      dxy     :     0.014447
      f0      :     0.000453  f :     0.004755
      f+1     :     0.000853
      f-1     :     0.000649
      f+2     :     0.000409
      f-2     :     0.001028
      f+3     :     0.000474
      f-3     :     0.000888
  1 H s       :     0.677347  s :     0.677347
      pz      :     0.067063  p :     0.168066
      px      :     0.046884
      py      :     0.054119
  2 H s       :     0.650225  s :     0.650225
      pz      :     0.034310  p :     0.197612
      px      :     0.114900
      py      :     0.048402
  3 O s       :     3.460101  s :     3.460101
      pz      :     1.527420  p :     4.755681
      px      :     1.777973
      py      :     1.450288
      dz2     :     0.021759  d :     0.061332
      dxz     :     0.007003
      dyz     :     0.009427
      dx2y2   :     0.010930
      dxy     :     0.012213
      f0      :     0.000788  f :     0.004870
      f+1     :     0.000600
      f-1     :     0.001177
      f+2     :     0.000413
      f-2     :     0.000417
      f+3     :     0.001021
      f-3     :     0.000453
  4 H s       :     0.663070  s :     0.663070
      pz      :     0.082159  p :     0.161901
      px      :     0.043493
      py      :     0.036249
  5 H s       :     0.657995  s :     0.657995
      pz      :     0.029951  p :     0.157467
      px      :     0.050165
      py      :     0.077351
  6 O s       :     3.467635  s :     3.467635
      pz      :     1.527771  p :     4.826741
      px      :     1.472005
      py      :     1.826965
      dz2     :     0.020799  d :     0.059017
      dxz     :     0.009687
      dyz     :     0.007147
      dx2y2   :     0.009598
      dxy     :     0.011786
      f0      :     0.000804  f :     0.004823
      f+1     :     0.001193
      f-1     :     0.000578
      f+2     :     0.000418
      f-2     :     0.000416
      f+3     :     0.000444
      f-3     :     0.000971
  7 H s       :     0.682727  s :     0.682727
      pz      :     0.080172  p :     0.162057
      px      :     0.037464
      py      :     0.044420
  8 H s       :     0.666359  s :     0.666359
      pz      :     0.030031  p :     0.186115
      px      :     0.102705
      py      :     0.053379
  9 O s       :     3.453591  s :     3.453591
      pz      :     1.511309  p :     4.754589
      px      :     1.716288
      py      :     1.526992
      dz2     :     0.022336  d :     0.061120
      dxz     :     0.007419
      dyz     :     0.007296
      dx2y2   :     0.009206
      dxy     :     0.014861
      f0      :     0.000872  f :     0.004956
      f+1     :     0.000742
      f-1     :     0.001006
      f+2     :     0.000389
      f-2     :     0.000422
      f+3     :     0.001119
      f-3     :     0.000407
 10 H s       :     0.663267  s :     0.663267
      pz      :     0.083148  p :     0.161720
      px      :     0.042249
      py      :     0.036323
 11 H s       :     0.662364  s :     0.662364
      pz      :     0.030384  p :     0.160936
      px      :     0.055939
      py      :     0.074613
 12 O s       :     3.457056  s :     3.457056
      pz      :     1.517665  p :     4.836408
      px      :     1.781092
      py      :     1.537650
      dz2     :     0.020984  d :     0.058234
      dxz     :     0.007687
      dyz     :     0.007417
      dx2y2   :     0.007618
      dxy     :     0.014528
      f0      :     0.000882  f :     0.004799
      f+1     :     0.000701
      f-1     :     0.000970
      f+2     :     0.000388
      f-2     :     0.000421
      f+3     :     0.001060
      f-3     :     0.000377
 13 H s       :     0.678531  s :     0.678531
      pz      :     0.091567  p :     0.172802
      px      :     0.043327
      py      :     0.037908
 14 H s       :     0.675193  s :     0.675193
      pz      :     0.031644  p :     0.177819
      px      :     0.058962
      py      :     0.087212


                      *****************************
                      * MAYER POPULATION ANALYSIS *
                      *****************************

  NA   - Mulliken gross atomic population
  ZA   - Total nuclear charge
  QA   - Mulliken gross atomic charge
  VA   - Mayer's total valence
  BVA  - Mayer's bonded valence
  FA   - Mayer's free valence

  ATOM       NA         ZA         QA         VA         BVA        FA
  0 O      8.7681     8.0000    -0.7681     2.0108     1.6169     0.3939
  1 H      0.6507     1.0000     0.3493     0.8991     0.8525     0.0466
  2 H      0.5999     1.0000     0.4001     0.8764     0.8311     0.0453
  3 O      8.7322     8.0000    -0.7322     2.0728     1.6817     0.3910
  4 H      0.6267     1.0000     0.3733     0.8799     0.8345     0.0453
  5 H      0.6195     1.0000     0.3805     0.8759     0.8298     0.0461
  6 O      8.7336     8.0000    -0.7336     2.0378     1.6473     0.3905
  7 H      0.6658     1.0000     0.3342     0.9091     0.8603     0.0489
  8 H      0.6237     1.0000     0.3763     0.8985     0.8522     0.0464
  9 O      8.7088     8.0000    -0.7088     2.0796     1.6934     0.3862
 10 H      0.6302     1.0000     0.3698     0.8823     0.8369     0.0454
 11 H      0.6262     1.0000     0.3738     0.8842     0.8387     0.0455
 12 O      8.7555     8.0000    -0.7555     2.0373     1.6458     0.3915
 13 H      0.6277     1.0000     0.3723     0.8857     0.8403     0.0454
 14 H      0.6313     1.0000     0.3687     0.9046     0.8583     0.0462

  Mayer bond orders larger than 0.100000
B(  0-O ,  1-H ) :   0.8447 B(  0-O ,  2-H ) :   0.7633 B(  3-O ,  4-H ) :   0.8267 
B(  3-O ,  5-H ) :   0.8169 B(  6-O ,  7-H ) :   0.8540 B(  6-O ,  8-H ) :   0.8011 
B(  9-O , 10-H ) :   0.8292 B(  9-O , 11-H ) :   0.8240 B( 12-O , 13-H ) :   0.8280 
B( 12-O , 14-H ) :   0.8120 


                *******************************************
                * RELAXED MP2 DENSITY POPULATION ANALYSIS *
                *******************************************

------------------------------------------------------------------------------
                           ORCA POPULATION ANALYSIS
------------------------------------------------------------------------------
Input electron density              ... 12h2o.su.etal.mol1,4,6,9,11-orca.engrad-mp2.def2tzvp.frozencore.pmp2re
BaseName (.gbw .S,...)              ... 12h2o.su.etal.mol1,4,6,9,11-orca.engrad-mp2.def2tzvp.frozencore

                    ********************************
                    * MULLIKEN POPULATION ANALYSIS *
                    ********************************

-----------------------
MULLIKEN ATOMIC CHARGES
-----------------------
   0 O :   -0.742640
   1 H :    0.342639
   2 H :    0.379002
   3 O :   -0.708330
   4 H :    0.365736
   5 H :    0.372340
   6 O :   -0.714877
   7 H :    0.327706
   8 H :    0.356108
   9 O :   -0.685758
  10 H :    0.363409
  11 H :    0.365329
  12 O :   -0.732384
  13 H :    0.361037
  14 H :    0.350682
Sum of atomic charges:    0.0000000

--------------------------------
MULLIKEN REDUCED ORBITAL CHARGES
--------------------------------
  0 O s       :     3.802924  s :     3.802924
      pz      :     1.716267  p :     4.887221
      px      :     1.412397
      py      :     1.758558
      dz2     :     0.009280  d :     0.048550
      dxz     :     0.009597
      dyz     :     0.010386
      dx2y2   :     0.007827
      dxy     :     0.011460
      f0      :     0.000456  f :     0.003945
      f+1     :     0.000681
      f-1     :     0.000534
      f+2     :     0.000432
      f-2     :     0.000703
      f+3     :     0.000457
      f-3     :     0.000682
  1 H s       :     0.609269  s :     0.609269
      pz      :     0.017662  p :     0.048092
      px      :     0.014155
      py      :     0.016275
  2 H s       :     0.563002  s :     0.563002
      pz      :     0.012156  p :     0.057996
      px      :     0.031367
      py      :     0.014472
  3 O s       :     3.806060  s :     3.806060
      pz      :     1.550544  p :     4.848074
      px      :     1.828505
      py      :     1.469026
      dz2     :     0.015461  d :     0.050248
      dxz     :     0.007947
      dyz     :     0.007818
      dx2y2   :     0.008872
      dxy     :     0.010150
      f0      :     0.000557  f :     0.003947
      f+1     :     0.000489
      f-1     :     0.000792
      f+2     :     0.000434
      f-2     :     0.000403
      f+3     :     0.000794
      f-3     :     0.000478
  4 H s       :     0.588393  s :     0.588393
      pz      :     0.018557  p :     0.045871
      px      :     0.014928
      py      :     0.012386
  5 H s       :     0.584001  s :     0.584001
      pz      :     0.010575  p :     0.043658
      px      :     0.015138
      py      :     0.017945
  6 O s       :     3.805778  s :     3.805778
      pz      :     1.510254  p :     4.855249
      px      :     1.488250
      py      :     1.856745
      dz2     :     0.015430  d :     0.049904
      dxz     :     0.008036
      dyz     :     0.008117
      dx2y2   :     0.008333
      dxy     :     0.009989
      f0      :     0.000550  f :     0.003946
      f+1     :     0.000793
      f-1     :     0.000487
      f+2     :     0.000438
      f-2     :     0.000405
      f+3     :     0.000483
      f-3     :     0.000789
  7 H s       :     0.624862  s :     0.624862
      pz      :     0.017757  p :     0.047432
      px      :     0.013350
      py      :     0.016325
  8 H s       :     0.587876  s :     0.587876
      pz      :     0.011197  p :     0.056015
      px      :     0.027848
      py      :     0.016970
  9 O s       :     3.796869  s :     3.796869
      pz      :     1.517420  p :     4.834190
      px      :     1.763787
      py      :     1.552983
      dz2     :     0.016326  d :     0.050747
      dxz     :     0.007976
      dyz     :     0.006566
      dx2y2   :     0.008020
      dxy     :     0.011859
      f0      :     0.000609  f :     0.003951
      f+1     :     0.000528
      f-1     :     0.000737
      f+2     :     0.000414
      f-2     :     0.000421
      f+3     :     0.000815
      f-3     :     0.000427
 10 H s       :     0.590970  s :     0.590970
      pz      :     0.018866  p :     0.045621
      px      :     0.014057
      py      :     0.012698
 11 H s       :     0.589467  s :     0.589467
      pz      :     0.011465  p :     0.045203
      px      :     0.015569
      py      :     0.018169
 12 O s       :     3.799742  s :     3.799742
      pz      :     1.525748  p :     4.878966
      px      :     1.800368
      py      :     1.552850
      dz2     :     0.015502  d :     0.049733
      dxz     :     0.008332
      dyz     :     0.006676
      dx2y2   :     0.007526
      dxy     :     0.011697
      f0      :     0.000620  f :     0.003943
      f+1     :     0.000524
      f-1     :     0.000719
      f+2     :     0.000416
      f-2     :     0.000419
      f+3     :     0.000812
      f-3     :     0.000432
 13 H s       :     0.588326  s :     0.588326
      pz      :     0.022682  p :     0.050637
      px      :     0.015020
      py      :     0.012934
 14 H s       :     0.596528  s :     0.596528
      pz      :     0.011581  p :     0.052790
      px      :     0.017609
      py      :     0.023601


                     *******************************
                     * LOEWDIN POPULATION ANALYSIS *
                     *******************************

----------------------
LOEWDIN ATOMIC CHARGES
----------------------
   0 O :   -0.342423
   1 H :    0.156463
   2 H :    0.144943
   3 O :   -0.275666
   4 H :    0.176398
   5 H :    0.185090
   6 O :   -0.359899
   7 H :    0.156473
   8 H :    0.141111
   9 O :   -0.269032
  10 H :    0.176330
  11 H :    0.177088
  12 O :   -0.355381
  13 H :    0.146177
  14 H :    0.142328

-------------------------------
LOEWDIN REDUCED ORBITAL CHARGES
-------------------------------
  0 O s       :     3.458628  s :     3.458628
      pz      :     1.699527  p :     4.822113
      px      :     1.394585
      py      :     1.728002
      dz2     :     0.009943  d :     0.056890
      dxz     :     0.012197
      dyz     :     0.011029
      dx2y2   :     0.009478
      dxy     :     0.014242
      f0      :     0.000456  f :     0.004791
      f+1     :     0.000864
      f-1     :     0.000650
      f+2     :     0.000410
      f-2     :     0.001030
      f+3     :     0.000479
      f-3     :     0.000903
  1 H s       :     0.675451  s :     0.675451
      pz      :     0.067034  p :     0.168086
      px      :     0.046502
      py      :     0.054550
  2 H s       :     0.657209  s :     0.657209
      pz      :     0.034953  p :     0.197849
      px      :     0.114030
      py      :     0.048865
  3 O s       :     3.462017  s :     3.462017
      pz      :     1.526552  p :     4.748327
      px      :     1.768564
      py      :     1.453211
      dz2     :     0.021291  d :     0.060431
      dxz     :     0.007093
      dyz     :     0.009212
      dx2y2   :     0.010815
      dxy     :     0.012020
      f0      :     0.000788  f :     0.004891
      f+1     :     0.000602
      f-1     :     0.001185
      f+2     :     0.000415
      f-2     :     0.000416
      f+3     :     0.001029
      f-3     :     0.000456
  4 H s       :     0.661830  s :     0.661830
      pz      :     0.081391  p :     0.161773
      px      :     0.044292
      py      :     0.036089
  5 H s       :     0.657625  s :     0.657625
      pz      :     0.030339  p :     0.157285
      px      :     0.050752
      py      :     0.076194
  6 O s       :     3.469189  s :     3.469189
      pz      :     1.529112  p :     4.827834
      px      :     1.474774
      py      :     1.823948
      dz2     :     0.020167  d :     0.058025
      dxz     :     0.009450
      dyz     :     0.007213
      dx2y2   :     0.009529
      dxy     :     0.011666
      f0      :     0.000801  f :     0.004851
      f+1     :     0.001206
      f-1     :     0.000577
      f+2     :     0.000420
      f-2     :     0.000415
      f+3     :     0.000447
      f-3     :     0.000985
  7 H s       :     0.681072  s :     0.681072
      pz      :     0.079574  p :     0.162455
      px      :     0.037537
      py      :     0.045345
  8 H s       :     0.672163  s :     0.672163
      pz      :     0.030472  p :     0.186725
      px      :     0.102181
      py      :     0.054072
  9 O s       :     3.454783  s :     3.454783
      pz      :     1.513526  p :     4.749197
      px      :     1.706544
      py      :     1.529127
      dz2     :     0.021633  d :     0.060081
      dxz     :     0.007453
      dyz     :     0.007160
      dx2y2   :     0.009261
      dxy     :     0.014574
      f0      :     0.000871  f :     0.004971
      f+1     :     0.000742
      f-1     :     0.001012
      f+2     :     0.000391
      f-2     :     0.000422
      f+3     :     0.001126
      f-3     :     0.000408
 10 H s       :     0.662115  s :     0.662115
      pz      :     0.082202  p :     0.161555
      px      :     0.042874
      py      :     0.036479
 11 H s       :     0.662153  s :     0.662153
      pz      :     0.030691  p :     0.160759
      px      :     0.056301
      py      :     0.073766
 12 O s       :     3.457850  s :     3.457850
      pz      :     1.518432  p :     4.835415
      px      :     1.778104
      py      :     1.538879
      dz2     :     0.020416  d :     0.057295
      dxz     :     0.007715
      dyz     :     0.007301
      dx2y2   :     0.007582
      dxy     :     0.014280
      f0      :     0.000886  f :     0.004822
      f+1     :     0.000700
      f-1     :     0.000978
      f+2     :     0.000390
      f-2     :     0.000421
      f+3     :     0.001071
      f-3     :     0.000377
 13 H s       :     0.680645  s :     0.680645
      pz      :     0.090664  p :     0.173178
      px      :     0.044146
      py      :     0.038368
 14 H s       :     0.679164  s :     0.679164
      pz      :     0.032089  p :     0.178509
      px      :     0.059503
      py      :     0.086916


                      *****************************
                      * MAYER POPULATION ANALYSIS *
                      *****************************

  NA   - Mulliken gross atomic population
  ZA   - Total nuclear charge
  QA   - Mulliken gross atomic charge
  VA   - Mayer's total valence
  BVA  - Mayer's bonded valence
  FA   - Mayer's free valence

  ATOM       NA         ZA         QA         VA         BVA        FA
  0 O      8.7426     8.0000    -0.7426     2.0372     1.6490     0.3882
  1 H      0.6574     1.0000     0.3426     0.9036     0.8570     0.0467
  2 H      0.6210     1.0000     0.3790     0.9017     0.8571     0.0446
  3 O      8.7083     8.0000    -0.7083     2.1145     1.7298     0.3848
  4 H      0.6343     1.0000     0.3657     0.8856     0.8403     0.0453
  5 H      0.6277     1.0000     0.3723     0.8847     0.8388     0.0459
  6 O      8.7149     8.0000    -0.7149     2.0463     1.6609     0.3854
  7 H      0.6723     1.0000     0.3277     0.9141     0.8652     0.0488
  8 H      0.6439     1.0000     0.3561     0.9267     0.8812     0.0455
  9 O      8.6858     8.0000    -0.6858     2.1090     1.7286     0.3804
 10 H      0.6366     1.0000     0.3634     0.8881     0.8427     0.0453
 11 H      0.6347     1.0000     0.3653     0.8940     0.8488     0.0452
 12 O      8.7324     8.0000    -0.7324     2.0576     1.6715     0.3861
 13 H      0.6390     1.0000     0.3610     0.9001     0.8548     0.0453
 14 H      0.6493     1.0000     0.3507     0.9299     0.8843     0.0456

  Mayer bond orders larger than 0.100000
B(  0-O ,  1-H ) :   0.8478 B(  0-O ,  2-H ) :   0.7637 B(  3-O ,  4-H ) :   0.8300 
B(  3-O ,  5-H ) :   0.8203 B(  6-O ,  7-H ) :   0.8572 B(  6-O ,  8-H ) :   0.8036 
B(  9-O , 10-H ) :   0.8326 B(  9-O , 11-H ) :   0.8276 B( 12-O , 13-H ) :   0.8333 
B( 12-O , 14-H ) :   0.8147 


----------------------------------
MP2 DERIVATIVE INTEGRAL GENERATION
----------------------------------


Input Wavefunction Amplitudes       ... 12h2o.su.etal.mol1,4,6,9,11-orca.engrad-mp2.def2tzvp.frozencore.mp2tsaa.tmp
Input Correlated Electron Density   ... 12h2o.su.etal.mol1,4,6,9,11-orca.engrad-mp2.def2tzvp.frozencore.pmp2re
Input Energy Weighted Density       ... 12h2o.su.etal.mol1,4,6,9,11-orca.engrad-mp2.def2tzvp.frozencore.wmp2.tmp
Input SCF Electron Density          ... 12h2o.su.etal.mol1,4,6,9,11-orca.engrad-mp2.def2tzvp.frozencore.scfp

One-Electron Terms    ...
                        ... One-Electron Terms done
Prescreening matrices              ... done

Batch handling in the gradient evaluation:
Memory available                      ... 8000.0 MB
Memory per occupied orbital in Q2     ...    7.1 MB
Memory per occupied orbital in Q3     ...    0.1 MB
Total memory requirement per |i>      ...    7.1 MB
Max. Number of orbitals possible      ...   1121
Number of orbitals treated per batch  ...     20
Number of batches to be done          ...      1
Batch   0: i=    5 ...    24

---------------------------------------
MP2 TOTAL ENERGY:     -381.600555143 Eh
---------------------------------------

The final MP2 gradient
  0:  -0.00873155   0.00162552   0.00104646
  1:  -0.00037035   0.00038953  -0.00000103
  2:   0.01462354  -0.00367818  -0.00142830
  3:   0.01056070   0.01423921   0.01419721
  4:   0.00061345  -0.00047925  -0.00699857
  5:  -0.00464447  -0.01359186  -0.00289460
  6:   0.00366042  -0.00167155  -0.01068145
  7:   0.00329847  -0.00090861   0.00994863
  8:  -0.01203784   0.00398807  -0.00228798
  9:  -0.00910845  -0.00502728   0.00854447
 10:  -0.00078286  -0.00108368  -0.00597509
 11:   0.00439240   0.00610617  -0.00063976
 12:   0.00018687   0.00186247   0.00474481
 13:  -0.00133443   0.00088628  -0.00833665
 14:  -0.00032591  -0.00265684   0.00076187

-----------------------------------
NORM OF THE MP2 GRADIENT:  0.043340
-----------------------------------

-------------------------   --------------------
FINAL SINGLE POINT ENERGY      -381.600555143031
-------------------------   --------------------


                            ***************************************
                            *     ORCA property calculations      *
                            ***************************************

                                    ---------------------
                                    Active property flags
                                    ---------------------
   (+) Dipole Moment


------------------------------------------------------------------------------
                       ORCA ELECTRIC PROPERTIES CALCULATION
------------------------------------------------------------------------------

Dipole Moment Calculation                       ... on
Quadrupole Moment Calculation                   ... off
Polarizability Calculation                      ... off
GBWName                                         ... 12h2o.su.etal.mol1,4,6,9,11-orca.engrad-mp2.def2tzvp.frozencore.gbw
Electron density file                           ... 12h2o.su.etal.mol1,4,6,9,11-orca.engrad-mp2.def2tzvp.frozencore.scfp
The origin for moment calculation is the CENTER OF MASS  = (-0.371309,  0.625222  3.216764)

-------------
DIPOLE MOMENT
-------------
                                X             Y             Z
Electronic contribution:      0.07115      -0.07357      -0.01732
Nuclear contribution   :     -0.59936      -0.67960      -0.73962
                        -----------------------------------------
Total Dipole Moment    :     -0.52820      -0.75317      -0.75694
                        -----------------------------------------
Magnitude (a.u.)       :      1.19131
Magnitude (Debye)      :      3.02807



--------------------
Rotational spectrum 
--------------------
 
Rotational constants in cm-1:     0.077476     0.049326     0.037011 
Rotational constants in MHz :  2322.685402  1478.754607  1109.560830 

 Dipole components along the rotational axes: 
x,y,z [a.u.] :     0.081415    -0.091533     1.184995 
x,y,z [Debye]:     0.206940    -0.232659     3.012018 

 

                         *** MP2 UNRELAXED DENSITY ***

------------------------------------------------------------------------------
                       ORCA ELECTRIC PROPERTIES CALCULATION
------------------------------------------------------------------------------

Dipole Moment Calculation                       ... on
Quadrupole Moment Calculation                   ... off
Polarizability Calculation                      ... off
GBWName                                         ... 12h2o.su.etal.mol1,4,6,9,11-orca.engrad-mp2.def2tzvp.frozencore.gbw
Electron density file                           ... 12h2o.su.etal.mol1,4,6,9,11-orca.engrad-mp2.def2tzvp.frozencore.pmp2ur
The origin for moment calculation is the CENTER OF MASS  = (-0.371309,  0.625222  3.216764)

-------------
DIPOLE MOMENT
-------------
                                X             Y             Z
Electronic contribution:      0.07665      -0.06803      -0.00999
Nuclear contribution   :     -0.59936      -0.67960      -0.73962
                        -----------------------------------------
Total Dipole Moment    :     -0.52271      -0.74762      -0.74961
                        -----------------------------------------
Magnitude (a.u.)       :      1.18071
Magnitude (Debye)      :      3.00114



--------------------
Rotational spectrum 
--------------------
 
Rotational constants in cm-1:     0.077476     0.049326     0.037011 
Rotational constants in MHz :  2322.685402  1478.754607  1109.560830 

 Dipole components along the rotational axes: 
x,y,z [a.u.] :     0.081676    -0.091872     1.174298 
x,y,z [Debye]:     0.207603    -0.233521     2.984827 

 

                           *** MP2 RELAXED DENSITY ***

------------------------------------------------------------------------------
                       ORCA ELECTRIC PROPERTIES CALCULATION
------------------------------------------------------------------------------

Dipole Moment Calculation                       ... on
Quadrupole Moment Calculation                   ... off
Polarizability Calculation                      ... off
GBWName                                         ... 12h2o.su.etal.mol1,4,6,9,11-orca.engrad-mp2.def2tzvp.frozencore.gbw
Electron density file                           ... 12h2o.su.etal.mol1,4,6,9,11-orca.engrad-mp2.def2tzvp.frozencore.pmp2re
The origin for moment calculation is the CENTER OF MASS  = (-0.371309,  0.625222  3.216764)

-------------
DIPOLE MOMENT
-------------
                                X             Y             Z
Electronic contribution:      0.08066      -0.07040       0.00205
Nuclear contribution   :     -0.59936      -0.67960      -0.73962
                        -----------------------------------------
Total Dipole Moment    :     -0.51870      -0.75000      -0.73757
                        -----------------------------------------
Magnitude (a.u.)       :      1.17284
Magnitude (Debye)      :      2.98112



--------------------
Rotational spectrum 
--------------------
 
Rotational constants in cm-1:     0.077476     0.049326     0.037011 
Rotational constants in MHz :  2322.685402  1478.754607  1109.560830 

 Dipole components along the rotational axes: 
x,y,z [a.u.] :     0.090854    -0.094189     1.165517 
x,y,z [Debye]:     0.230933    -0.239408     2.962508 

 

Timings for individual modules:

Sum of individual times         ...       38.970 sec (=   0.650 min)
GTO integral calculation        ...        0.986 sec (=   0.016 min)   2.5 %
SCF iterations                  ...        8.878 sec (=   0.148 min)  22.8 %
MP2 module                      ...       29.106 sec (=   0.485 min)  74.7 %
                             ****ORCA TERMINATED NORMALLY****
TOTAL RUN TIME: 0 days 0 hours 0 minutes 39 seconds 914 msec
