
                                 *****************
                                 * O   R   C   A *
                                 *****************

           --- An Ab Initio, DFT and Semiempirical electronic structure package ---

                  #######################################################
                  #                        -***-                        #
                  #          Department of theory and spectroscopy      #
                  #               Directorship: Frank Neese             #
                  #        Max Planck Institute fuer Kohlenforschung    #
                  #                Kaiser Wilhelm Platz 1               #
                  #                 D-45470 Muelheim/Ruhr               #
                  #                      Germany                        #
                  #                                                     #
                  #                  All rights reserved                #
                  #                        -***-                        #
                  #######################################################


                         Program Version 4.2.0 -  RELEASE  -


 With contributions from (in alphabetic order):
   Daniel Aravena         : Magnetic Suceptibility
   Michael Atanasov       : Ab Initio Ligand Field Theory (pilot matlab implementation)
   Alexander A. Auer      : GIAO ZORA, VPT2
   Ute Becker             : Parallelization
   Giovanni Bistoni       : ED, misc. LED, open-shell LED, HFLED
   Martin Brehm           : Molecular dynamics
   Dmytro Bykov           : SCF Hessian
   Vijay G. Chilkuri      : MRCI spin determinant printing, contributions to CSF-ICE
   Dipayan Datta          : RHF DLPNO-CCSD density
   Achintya Kumar Dutta   : EOM-CC, STEOM-CC
   Dmitry Ganyushin       : Spin-Orbit,Spin-Spin,Magnetic field MRCI
   Miquel Garcia          : C-PCM Hessian, Gaussian charge scheme
   Yang Guo               : DLPNO-NEVPT2, CIM, IAO-localization
   Andreas Hansen         : Spin unrestricted coupled pair/coupled cluster methods
   Benjamin Helmich-Paris : CASSCF linear response (MC-RPA)
   Lee Huntington         : MR-EOM, pCC
   Robert Izsak           : Overlap fitted RIJCOSX, COSX-SCS-MP3, EOM
   Christian Kollmar      : KDIIS, OOCD, Brueckner-CCSD(T), CCSD density
   Simone Kossmann        : Meta GGA functionals, TD-DFT gradient, OOMP2, MP2 Hessian
   Martin Krupicka        : AUTO-CI
   Lucas Lang             : DCDCAS
   Dagmar Lenk            : GEPOL surface, SMD
   Dimitrios Liakos       : Extrapolation schemes; Compound Job, initial MDCI parallelization
   Dimitrios Manganas     : Further ROCIS development; embedding schemes
   Dimitrios Pantazis     : SARC Basis sets
   Taras Petrenko         : DFT Hessian,TD-DFT gradient, ASA, ECA, R-Raman, ABS, FL, XAS/XES, NRVS
   Peter Pinski           : DLPNO-MP2, DLPNO-MP2 Gradient
   Christoph Reimann      : Effective Core Potentials
   Marius Retegan         : Local ZFS, SOC
   Christoph Riplinger    : Optimizer, TS searches, QM/MM, DLPNO-CCSD(T), (RO)-DLPNO pert. Triples
   Tobias Risthaus        : Range-separated hybrids, TD-DFT gradient, RPA, STAB
   Michael Roemelt        : Original ROCIS implementation
   Masaaki Saitow         : Open-shell DLPNO-CCSD energy and density
   Barbara Sandhoefer     : DKH picture change effects
   Avijit Sen             : IP-ROCIS
   Kantharuban Sivalingam : CASSCF convergence, NEVPT2, FIC-MRCI
   Bernardo de Souza      : ESD, SOC TD-DFT
   Georgi Stoychev        : AutoAux, RI-MP2 NMR
   Willem Van den Heuvel  : Paramagnetic NMR
   Boris Wezisla          : Elementary symmetry handling
   Frank Wennmohs         : Technical directorship


 We gratefully acknowledge several colleagues who have allowed us to
 interface, adapt or use parts of their codes:
   Stefan Grimme, W. Hujo, H. Kruse,             : VdW corrections, initial TS optimization,
                  C. Bannwarth                     DFT functionals, gCP, sTDA/sTD-DF
   Ed Valeev, F. Pavosevic, A. Kumar             : LibInt (2-el integral package), F12 methods
   Garnet Chan, S. Sharma, J. Yang, R. Olivares  : DMRG
   Ulf Ekstrom                                   : XCFun DFT Library
   Mihaly Kallay                                 : mrcc  (arbitrary order and MRCC methods)
   Andreas Klamt, Michael Diedenhofen            : otool_cosmo (COSMO solvation model)
   Jiri Pittner, Ondrej Demel                    : Mk-CCSD
   Frank Weinhold                                : gennbo (NPA and NBO analysis)
   Christopher J. Cramer and Donald G. Truhlar   : smd solvation model
   Lars Goerigk                                  : TD-DFT with DH, B97 family of functionals
   V. Asgeirsson, H. Jonsson                     : NEB implementation
   FAccTs GmbH                                   : IRC, NEB, NEB-TS, Multilevel, MM, QM/MM, CI optimization
   S Lehtola, MJT Oliveira, MAL Marques          : LibXC Library


 Your calculation uses the libint2 library for the computation of 2-el integrals
 For citations please refer to: http://libint.valeyev.net

 Your ORCA version has been built with support for libXC version: 4.2.3
 For citations please refer to: https://tddft.org/programs/libxc/

 This ORCA versions uses:
   CBLAS   interface :  Fast vector & matrix operations
   LAPACKE interface :  Fast linear algebra routines
   SCALAPACK package :  Parallel linear algebra routines


----- Orbital basis set information -----
Your calculation utilizes the basis: def2-TZVP
   F. Weigend and R. Ahlrichs, Phys. Chem. Chem. Phys. 7, 3297 (2005).

================================================================================
                                        WARNINGS
                       Please study these warnings very carefully!
================================================================================


WARNING: The frozen-core approximation for MP2-gradient calculations is turned on by default.

INFO   : the flag for use of LIBINT has been found!

================================================================================
                                       INPUT FILE
================================================================================
NAME = 12meoh.boyd.etal.mol0-orca.engrad-mp2.def2tzvp.frozencore.inp
|  1> # 12meoh.boyd.etal.mol0
|  2> ! MP2 def2-TZVP EnGrad TightSCF
|  3> 
|  4> %pal
|  5>     nprocs 6
|  6> end
|  7> 
|  8> %maxcore 8000
|  9> 
| 10> %scf
| 11>     ConvForced true
| 12> end
| 13> 
| 14> *xyz 0 1
| 15> O  -1.776108874  -2.741384797  -1.019308298
| 16> H  -2.520094035  -2.452295987  -0.420778302
| 17> C  -2.174025166  -3.952700964  -1.647004581
| 18> H  -1.359803895  -4.272673416  -2.304149236
| 19> H  -3.075973971  -3.808692420  -2.256751112
| 20> H  -2.370225393  -4.752784761  -0.918966137
| 21> *
| 22> 
| 23>                          ****END OF INPUT****
================================================================================

                     *******************************
                     * Energy+Gradient Calculation *
                     *******************************

---------------------------------
CARTESIAN COORDINATES (ANGSTROEM)
---------------------------------
  O     -1.776109   -2.741385   -1.019308
  H     -2.520094   -2.452296   -0.420778
  C     -2.174025   -3.952701   -1.647005
  H     -1.359804   -4.272673   -2.304149
  H     -3.075974   -3.808692   -2.256751
  H     -2.370225   -4.752785   -0.918966

----------------------------
CARTESIAN COORDINATES (A.U.)
----------------------------
  NO LB      ZA    FRAG     MASS         X           Y           Z
   0 O     8.0000    0    15.999   -3.356359   -5.180466   -1.926214
   1 H     1.0000    0     1.008   -4.762288   -4.634168   -0.795156
   2 C     6.0000    0    12.011   -4.108312   -7.469522   -3.112388
   3 H     1.0000    0     1.008   -2.569657   -8.074183   -4.354211
   4 H     1.0000    0     1.008   -5.812748   -7.197386   -4.264642
   5 H     1.0000    0     1.008   -4.479077   -8.981462   -1.736594

--------------------------------
INTERNAL COORDINATES (ANGSTROEM)
--------------------------------
 O      0   0   0     0.000000000000     0.00000000     0.00000000
 H      1   0   0     0.997659468941     0.00000000     0.00000000
 C      1   2   0     1.421135762539   107.64775557     0.00000000
 H      3   1   2     1.094156179795   107.82879233   180.01581697
 H      3   1   2     1.098198952673   111.31077271    61.21076131
 H      3   1   2     1.099394645811   112.19621244   299.46622341

---------------------------
INTERNAL COORDINATES (A.U.)
---------------------------
 O      0   0   0     0.000000000000     0.00000000     0.00000000
 H      1   0   0     1.885303171211     0.00000000     0.00000000
 C      1   2   0     2.685557390320   107.64775557     0.00000000
 H      3   1   2     2.067655527549   107.82879233   180.01581697
 H      3   1   2     2.075295261111   111.31077271    61.21076131
 H      3   1   2     2.077554793683   112.19621244   299.46622341

---------------------
BASIS SET INFORMATION
---------------------
There are 3 groups of distinct atoms

 Group   1 Type O   : 11s6p2d1f contracted to 5s3p2d1f pattern {62111/411/11/1}
 Group   2 Type H   : 5s1p contracted to 3s1p pattern {311/1}
 Group   3 Type C   : 11s6p2d1f contracted to 5s3p2d1f pattern {62111/411/11/1}

Atom   0O    basis set group =>   1
Atom   1H    basis set group =>   2
Atom   2C    basis set group =>   3
Atom   3H    basis set group =>   2
Atom   4H    basis set group =>   2
Atom   5H    basis set group =>   2


           ************************************************************
           *        Program running with 6 parallel MPI-processes     *
           *              working on a common directory               *
           ************************************************************
------------------------------------------------------------------------------
                           ORCA GTO INTEGRAL CALCULATION
------------------------------------------------------------------------------

                         BASIS SET STATISTICS AND STARTUP INFO

 # of primitive gaussian shells          ...   64
 # of primitive gaussian functions       ...  124
 # of contracted shells                  ...   38
 # of contracted basis functions         ...   86
 Highest angular momentum                ...    3
 Maximum contraction depth               ...    6
 Integral package used                   ... LIBINT
 Integral threshhold            Thresh   ...  2.500e-11
 Primitive cut-off              TCut     ...  2.500e-12


------------------------------ INTEGRAL EVALUATION ----------------------------


 * One electron integrals 
 Pre-screening matrix                    ... done
 Shell pair data                         ... done (   0.000 sec)



           ************************************************************
           *        Program running with 6 parallel MPI-processes     *
           *              working on a common directory               *
           ************************************************************
-------------------------------------------------------------------------------
                                 ORCA SCF
-------------------------------------------------------------------------------

------------
SCF SETTINGS
------------
Hamiltonian:
 Ab initio Hamiltonian  Method          .... Hartree-Fock(GTOs)


General Settings:
 Integral files         IntName         .... 12meoh.boyd.etal.mol0-orca.engrad-mp2.def2tzvp.frozencore
 Hartree-Fock type      HFTyp           .... RHF
 Total Charge           Charge          ....    0
 Multiplicity           Mult            ....    1
 Number of Electrons    NEL             ....   18
 Basis Dimension        Dim             ....   86
 Nuclear Repulsion      ENuc            ....     40.0536135458 Eh

Convergence Acceleration:
 DIIS                   CNVDIIS         .... on
   Start iteration      DIISMaxIt       ....    12
   Startup error        DIISStart       ....  0.200000
   # of expansion vecs  DIISMaxEq       ....     5
   Bias factor          DIISBfac        ....   1.050
   Max. coefficient     DIISMaxC        ....  10.000
 Newton-Raphson         CNVNR           .... off
 SOSCF                  CNVSOSCF        .... on
   Start iteration      SOSCFMaxIt      ....   150
   Startup grad/error   SOSCFStart      ....  0.003300
 Level Shifting         CNVShift        .... on
   Level shift para.    LevelShift      ....    0.2500
   Turn off err/grad.   ShiftErr        ....    0.0010
 Zerner damping         CNVZerner       .... off
 Static damping         CNVDamp         .... on
   Fraction old density DampFac         ....    0.7000
   Max. Damping (<1)    DampMax         ....    0.9800
   Min. Damping (>=0)   DampMin         ....    0.0000
   Turn off err/grad.   DampErr         ....    0.1000
 Fernandez-Rico         CNVRico         .... off

SCF Procedure:
 Maximum # iterations   MaxIter         ....   125
 SCF integral mode      SCFMode         .... Direct
   Integral package                     .... LIBINT
 Reset frequency        DirectResetFreq ....    20
 Integral Threshold     Thresh          ....  2.500e-11 Eh
 Primitive CutOff       TCut            ....  2.500e-12 Eh

Convergence Tolerance:
 Convergence Check Mode ConvCheckMode   .... Total+1el-Energy
 Convergence forced     ConvForced      .... 1
 Energy Change          TolE            ....  1.000e-08 Eh
 1-El. energy change                    ....  1.000e-05 Eh
 Orbital Gradient       TolG            ....  1.000e-05
 Orbital Rotation angle TolX            ....  1.000e-05
 DIIS Error             TolErr          ....  5.000e-07


Diagonalization of the overlap matrix:
Smallest eigenvalue                        ... 1.677e-03
Time for diagonalization                   ...    0.002 sec
Threshold for overlap eigenvalues          ... 1.000e-08
Number of eigenvalues below threshold      ... 0
Time for construction of square roots      ...    0.001 sec
Total time needed                          ...    0.003 sec

-------------------
DFT GRID GENERATION
-------------------

General Integration Accuracy     IntAcc      ...  4.340
Radial Grid Type                 RadialGrid  ... Gauss-Chebyshev
Angular Grid (max. acc.)         AngularGrid ... Lebedev-110
Angular grid pruning method      GridPruning ... 3 (G Style)
Weight generation scheme         WeightScheme... Becke
Basis function cutoff            BFCut       ...    1.0000e-11
Integration weight cutoff        WCut        ...    1.0000e-14
Grids for H and He will be reduced by one unit

# of grid points (after initial pruning)     ...   6548 (   0.0 sec)
# of grid points (after weights+screening)   ...   6391 (   0.0 sec)
nearest neighbour list constructed           ...    0.0 sec
Grid point re-assignment to atoms done       ...    0.0 sec
Grid point division into batches done        ...    0.0 sec
Reduced shell lists constructed in    0.0 sec

Total number of grid points                  ...     6391
Total number of batches                      ...      102
Average number of points per batch           ...       62
Average number of grid points per atom       ...     1065
Average number of shells per batch           ...    32.94 (86.70%)
Average number of basis functions per batch  ...    76.72 (89.21%)
Average number of large shells per batch     ...    29.94 (90.89%)
Average number of large basis fcns per batch ...    70.94 (92.47%)
Maximum spatial batch extension              ...  16.90, 16.48, 14.49 au
Average spatial batch extension              ...   0.70,  0.69,  0.61 au

Time for grid setup =    0.037 sec

------------------------------
INITIAL GUESS: MODEL POTENTIAL
------------------------------
Loading Hartree-Fock densities                     ... done
Calculating cut-offs                               ... done
Setting up the integral package                    ... done
Initializing the effective Hamiltonian             ... done
Starting the Coulomb interaction                   ... done (   0.0 sec)
Reading the grid                                   ... done
Mapping shells                                     ... done
Starting the XC term evaluation                    ... done (   0.0 sec)
Transforming the Hamiltonian                       ... done (   0.0 sec)
Diagonalizing the Hamiltonian                      ... done (   0.0 sec)
Back transforming the eigenvectors                 ... done (   0.0 sec)
Now organizing SCF variables                       ... done
                      ------------------
                      INITIAL GUESS DONE (   0.2 sec)
                      ------------------
--------------
SCF ITERATIONS
--------------
ITER       Energy         Delta-E        Max-DP      RMS-DP      [F,P]     Damp
               ***  Starting incremental Fock matrix formation  ***
  0   -114.9687161756   0.000000000000 0.03607426  0.00132622  0.2886660 0.7000
  1   -115.0125575844  -0.043841408778 0.02457757  0.00098233  0.2178274 0.7000
                               ***Turning on DIIS***
  2   -115.0378334356  -0.025275851204 0.01427805  0.00060625  0.1628230 0.7000
  3   -115.3286844408  -0.290851005247 0.00735921  0.00033831  0.1199502 0.7000
  4   -115.2780461466   0.050638294163 0.01564776  0.00080684  0.0845568 0.0000
  5   -115.0993110465   0.178735100111 0.00181173  0.00010622  0.0053534 0.0000
                      *** Initiating the SOSCF procedure ***
                           *** Shutting down DIIS ***
                      *** Re-Reading the Fockian *** 
                      *** Removing any level shift *** 
ITER      Energy       Delta-E        Grad      Rot      Max-DP    RMS-DP
  6   -115.09092870   0.0083823416  0.000806  0.000806  0.000739  0.000053
               *** Restarting incremental Fock matrix formation ***
  7   -115.08917831   0.0017503991  0.000367  0.000384  0.000417  0.000030
  8   -115.08918066  -0.0000023576  0.000200  0.000219  0.000282  0.000021
  9   -115.08918124  -0.0000005812  0.000032  0.000029  0.000048  0.000003
 10   -115.08918126  -0.0000000170  0.000007  0.000014  0.000016  0.000001
                 **** Energy Check signals convergence ****
              ***Rediagonalizing the Fockian in SOSCF/NRSCF***

               *****************************************************
               *                     SUCCESS                       *
               *           SCF CONVERGED AFTER  11 CYCLES          *
               *****************************************************


----------------
TOTAL SCF ENERGY
----------------

Total Energy       :         -115.08918126 Eh           -3131.73584 eV

Components:
Nuclear Repulsion  :           40.05361355 Eh            1089.91423 eV
Electronic Energy  :         -155.14279481 Eh           -4221.65007 eV
One Electron Energy:         -236.41492585 Eh           -6433.17719 eV
Two Electron Energy:           81.27213104 Eh            2211.52712 eV

Virial components:
Potential Energy   :         -229.95982681 Eh           -6257.52501 eV
Kinetic Energy     :          114.87064555 Eh            3125.78918 eV
Virial Ratio       :            2.00190245


---------------
SCF CONVERGENCE
---------------

  Last Energy change         ...   -1.3830e-09  Tolerance :   1.0000e-08
  Last MAX-Density change    ...    4.4791e-06  Tolerance :   1.0000e-07
  Last RMS-Density change    ...    2.3096e-07  Tolerance :   5.0000e-09
  Last Orbital Gradient      ...    2.0669e-06  Tolerance :   1.0000e-05
  Last Orbital Rotation      ...    5.3066e-06  Tolerance :   1.0000e-05

             **** THE GBW FILE WAS UPDATED (12meoh.boyd.etal.mol0-orca.engrad-mp2.def2tzvp.frozencore.gbw) ****
             **** DENSITY FILE WAS UPDATED (12meoh.boyd.etal.mol0-orca.engrad-mp2.def2tzvp.frozencore.scfp) ****
             **** ENERGY FILE WAS UPDATED (12meoh.boyd.etal.mol0-orca.engrad-mp2.def2tzvp.frozencore.en.tmp) ****
             **** THE GBW FILE WAS UPDATED (12meoh.boyd.etal.mol0-orca.engrad-mp2.def2tzvp.frozencore.gbw) ****
             **** DENSITY FILE WAS UPDATED (12meoh.boyd.etal.mol0-orca.engrad-mp2.def2tzvp.frozencore.scfp) ****
----------------
ORBITAL ENERGIES
----------------

  NO   OCC          E(Eh)            E(eV) 
   0   2.0000     -20.558077      -559.4137 
   1   2.0000     -11.271523      -306.7137 
   2   2.0000      -1.347183       -36.6587 
   3   2.0000      -0.919105       -25.0101 
   4   2.0000      -0.681617       -18.5477 
   5   2.0000      -0.617304       -16.7977 
   6   2.0000      -0.591238       -16.0884 
   7   2.0000      -0.500290       -13.6136 
   8   2.0000      -0.448994       -12.2177 
   9   0.0000       0.134556         3.6615 
  10   0.0000       0.175814         4.7841 
  11   0.0000       0.229563         6.2467 
  12   0.0000       0.230299         6.2668 
  13   0.0000       0.254588         6.9277 
  14   0.0000       0.332920         9.0592 
  15   0.0000       0.339088         9.2270 
  16   0.0000       0.460718        12.5368 
  17   0.0000       0.521788        14.1986 
  18   0.0000       0.570648        15.5281 
  19   0.0000       0.608847        16.5676 
  20   0.0000       0.619979        16.8705 
  21   0.0000       0.657796        17.8995 
  22   0.0000       0.683169        18.5900 
  23   0.0000       0.705806        19.2060 
  24   0.0000       0.763140        20.7661 
  25   0.0000       0.882807        24.0224 
  26   0.0000       0.922620        25.1058 
  27   0.0000       0.951710        25.8973 
  28   0.0000       1.090976        29.6870 
  29   0.0000       1.115029        30.3415 
  30   0.0000       1.246383        33.9158 
  31   0.0000       1.534385        41.7528 
  32   0.0000       1.657544        45.1041 
  33   0.0000       1.706786        46.4440 
  34   0.0000       1.776961        48.3536 
  35   0.0000       1.791668        48.7538 
  36   0.0000       1.793248        48.7967 
  37   0.0000       1.840981        50.0956 
  38   0.0000       1.861976        50.6669 
  39   0.0000       1.964529        53.4576 
  40   0.0000       2.138723        58.1976 
  41   0.0000       2.207326        60.0644 
  42   0.0000       2.243179        61.0400 
  43   0.0000       2.288281        62.2673 
  44   0.0000       2.302850        62.6637 
  45   0.0000       2.441129        66.4265 
  46   0.0000       2.554971        69.5243 
  47   0.0000       2.555672        69.5434 
  48   0.0000       2.591683        70.5233 
  49   0.0000       2.633559        71.6628 
  50   0.0000       2.695160        73.3390 
  51   0.0000       2.778977        75.6198 
  52   0.0000       2.839177        77.2579 
  53   0.0000       2.901047        78.9415 
  54   0.0000       3.046072        82.8878 
  55   0.0000       3.110312        84.6359 
  56   0.0000       3.135281        85.3153 
  57   0.0000       3.245551        88.3159 
  58   0.0000       3.356321        91.3301 
  59   0.0000       3.419718        93.0553 
  60   0.0000       3.538729        96.2937 
  61   0.0000       3.637454        98.9802 
  62   0.0000       3.669443        99.8506 
  63   0.0000       3.721873       101.2773 
  64   0.0000       3.864268       105.1521 
  65   0.0000       3.891657       105.8974 
  66   0.0000       3.902014       106.1792 
  67   0.0000       4.250311       115.6568 
  68   0.0000       4.496110       122.3454 
  69   0.0000       4.534295       123.3844 
  70   0.0000       4.708181       128.1161 
  71   0.0000       4.865950       132.4092 
  72   0.0000       5.694845       154.9646 
  73   0.0000       5.772224       157.0702 
  74   0.0000       5.875565       159.8823 
  75   0.0000       6.161829       167.6719 
  76   0.0000       6.175639       168.0477 
  77   0.0000       6.326929       172.1645 
  78   0.0000       6.652027       181.0109 
  79   0.0000       6.948325       189.0735 
  80   0.0000       7.152687       194.6345 
  81   0.0000       7.218563       196.4271 
  82   0.0000       7.455924       202.8860 
  83   0.0000       7.589432       206.5189 
  84   0.0000      23.365784       635.8153 
  85   0.0000      45.147243      1228.5189 

                    ********************************
                    * MULLIKEN POPULATION ANALYSIS *
                    ********************************

-----------------------
MULLIKEN ATOMIC CHARGES
-----------------------
   0 O :   -0.543699
   1 H :    0.329401
   2 C :   -0.075288
   3 H :    0.108573
   4 H :    0.090417
   5 H :    0.090596
Sum of atomic charges:   -0.0000000

--------------------------------
MULLIKEN REDUCED ORBITAL CHARGES
--------------------------------
  0 O s       :     3.806200  s :     3.806200
      pz      :     1.631179  p :     4.703032
      px      :     1.580310
      py      :     1.491543
      dz2     :     0.002596  d :     0.032738
      dxz     :     0.009568
      dyz     :     0.004674
      dx2y2   :     0.008362
      dxy     :     0.007538
      f0      :     0.000294  f :     0.001729
      f+1     :     0.000124
      f-1     :     0.000212
      f+2     :     0.000476
      f-2     :     0.000322
      f+3     :     0.000152
      f-3     :     0.000148
  1 H s       :     0.628147  s :     0.628147
      pz      :     0.015903  p :     0.042451
      px      :     0.015000
      py      :     0.011548
  2 C s       :     3.193431  s :     3.193431
      pz      :     0.967959  p :     2.757725
      px      :     1.025652
      py      :     0.764115
      dz2     :     0.013240  d :     0.115193
      dxz     :     0.026205
      dyz     :     0.028047
      dx2y2   :     0.025991
      dxy     :     0.021710
      f0      :     0.000508  f :     0.008938
      f+1     :     0.000223
      f-1     :     0.001990
      f+2     :     0.002322
      f-2     :     0.001509
      f+3     :     0.001133
      f-3     :     0.001253
  3 H s       :     0.870274  s :     0.870274
      pz      :     0.007731  p :     0.021153
      px      :     0.009696
      py      :     0.003727
  4 H s       :     0.889482  s :     0.889482
      pz      :     0.006920  p :     0.020100
      px      :     0.010733
      py      :     0.002447
  5 H s       :     0.889361  s :     0.889361
      pz      :     0.007576  p :     0.020044
      px      :     0.003640
      py      :     0.008828


                     *******************************
                     * LOEWDIN POPULATION ANALYSIS *
                     *******************************

----------------------
LOEWDIN ATOMIC CHARGES
----------------------
   0 O :   -0.129478
   1 H :    0.191684
   2 C :   -0.338869
   3 H :    0.101457
   4 H :    0.087550
   5 H :    0.087656

-------------------------------
LOEWDIN REDUCED ORBITAL CHARGES
-------------------------------
  0 O s       :     3.395966  s :     3.395966
      pz      :     1.579667  p :     4.660446
      px      :     1.569303
      py      :     1.511477
      dz2     :     0.007024  d :     0.068923
      dxz     :     0.016401
      dyz     :     0.014063
      dx2y2   :     0.015056
      dxy     :     0.016381
      f0      :     0.000467  f :     0.004142
      f+1     :     0.000226
      f-1     :     0.000627
      f+2     :     0.000954
      f-2     :     0.000592
      f+3     :     0.000611
      f-3     :     0.000667
  1 H s       :     0.665704  s :     0.665704
      pz      :     0.050026  p :     0.142612
      px      :     0.061476
      py      :     0.031110
  2 C s       :     2.861846  s :     2.861846
      pz      :     1.029071  p :     2.993312
      px      :     1.075565
      py      :     0.888676
      dz2     :     0.041912  d :     0.425903
      dxz     :     0.092522
      dyz     :     0.112166
      dx2y2   :     0.103011
      dxy     :     0.076292
      f0      :     0.006047  f :     0.057808
      f+1     :     0.002266
      f-1     :     0.014301
      f+2     :     0.007672
      f-2     :     0.007645
      f+3     :     0.010015
      f-3     :     0.009862
  3 H s       :     0.839871  s :     0.839871
      pz      :     0.021023  p :     0.058672
      px      :     0.026821
      py      :     0.010827
  4 H s       :     0.853922  s :     0.853922
      pz      :     0.020233  p :     0.058527
      px      :     0.029434
      py      :     0.008860
  5 H s       :     0.853946  s :     0.853946
      pz      :     0.021943  p :     0.058398
      px      :     0.012623
      py      :     0.023832


                      *****************************
                      * MAYER POPULATION ANALYSIS *
                      *****************************

  NA   - Mulliken gross atomic population
  ZA   - Total nuclear charge
  QA   - Mulliken gross atomic charge
  VA   - Mayer's total valence
  BVA  - Mayer's bonded valence
  FA   - Mayer's free valence

  ATOM       NA         ZA         QA         VA         BVA        FA
  0 O      8.5437     8.0000    -0.5437     1.7948     1.7948     0.0000
  1 H      0.6706     1.0000     0.3294     0.8981     0.8981     0.0000
  2 C      6.0753     6.0000    -0.0753     3.9007     3.9007    -0.0000
  3 H      0.8914     1.0000     0.1086     0.9623     0.9623    -0.0000
  4 H      0.9096     1.0000     0.0904     0.9613     0.9613    -0.0000
  5 H      0.9094     1.0000     0.0906     0.9608     0.9608    -0.0000

  Mayer bond orders larger than 0.100000
B(  0-O ,  1-H ) :   0.8874 B(  0-O ,  2-C ) :   0.9343 B(  2-C ,  3-H ) :   0.9830 
B(  2-C ,  4-H ) :   0.9884 B(  2-C ,  5-H ) :   0.9871 

-------
TIMINGS
-------

Total SCF time: 0 days 0 hours 0 min 2 sec 

Total time                  ....       2.496 sec
Sum of individual times     ....       2.217 sec  ( 88.8%)

Fock matrix formation       ....       1.955 sec  ( 78.3%)
Diagonalization             ....       0.008 sec  (  0.3%)
Density matrix formation    ....       0.002 sec  (  0.1%)
Population analysis         ....       0.012 sec  (  0.5%)
Initial guess               ....       0.199 sec  (  8.0%)
Orbital Transformation      ....       0.000 sec  (  0.0%)
Orbital Orthonormalization  ....       0.000 sec  (  0.0%)
DIIS solution               ....       0.003 sec  (  0.1%)
SOSCF solution              ....       0.003 sec  (  0.1%)


           ************************************************************
           *        Program running with 6 parallel MPI-processes     *
           *              working on a common directory               *
           ************************************************************

------------------------------------------------------------------------------
                                ORCA  MP2 
------------------------------------------------------------------------------

Freezing NCore=4 chemical core electrons
MP2 will be done in the AO integral direct mode
The Q1-step will be done using symmetric double matrices
Dimension of the basis                    ...   86
Memory devoted for MP2                    ... 8000 MB   
Memory needed for all in one shot         ...    6 MB
Number of MOs that can be treated together... 3258      
MP2 density construction                  ... relaxed
The MP2 gradient is requested => amplitudes will be stored on disk
Total number of MOs              ...    7
Number of MOs treated per batch  ...    2 
Number of batches necessary      ...    1 
OPERATORS   0/  0 PASS   0
-----------------------------------------------
 MP2 CORRELATION ENERGY   :     -0.417288091 Eh
-----------------------------------------------


---------------------
MP2 DENSITY FORMATION
---------------------

Completing the external part of the density      ... done
Storing the unrelaxed density                    ... done

Calculating G(D)                                 ... done
Completing the Lagrangian                        ... done
Solving the Z-vector equations                   ... 

------------------------------------------------------------------------------
                           ORCA CP-SCF CALCULATION
------------------------------------------------------------------------------

Input orbitals are from        ... 12meoh.boyd.etal.mol0-orca.engrad-mp2.def2tzvp.frozencore.gbw
Input Perturbation             ... 12meoh.boyd.etal.mol0-orca.engrad-mp2.def2tzvp.frozencore.pin.tmp
Wavefunction output            ... 12meoh.boyd.etal.mol0-orca.engrad-mp2.def2tzvp.frozencore.pout.tmp
Perturbation mode              ... Real perturbation (singlet)
Solver                         ... POPLE
Max. number of iterations      ... 128
Convergence tolerance          ... 1.000e-08
Integral handling              ... Direct
Number of perturbations        ... 1
Number of operators            ... 1
Orbital ranges used for CP-SCF:
 Operator 0:  Orbitals   0...  8  to   9... 85
Variables per vector in CP-SCF ... 693
Number of vectors sought       ... 1
     CP-SCF ITERATION   0: 
     CP-SCF ITERATION   1:      0.000120859466
     CP-SCF ITERATION   2:      0.000005561586
     CP-SCF ITERATION   3:      0.000000735646
     CP-SCF ITERATION   4:      0.000000051240
     CP-SCF ITERATION   5:      0.000000001535
                                                 ... done
Finalizing the relaxed density                   ... done
Transforming P to the AO basis                   ... done
Storing the relaxed density                      ... done

------------------------------------
ENERGY WEIGHTED DENSITY FINALIZATION
------------------------------------

Gathering the parts of the W-matrix              ...                                                      done
Forming the Z-density                            ... done
Transforming Z to the AO basis                   ... done
Calculating G(Z)                                 ... done
Finalizing the W-matrix                          ...                                                      done
Transforming W to the AO basis and storing       ... done

                *********************************************
                * UNRELAXED MP2 DENSITY POPULATION ANALYSIS *
                *********************************************

------------------------------------------------------------------------------
                           ORCA POPULATION ANALYSIS
------------------------------------------------------------------------------
Input electron density              ... 12meoh.boyd.etal.mol0-orca.engrad-mp2.def2tzvp.frozencore.pmp2ur
BaseName (.gbw .S,...)              ... 12meoh.boyd.etal.mol0-orca.engrad-mp2.def2tzvp.frozencore

                    ********************************
                    * MULLIKEN POPULATION ANALYSIS *
                    ********************************

-----------------------
MULLIKEN ATOMIC CHARGES
-----------------------
   0 O :   -0.532648
   1 H :    0.326682
   2 C :   -0.091243
   3 H :    0.111355
   4 H :    0.092845
   5 H :    0.093010
Sum of atomic charges:   -0.0000000

--------------------------------
MULLIKEN REDUCED ORBITAL CHARGES
--------------------------------
  0 O s       :     3.800939  s :     3.800939
      pz      :     1.619544  p :     4.667349
      px      :     1.568258
      py      :     1.479548
      dz2     :     0.008286  d :     0.059975
      dxz     :     0.014868
      dyz     :     0.010224
      dx2y2   :     0.013696
      dxy     :     0.012901
      f0      :     0.000661  f :     0.004384
      f+1     :     0.000503
      f-1     :     0.000590
      f+2     :     0.000850
      f-2     :     0.000700
      f+3     :     0.000542
      f-3     :     0.000539
  1 H s       :     0.629147  s :     0.629147
      pz      :     0.016429  p :     0.044171
      px      :     0.015437
      py      :     0.012305
  2 C s       :     3.191543  s :     3.191543
      pz      :     0.965121  p :     2.751624
      px      :     1.021410
      py      :     0.765093
      dz2     :     0.018551  d :     0.135805
      dxz     :     0.030201
      dyz     :     0.031151
      dx2y2   :     0.029577
      dxy     :     0.026326
      f0      :     0.000960  f :     0.012271
      f+1     :     0.000764
      f-1     :     0.002474
      f+2     :     0.002724
      f-2     :     0.002012
      f+3     :     0.001604
      f-3     :     0.001734
  3 H s       :     0.864412  s :     0.864412
      pz      :     0.008751  p :     0.024233
      px      :     0.010632
      py      :     0.004850
  4 H s       :     0.883858  s :     0.883858
      pz      :     0.007975  p :     0.023297
      px      :     0.011705
      py      :     0.003617
  5 H s       :     0.883756  s :     0.883756
      pz      :     0.008610  p :     0.023234
      px      :     0.004792
      py      :     0.009833


                     *******************************
                     * LOEWDIN POPULATION ANALYSIS *
                     *******************************

----------------------
LOEWDIN ATOMIC CHARGES
----------------------
   0 O :   -0.121679
   1 H :    0.189781
   2 C :   -0.349444
   3 H :    0.103222
   4 H :    0.089006
   5 H :    0.089114

-------------------------------
LOEWDIN REDUCED ORBITAL CHARGES
-------------------------------
  0 O s       :     3.392490  s :     3.392490
      pz      :     1.568157  p :     4.624575
      px      :     1.557456
      py      :     1.498962
      dz2     :     0.012612  d :     0.097563
      dxz     :     0.022226
      dyz     :     0.020059
      dx2y2   :     0.020773
      dxy     :     0.021892
      f0      :     0.000874  f :     0.007051
      f+1     :     0.000620
      f-1     :     0.001022
      f+2     :     0.001397
      f-2     :     0.001023
      f+3     :     0.001033
      f-3     :     0.001082
  1 H s       :     0.664018  s :     0.664018
      pz      :     0.051205  p :     0.146201
      px      :     0.063006
      py      :     0.031990
  2 C s       :     2.860706  s :     2.860706
      pz      :     1.023876  p :     2.979464
      px      :     1.069322
      py      :     0.886266
      dz2     :     0.046603  d :     0.446582
      dxz     :     0.097004
      dyz     :     0.115638
      dx2y2   :     0.106921
      dxy     :     0.080416
      f0      :     0.006723  f :     0.062691
      f+1     :     0.002905
      f-1     :     0.014777
      f+2     :     0.008714
      f-2     :     0.008436
      f+3     :     0.010689
      f-3     :     0.010447
  3 H s       :     0.833103  s :     0.833103
      pz      :     0.022730  p :     0.063675
      px      :     0.028682
      py      :     0.012263
  4 H s       :     0.847216  s :     0.847216
      pz      :     0.021932  p :     0.063779
      px      :     0.031624
      py      :     0.010223
  5 H s       :     0.847253  s :     0.847253
      pz      :     0.023747  p :     0.063634
      px      :     0.013933
      py      :     0.025953


                      *****************************
                      * MAYER POPULATION ANALYSIS *
                      *****************************

  NA   - Mulliken gross atomic population
  ZA   - Total nuclear charge
  QA   - Mulliken gross atomic charge
  VA   - Mayer's total valence
  BVA  - Mayer's bonded valence
  FA   - Mayer's free valence

  ATOM       NA         ZA         QA         VA         BVA        FA
  0 O      8.5326     8.0000    -0.5326     2.0932     1.6886     0.4046
  1 H      0.6733     1.0000     0.3267     0.9046     0.8514     0.0532
  2 C      6.0912     6.0000    -0.0912     4.0055     3.7273     0.2783
  3 H      0.8886     1.0000     0.1114     0.9713     0.9244     0.0469
  4 H      0.9072     1.0000     0.0928     0.9713     0.9221     0.0492
  5 H      0.9070     1.0000     0.0930     0.9707     0.9215     0.0492

  Mayer bond orders larger than 0.100000
B(  0-O ,  1-H ) :   0.8416 B(  0-O ,  2-C ) :   0.8755 B(  2-C ,  3-H ) :   0.9456 
B(  2-C ,  4-H ) :   0.9501 B(  2-C ,  5-H ) :   0.9488 


                *******************************************
                * RELAXED MP2 DENSITY POPULATION ANALYSIS *
                *******************************************

------------------------------------------------------------------------------
                           ORCA POPULATION ANALYSIS
------------------------------------------------------------------------------
Input electron density              ... 12meoh.boyd.etal.mol0-orca.engrad-mp2.def2tzvp.frozencore.pmp2re
BaseName (.gbw .S,...)              ... 12meoh.boyd.etal.mol0-orca.engrad-mp2.def2tzvp.frozencore

                    ********************************
                    * MULLIKEN POPULATION ANALYSIS *
                    ********************************

-----------------------
MULLIKEN ATOMIC CHARGES
-----------------------
   0 O :   -0.495401
   1 H :    0.321491
   2 C :   -0.173380
   3 H :    0.129390
   4 H :    0.109003
   5 H :    0.108897
Sum of atomic charges:   -0.0000000

--------------------------------
MULLIKEN REDUCED ORBITAL CHARGES
--------------------------------
  0 O s       :     3.802624  s :     3.802624
      pz      :     1.608543  p :     4.630617
      px      :     1.551123
      py      :     1.470952
      dz2     :     0.008368  d :     0.057830
      dxz     :     0.013985
      dyz     :     0.009925
      dx2y2   :     0.012960
      dxy     :     0.012591
      f0      :     0.000646  f :     0.004329
      f+1     :     0.000499
      f-1     :     0.000599
      f+2     :     0.000831
      f-2     :     0.000689
      f+3     :     0.000530
      f-3     :     0.000535
  1 H s       :     0.633764  s :     0.633764
      pz      :     0.016638  p :     0.044745
      px      :     0.015306
      py      :     0.012801
  2 C s       :     3.213603  s :     3.213603
      pz      :     0.989842  p :     2.821850
      px      :     1.048359
      py      :     0.783649
      dz2     :     0.020581  d :     0.126217
      dxz     :     0.025621
      dyz     :     0.026553
      dx2y2   :     0.025986
      dxy     :     0.027475
      f0      :     0.000913  f :     0.011711
      f+1     :     0.000738
      f-1     :     0.002345
      f+2     :     0.002544
      f-2     :     0.001958
      f+3     :     0.001573
      f-3     :     0.001641
  3 H s       :     0.847535  s :     0.847535
      pz      :     0.008316  p :     0.023075
      px      :     0.009869
      py      :     0.004890
  4 H s       :     0.868806  s :     0.868806
      pz      :     0.007597  p :     0.022192
      px      :     0.010731
      py      :     0.003864
  5 H s       :     0.868978  s :     0.868978
      pz      :     0.008107  p :     0.022125
      px      :     0.004981
      py      :     0.009038


                     *******************************
                     * LOEWDIN POPULATION ANALYSIS *
                     *******************************

----------------------
LOEWDIN ATOMIC CHARGES
----------------------
   0 O :   -0.108791
   1 H :    0.192442
   2 C :   -0.384350
   3 H :    0.110478
   4 H :    0.095079
   5 H :    0.095143

-------------------------------
LOEWDIN REDUCED ORBITAL CHARGES
-------------------------------
  0 O s       :     3.395467  s :     3.395467
      pz      :     1.564366  p :     4.609136
      px      :     1.551202
      py      :     1.493569
      dz2     :     0.012924  d :     0.097025
      dxz     :     0.021747
      dyz     :     0.019965
      dx2y2   :     0.020480
      dxy     :     0.021909
      f0      :     0.000882  f :     0.007163
      f+1     :     0.000626
      f-1     :     0.001048
      f+2     :     0.001421
      f-2     :     0.001041
      f+3     :     0.001042
      f-3     :     0.001104
  1 H s       :     0.660701  s :     0.660701
      pz      :     0.051315  p :     0.146857
      px      :     0.063333
      py      :     0.032209
  2 C s       :     2.866616  s :     2.866616
      pz      :     1.038340  p :     3.019405
      px      :     1.084199
      py      :     0.896866
      dz2     :     0.047362  d :     0.437178
      dxz     :     0.093982
      dyz     :     0.111055
      dx2y2   :     0.104654
      dxy     :     0.080125
      f0      :     0.006689  f :     0.061152
      f+1     :     0.002827
      f-1     :     0.014395
      f+2     :     0.008393
      f-2     :     0.008154
      f+3     :     0.010581
      f-3     :     0.010112
  3 H s       :     0.825499  s :     0.825499
      pz      :     0.022836  p :     0.064023
      px      :     0.028530
      py      :     0.012657
  4 H s       :     0.840379  s :     0.840379
      pz      :     0.022200  p :     0.064542
      px      :     0.031556
      py      :     0.010786
  5 H s       :     0.840480  s :     0.840480
      pz      :     0.023801  p :     0.064377
      px      :     0.014391
      py      :     0.026185


                      *****************************
                      * MAYER POPULATION ANALYSIS *
                      *****************************

  NA   - Mulliken gross atomic population
  ZA   - Total nuclear charge
  QA   - Mulliken gross atomic charge
  VA   - Mayer's total valence
  BVA  - Mayer's bonded valence
  FA   - Mayer's free valence

  ATOM       NA         ZA         QA         VA         BVA        FA
  0 O      8.4954     8.0000    -0.4954     2.1473     1.7493     0.3980
  1 H      0.6785     1.0000     0.3215     0.9070     0.8537     0.0533
  2 C      6.1734     6.0000    -0.1734     4.0269     3.7509     0.2760
  3 H      0.8706     1.0000     0.1294     0.9628     0.9165     0.0463
  4 H      0.8910     1.0000     0.1090     0.9641     0.9155     0.0486
  5 H      0.8911     1.0000     0.1089     0.9635     0.9148     0.0486

  Mayer bond orders larger than 0.100000
B(  0-O ,  1-H ) :   0.8418 B(  0-O ,  2-C ) :   0.9270 B(  2-C ,  3-H ) :   0.9375 
B(  2-C ,  4-H ) :   0.9397 B(  2-C ,  5-H ) :   0.9381 


----------------------------------
MP2 DERIVATIVE INTEGRAL GENERATION
----------------------------------


Input Wavefunction Amplitudes       ... 12meoh.boyd.etal.mol0-orca.engrad-mp2.def2tzvp.frozencore.mp2tsaa.tmp
Input Correlated Electron Density   ... 12meoh.boyd.etal.mol0-orca.engrad-mp2.def2tzvp.frozencore.pmp2re
Input Energy Weighted Density       ... 12meoh.boyd.etal.mol0-orca.engrad-mp2.def2tzvp.frozencore.wmp2.tmp
Input SCF Electron Density          ... 12meoh.boyd.etal.mol0-orca.engrad-mp2.def2tzvp.frozencore.scfp

One-Electron Terms    ...
                        ... One-Electron Terms done
Prescreening matrices              ... done

Batch handling in the gradient evaluation:
Memory available                      ... 8000.0 MB
Memory per occupied orbital in Q2     ...    0.4 MB
Memory per occupied orbital in Q3     ...    0.0 MB
Total memory requirement per |i>      ...    0.4 MB
Max. Number of orbitals possible      ...  18729
Number of orbitals treated per batch  ...      7
Number of batches to be done          ...      1
Batch   0: i=    2 ...     8

---------------------------------------
MP2 TOTAL ENERGY:     -115.506469354 Eh
---------------------------------------

The final MP2 gradient
  0:   0.01982946  -0.00808599  -0.01757831
  1:  -0.02255536   0.00979551   0.01886308
  2:   0.00454072   0.00219361   0.00050937
  3:   0.00219581  -0.00286927  -0.00340730
  4:  -0.00259023   0.00144634  -0.00071511
  5:  -0.00142041  -0.00248020   0.00232827

-----------------------------------
NORM OF THE MP2 GRADIENT:  0.042442
-----------------------------------

-------------------------   --------------------
FINAL SINGLE POINT ENERGY      -115.506469353949
-------------------------   --------------------


                            ***************************************
                            *     ORCA property calculations      *
                            ***************************************

                                    ---------------------
                                    Active property flags
                                    ---------------------
   (+) Dipole Moment


------------------------------------------------------------------------------
                       ORCA ELECTRIC PROPERTIES CALCULATION
------------------------------------------------------------------------------

Dipole Moment Calculation                       ... on
Quadrupole Moment Calculation                   ... off
Polarizability Calculation                      ... off
GBWName                                         ... 12meoh.boyd.etal.mol0-orca.engrad-mp2.def2tzvp.frozencore.gbw
Electron density file                           ... 12meoh.boyd.etal.mol0-orca.engrad-mp2.def2tzvp.frozencore.scfp
The origin for moment calculation is the CENTER OF MASS  = (-3.770304, -6.295394 -2.479252)

-------------
DIPOLE MOMENT
-------------
                                X             Y             Z
Electronic contribution:      0.61606       1.49183       0.71628
Nuclear contribution   :     -1.25904      -1.83097      -0.60810
                        -----------------------------------------
Total Dipole Moment    :     -0.64298      -0.33914       0.10817
                        -----------------------------------------
Magnitude (a.u.)       :      0.73494
Magnitude (Debye)      :      1.86807



--------------------
Rotational spectrum 
--------------------
 
Rotational constants in cm-1:     4.188034     0.824581     0.792748 
Rotational constants in MHz : 125554.088688 24720.319949 23765.978857 

 Dipole components along the rotational axes: 
x,y,z [a.u.] :    -0.386344     0.625199    -0.002005 
x,y,z [Debye]:    -0.982008     1.589131    -0.005097 

 

                         *** MP2 UNRELAXED DENSITY ***

------------------------------------------------------------------------------
                       ORCA ELECTRIC PROPERTIES CALCULATION
------------------------------------------------------------------------------

Dipole Moment Calculation                       ... on
Quadrupole Moment Calculation                   ... off
Polarizability Calculation                      ... off
GBWName                                         ... 12meoh.boyd.etal.mol0-orca.engrad-mp2.def2tzvp.frozencore.gbw
Electron density file                           ... 12meoh.boyd.etal.mol0-orca.engrad-mp2.def2tzvp.frozencore.pmp2ur
The origin for moment calculation is the CENTER OF MASS  = (-3.770304, -6.295394 -2.479252)

-------------
DIPOLE MOMENT
-------------
                                X             Y             Z
Electronic contribution:      0.62824       1.50165       0.71647
Nuclear contribution   :     -1.25904      -1.83097      -0.60810
                        -----------------------------------------
Total Dipole Moment    :     -0.63080      -0.32932       0.10836
                        -----------------------------------------
Magnitude (a.u.)       :      0.71980
Magnitude (Debye)      :      1.82958



--------------------
Rotational spectrum 
--------------------
 
Rotational constants in cm-1:     4.188034     0.824581     0.792748 
Rotational constants in MHz : 125554.088688 24720.319949 23765.978857 

 Dipole components along the rotational axes: 
x,y,z [a.u.] :    -0.375082     0.614344    -0.002059 
x,y,z [Debye]:    -0.953383     1.561539    -0.005233 

 

                           *** MP2 RELAXED DENSITY ***

------------------------------------------------------------------------------
                       ORCA ELECTRIC PROPERTIES CALCULATION
------------------------------------------------------------------------------

Dipole Moment Calculation                       ... on
Quadrupole Moment Calculation                   ... off
Polarizability Calculation                      ... off
GBWName                                         ... 12meoh.boyd.etal.mol0-orca.engrad-mp2.def2tzvp.frozencore.gbw
Electron density file                           ... 12meoh.boyd.etal.mol0-orca.engrad-mp2.def2tzvp.frozencore.pmp2re
The origin for moment calculation is the CENTER OF MASS  = (-3.770304, -6.295394 -2.479252)

-------------
DIPOLE MOMENT
-------------
                                X             Y             Z
Electronic contribution:      0.64311       1.51854       0.71979
Nuclear contribution   :     -1.25904      -1.83097      -0.60810
                        -----------------------------------------
Total Dipole Moment    :     -0.61593      -0.31243       0.11169
                        -----------------------------------------
Magnitude (a.u.)       :      0.69961
Magnitude (Debye)      :      1.77826



--------------------
Rotational spectrum 
--------------------
 
Rotational constants in cm-1:     4.188034     0.824581     0.792748 
Rotational constants in MHz : 125554.088688 24720.319949 23765.978857 

 Dipole components along the rotational axes: 
x,y,z [a.u.] :    -0.355696     0.602435    -0.002353 
x,y,z [Debye]:    -0.904107     1.531267    -0.005981 

 

Timings for individual modules:

Sum of individual times         ...        8.447 sec (=   0.141 min)
GTO integral calculation        ...        1.483 sec (=   0.025 min)  17.6 %
SCF iterations                  ...        3.779 sec (=   0.063 min)  44.7 %
MP2 module                      ...        3.184 sec (=   0.053 min)  37.7 %
                             ****ORCA TERMINATED NORMALLY****
TOTAL RUN TIME: 0 days 0 hours 0 minutes 9 seconds 441 msec
