
                                 *****************
                                 * O   R   C   A *
                                 *****************

           --- An Ab Initio, DFT and Semiempirical electronic structure package ---

                  #######################################################
                  #                        -***-                        #
                  #  Department of molecular theory and spectroscopy    #
                  #              Directorship: Frank Neese              #
                  # Max Planck Institute for Chemical Energy Conversion #
                  #                  D-45470 Muelheim/Ruhr              #
                  #                       Germany                       #
                  #                                                     #
                  #                  All rights reserved                #
                  #                        -***-                        #
                  #######################################################


                         Program Version 3.0.3 - RELEASE   -


 With contributions from (in alphabetic order):
   Ute Becker             : Parallelization
   Dmytro Bykov           : SCF Hessian
   Dmitry Ganyushin       : Spin-Orbit,Spin-Spin,Magnetic field MRCI
   Andreas Hansen         : Spin unrestricted coupled pair/coupled cluster methods
   Dimitrios Liakos       : Extrapolation schemes; parallel MDCI
   Robert Izsak           : Overlap fitted RIJCOSX, COSX-SCS-MP3
   Christian Kollmar      : KDIIS, OOCD, Brueckner-CCSD(T), CCSD density
   Simone Kossmann        : Meta GGA functionals, TD-DFT gradient, OOMP2, MP2 Hessian
   Taras Petrenko         : DFT Hessian,TD-DFT gradient, ASA and ECA modules, normal mode analysis, Resonance Raman, ABS, FL, XAS/XES, NRVS
   Christoph Reimann      : Effective Core Potentials
   Michael Roemelt        : Restricted open shell CIS
   Christoph Riplinger    : Improved optimizer, TS searches, QM/MM, DLPNO-CCSD
   Barbara Sandhoefer     : DKH picture change effects
   Igor Schapiro          : Molecular dynamics
   Kantharuban Sivalingam : CASSCF convergence, NEVPT2
   Boris Wezisla          : Elementary symmetry handling
   Frank Wennmohs         : Technical directorship


 We gratefully acknowledge several colleagues who have allowed us to
 interface, adapt or use parts of their codes:
   Stefan Grimme, W. Hujo, H. Kruse, T. Risthaus : VdW corrections, initial TS optimization,
                                                   DFT functionals, gCP
   Ed Valeev                                     : LibInt (2-el integral package), F12 methods
   Garnet Chan, S. Sharma, R. Olivares           : DMRG
   Ulf Ekstrom                                   : XCFun DFT Library
   Mihaly Kallay                                 : mrcc  (arbitrary order and MRCC methods)
   Andreas Klamt, Michael Diedenhofen            : otool_cosmo (COSMO solvation model)
   Frank Weinhold                                : gennbo (NPA and NBO analysis)
   Christopher J. Cramer and Donald G. Truhlar   : smd solvation model


 Your calculation uses the libint2 library for the computation of 2-el integrals
 For citations please refer to: http://libint.valeyev.net

 This ORCA versions uses:
   CBLAS   interface :  Fast vector & matrix operations
   LAPACKE interface :  Fast linear algebra routines
   SCALAPACK package :  Parallel linear algebra routines


Your calculation utilizes the basis: Ahlrichs-TZV
Cite in your paper:
H - Kr: A. Schaefer, H. Horn and R. Ahlrichs, J. Chem. Phys. 97, 2571 (1992).

The def2-TZV basis will be loaded
Cite in your paper:
 	F. Weigend, R. Ahlrichs, Phys. Chem. Chem. Phys. 2005, 7, 3297.

Your calculation utilizes the atom-pairwise dispersion correction
with the Becke-Johnson damping scheme (D3BJ)
Cite in your paper:
S.Grimme, S.Ehrlich, L.Goerigk, J Comput Chem, (2011), 32, 1456–1465 
S.Grimme, J.Antony, S.Ehrlich and H.Krieg, J.Chem.Phys., 132, (2010), 154104 
   

================================================================================
                                        WARNINGS
                       Please study these warnings very carefully!
================================================================================
Now building the actual basis set


INFO   : the flag for use of LIBINT has been found!

================================================================================
                                       INPUT FILE
================================================================================
NAME = 1_B3LYP_GasPhase_onB3LYP_16_waters.inp
|  1> ! B3LYP Def2-TZVP def2-TZVP/J RIJCOSX TightSCF Grid4 D3BJ
|  2> 
|  3> %pal nprocs 12 end
|  4> 
|  5> %scf
|  6>         maxiter 400
|  7> end
|  8> 
|  9> * xyz  0  1
| 10> O  3.128243	0.296750	-3.245878
| 11> H  2.480321	-0.380283	-3.634228
| 12> H  3.591577	0.699303	-3.991790
| 13> O  -2.399392	0.340093	-0.491321
| 14> H  -2.138445	-0.323426	0.199909
| 15> H  -3.127669	0.840361	-0.060908
| 16> O  -0.492261	-0.494580	-2.280162
| 17> H  -1.358192	-0.173321	-1.950491
| 18> H  0.162719	0.189023	-1.982045
| 19> O  1.418214	-1.511946	-3.984593
| 20> H  1.678388	-2.256997	-3.396989
| 21> H  0.556186	-1.216964	-3.623382
| 22> O  2.288655	-3.185584	-1.995643
| 23> H  2.698311	-4.049785	-2.137820
| 24> H  3.040655	-2.569657	-1.709242
| 25> O  -3.841990	1.750873	1.341641
| 26> H  -4.687697	2.219215	1.315073
| 27> H  -3.166181	2.427126	1.672745
| 28> O  0.386847	0.558510	2.089518
| 29> H  0.008397	0.847330	2.951862
| 30> H  0.080831	1.239389	1.434751
| 31> O  -3.262410	-0.187061	3.244251
| 32> H  -2.795333	-0.849143	2.692824
| 33> H  -3.652992	0.430106	2.586230
| 34> O  -1.285762	1.328936	4.051377
| 35> H  -2.066730	0.721303	3.837364
| 36> H  -1.263214	1.422346	5.012574
| 37> O  1.427200	1.168411	-1.354498
| 38> H  2.088059	1.114394	-2.083763
| 39> H  1.782607	0.564104	-0.649119
| 40> O  -1.953411	3.336645	2.213509
| 41> H  -1.307265	3.213974	1.486762
| 42> H  -1.613813	2.788383	2.953524
| 43> O  -1.477008	-1.310285	1.450664
| 44> H  -0.754637	-0.695559	1.742113
| 45> H  -0.992667	-1.993867	0.940346
| 46> O  -0.521409	2.224565	0.160128
| 47> H  0.219438	2.147697	-0.481650
| 48> H  -1.219927	1.606880	-0.176519
| 49> O  4.106517	-1.433801	-1.308156
| 50> H  3.683913	-1.066024	-0.502998
| 51> H  3.961705	-0.747269	-1.995237
| 52> O  2.200962	-0.634378	0.505775
| 53> H  1.816084	-0.204902	1.301962
| 54> H  1.505033	-1.295101	0.250425
| 55> O  0.262170	-2.295727	-0.401819
| 56> H  0.887201	-2.891743	-0.871777
| 57> H  -0.081828	-1.708309	-1.125301
| 58> **                         ****END OF INPUT****
================================================================================

                       ****************************
                       * Single Point Calculation *
                       ****************************

---------------------------------
CARTESIAN COORDINATES (ANGSTROEM)
---------------------------------
  O      3.128243    0.296750   -3.245878
  H      2.480321   -0.380283   -3.634228
  H      3.591577    0.699303   -3.991790
  O     -2.399392    0.340093   -0.491321
  H     -2.138445   -0.323426    0.199909
  H     -3.127669    0.840361   -0.060908
  O     -0.492261   -0.494580   -2.280162
  H     -1.358192   -0.173321   -1.950491
  H      0.162719    0.189023   -1.982045
  O      1.418214   -1.511946   -3.984593
  H      1.678388   -2.256997   -3.396989
  H      0.556186   -1.216964   -3.623382
  O      2.288655   -3.185584   -1.995643
  H      2.698311   -4.049785   -2.137820
  H      3.040655   -2.569657   -1.709242
  O     -3.841990    1.750873    1.341641
  H     -4.687697    2.219215    1.315073
  H     -3.166181    2.427126    1.672745
  O      0.386847    0.558510    2.089518
  H      0.008397    0.847330    2.951862
  H      0.080831    1.239389    1.434751
  O     -3.262410   -0.187061    3.244251
  H     -2.795333   -0.849143    2.692824
  H     -3.652992    0.430106    2.586230
  O     -1.285762    1.328936    4.051377
  H     -2.066730    0.721303    3.837364
  H     -1.263214    1.422346    5.012574
  O      1.427200    1.168411   -1.354498
  H      2.088059    1.114394   -2.083763
  H      1.782607    0.564104   -0.649119
  O     -1.953411    3.336645    2.213509
  H     -1.307265    3.213974    1.486762
  H     -1.613813    2.788383    2.953524
  O     -1.477008   -1.310285    1.450664
  H     -0.754637   -0.695559    1.742113
  H     -0.992667   -1.993867    0.940346
  O     -0.521409    2.224565    0.160128
  H      0.219438    2.147697   -0.481650
  H     -1.219927    1.606880   -0.176519
  O      4.106517   -1.433801   -1.308156
  H      3.683913   -1.066024   -0.502998
  H      3.961705   -0.747269   -1.995237
  O      2.200962   -0.634378    0.505775
  H      1.816084   -0.204902    1.301962
  H      1.505033   -1.295101    0.250425
  O      0.262170   -2.295727   -0.401819
  H      0.887201   -2.891743   -0.871777
  H     -0.081828   -1.708309   -1.125301

----------------------------
CARTESIAN COORDINATES (A.U.)
----------------------------
  NO LB      ZA    FRAG    MASS        X           Y           Z
   0 O     8.0000    0    15.999          5.911522550356218          0.560776230241131         -6.133820484120045
   1 H     1.0000    0     1.008          4.687127414213693         -0.718630723385975         -6.867695628228362
   2 H     1.0000    0     1.008          6.787096918890487          1.321491154629533         -7.543389884125513
   3 O     8.0000    0    15.999         -4.534193767921580          0.642682630063680         -0.928462133844323
   4 H     1.0000    0     1.008         -4.041075402453231         -0.611186564589615          0.377773261706064
   5 H     1.0000    0     1.008         -5.910437847555348          1.588052143628197         -0.115099439364876
   6 O     8.0000    0    15.999         -0.930238476410209         -0.934620751314773         -4.308881720974148
   7 H     1.0000    0     1.008         -2.566610917282773         -0.327529223257365         -3.685893816678196
   8 H     1.0000    0     1.008          0.307494346785532          0.357201703012197         -3.745522235107948
   9 O     8.0000    0    15.999          2.680036059292994         -2.857163869277701         -7.529789525139682
  10 H     1.0000    0     1.008          3.171693666459822         -4.265106215081864         -6.419378889943019
  11 H     1.0000    0     1.008          1.051039219521125         -2.299728674841342         -6.847199658579853
  12 O     8.0000    0    15.999          4.324931165029542         -6.019881336601396         -3.771218731077008
  13 H     1.0000    0     1.008          5.099068814147186         -7.652984551262276         -4.039894323619531
  14 H     1.0000    0     1.008          5.746005217738324         -4.855947988113681         -3.229999276595828
  15 O     8.0000    0    15.999         -7.260308909264110          3.308670465277103          2.535334060040242
  16 H     1.0000    0     1.008         -8.858463528804249          4.193708582290051          2.485127816114222
  17 H     1.0000    0     1.008         -5.983214980424922          4.586603432519752          3.161029941886104
  18 O     8.0000    0    15.999          0.731034885729034          1.055430943056358          3.948616771898866
  19 H     1.0000    0     1.008          0.015868030346537          1.601221645055494          5.578210765129054
  20 H     1.0000    0     1.008          0.152748453130989          2.342105783394526          2.711286460369650
  21 O     8.0000    0    15.999         -6.165061436566031         -0.353494060337443          6.130745899700155
  22 H     1.0000    0     1.008         -5.282413823112494         -1.604647718536293          5.088699886850360
  23 H     1.0000    0     1.008         -6.903154449405260          0.812782548556334          4.887266419331159
  24 O     8.0000    0    15.999         -2.429738053402856          2.511325089508772          7.655992995267478
  25 H     1.0000    0     1.008         -3.905553692759069          1.363065129575801          7.251567036168590
  26 H     1.0000    0     1.008         -2.387128508535200          2.687844407678357          9.472392086014183
  27 O     8.0000    0    15.999          2.697017138332411          2.207976801861064         -2.559630268944067
  28 H     1.0000    0     1.008          3.945859661469475          2.105899465285039         -3.937741397998149
  29 H     1.0000    0     1.008          3.368639034410961          1.066002071049514         -1.226657138324829
  30 O     8.0000    0    15.999         -3.691411816989246          6.305345256117675          4.182925804969896
  31 H     1.0000    0     1.008         -2.470372834460565          6.073530661543421          2.809573006321028
  32 H     1.0000    0     1.008         -3.049664601361857          5.269280226481742          5.581351489963630
  33 O     8.0000    0    15.999         -2.791140617610760         -2.476079807385007          2.741357672338739
  34 H     1.0000    0     1.008         -1.426057260523932         -1.314416019984132          3.292116464343954
  35 H     1.0000    0     1.008         -1.875868772181207         -3.767862577463164          1.776996411128313
  36 O     8.0000    0    15.999         -0.985320213761746          4.203818617106529          0.302598066372542
  37 H     1.0000    0     1.008          0.414677723375412          4.058559148644270         -0.910186592403171
  38 H     1.0000    0     1.008         -2.305327933376151          3.036563130075381         -0.333572567433645
  39 O     8.0000    0    15.999          7.760192494291897         -2.709491220542425         -2.472056580445889
  40 H     1.0000    0     1.008          6.961586671192240         -2.014493412187269         -0.950528465910122
  41 H     1.0000    0     1.008          7.486537473386492         -1.412133758369200         -3.770451502266636
  42 O     8.0000    0    15.999          4.159215411167586         -1.198800685384696          0.955776235384021
  43 H     1.0000    0     1.008          3.431901396196242         -0.387208664292732          2.460351616772381
  44 H     1.0000    0     1.008          2.844100192513903         -2.447386205767547          0.473234667087229
  45 O     8.0000    0    15.999          0.495429500530135         -4.338295308248633         -0.759327865406103
  46 H     1.0000    0     1.008          1.676566915741069         -5.464602319683842         -1.647419779851467
  47 H     1.0000    0     1.008         -0.154632510086508         -3.228236162112879         -2.126510708227719

--------------------------------
INTERNAL COORDINATES (ANGSTROEM)
--------------------------------
 O      0   0   0   0.000000     0.000     0.000
 H      1   0   0   1.014393     0.000     0.000
 H      1   2   0   0.965977   106.791     0.000
 O      2   1   3   5.848795   104.180   221.700
 H      4   2   1   0.993051    94.158   270.364
 H      4   2   1   0.982808   156.386    48.262
 O      4   2   1   2.744773    14.678   180.877
 H      7   4   6   0.980677    21.215   316.609
 H      7   4   6   0.992565    93.056    81.439
 O      2   1   3   1.591065   170.197   173.308
 H     10   2   1   0.983905   103.330   316.080
 H     10   2   1   0.980092   106.972    65.385
 O     11  10   2   1.788427   162.057    33.360
 H     13  11  10   0.966890   119.566   210.196
 H     13  11  10   1.013359    99.154   324.169
 O      6   4   2   1.818359   152.102   271.796
 H     16   6   4   0.967094   124.391   173.067
 H     16   6   4   1.011764   108.948    47.604
 O      5   4   2   3.274986   115.107    68.509
 H     19   5   4   0.985027   106.728   102.681
 H     19   5   4   0.992956    64.313     3.812
 O     16   6   4   2.776945    95.569   309.400
 H     22  16   6   0.980095   100.685     1.993
 H     22  16   6   0.983077    11.583   255.745
 O     20  19   5   1.765142   155.096   347.367
 H     25  20  19   1.012388   105.673    40.197
 H     25  20  19   0.965988   128.983   167.766
 O      9   7   4   1.718118   171.099   107.826
 H     28   9   7   0.985637   101.068    87.288
 H     28   9   7   0.994515   100.119   340.094
 O     18  16   6   1.609491   172.293   306.623
 H     31  18  16   0.980160   100.189    62.347
 H     31  18  16   0.981601   101.441   314.472
 O      5   4   2   1.725044   170.999    62.373
 H     34   5   4   0.992296    97.914     5.783
 H     34   5   4   0.980966   102.168   260.570
 O     21  19   5   1.719863   171.654   331.087
 H     37  21  19   0.983180   100.086   281.574
 H     37  21  19   0.991359    98.134    28.597
 O     15  13  11   1.608447   172.504    36.982
 H     40  15  13   0.980884   100.601    70.773
 H     40  15  13   0.982027   102.797   323.200
 O     30  28   9   1.716147   171.407   355.325
 H     43  30  28   0.983104    98.308   259.797
 H     43  30  28   0.993013    96.937     4.060
 O     45  43  30   1.723770   171.434    12.349
 H     46  45  43   0.983239    94.266    92.767
 H     46  45  43   0.993389   100.486   348.358

---------------------------
INTERNAL COORDINATES (A.U.)
---------------------------
 O      0   0   0   0.000000     0.000     0.000
 H      1   0   0   1.916924     0.000     0.000
 H      1   2   0   1.825432   106.791     0.000
 O      2   1   3  11.052621   104.180   221.700
 H      4   2   1   1.876594    94.158   270.364
 H      4   2   1   1.857237   156.386    48.262
 O      4   2   1   5.186870    14.678   180.877
 H      7   4   6   1.853210    21.215   316.609
 H      7   4   6   1.875676    93.056    81.439
 O      2   1   3   3.006677   170.197   173.308
 H     10   2   1   1.859312   103.330   316.080
 H     10   2   1   1.852105   106.972    65.385
 O     11  10   2   3.379637   162.057    33.360
 H     13  11  10   1.827157   119.566   210.196
 H     13  11  10   1.914970    99.154   324.169
 O      6   4   2   3.436201   152.102   271.796
 H     16   6   4   1.827542   124.391   173.067
 H     16   6   4   1.911956   108.948    47.604
 O      5   4   2   6.188827   115.107    68.509
 H     19   5   4   1.861432   106.728   102.681
 H     19   5   4   1.876415    64.313     3.812
 O     16   6   4   5.247666    95.569   309.400
 H     22  16   6   1.852110   100.685     1.993
 H     22  16   6   1.857747    11.583   255.745
 O     20  19   5   3.335634   155.096   347.367
 H     25  20  19   1.913137   105.673    40.197
 H     25  20  19   1.825453   128.983   167.766
 O      9   7   4   3.246772   171.099   107.826
 H     28   9   7   1.862584   101.068    87.288
 H     28   9   7   1.879361   100.119   340.094
 O     18  16   6   3.041497   172.293   306.623
 H     31  18  16   1.852234   100.189    62.347
 H     31  18  16   1.854957   101.441   314.472
 O      5   4   2   3.259861   170.999    62.373
 H     34   5   4   1.875167    97.914     5.783
 H     34   5   4   1.853758   102.168   260.570
 O     21  19   5   3.250070   171.654   331.087
 H     37  21  19   1.857940   100.086   281.574
 H     37  21  19   1.873398    98.134    28.597
 O     15  13  11   3.039524   172.504    36.982
 H     40  15  13   1.853602   100.601    70.773
 H     40  15  13   1.855762   102.797   323.200
 O     30  28   9   3.243048   171.407   355.325
 H     43  30  28   1.857798    98.308   259.797
 H     43  30  28   1.876523    96.937     4.060
 O     45  43  30   3.257453   171.434    12.349
 H     46  45  43   1.858053    94.266    92.767
 H     46  45  43   1.877232   100.486   348.358

---------------------
BASIS SET INFORMATION
---------------------
There are 2 groups of distinct atoms

 Group   1 Type O   : 11s6p2d1f contracted to 5s3p2d1f pattern {62111/411/11/1}
 Group   2 Type H   : 5s1p contracted to 3s1p pattern {311/1}

Atom   0O    basis set group =>   1
Atom   1H    basis set group =>   2
Atom   2H    basis set group =>   2
Atom   3O    basis set group =>   1
Atom   4H    basis set group =>   2
Atom   5H    basis set group =>   2
Atom   6O    basis set group =>   1
Atom   7H    basis set group =>   2
Atom   8H    basis set group =>   2
Atom   9O    basis set group =>   1
Atom  10H    basis set group =>   2
Atom  11H    basis set group =>   2
Atom  12O    basis set group =>   1
Atom  13H    basis set group =>   2
Atom  14H    basis set group =>   2
Atom  15O    basis set group =>   1
Atom  16H    basis set group =>   2
Atom  17H    basis set group =>   2
Atom  18O    basis set group =>   1
Atom  19H    basis set group =>   2
Atom  20H    basis set group =>   2
Atom  21O    basis set group =>   1
Atom  22H    basis set group =>   2
Atom  23H    basis set group =>   2
Atom  24O    basis set group =>   1
Atom  25H    basis set group =>   2
Atom  26H    basis set group =>   2
Atom  27O    basis set group =>   1
Atom  28H    basis set group =>   2
Atom  29H    basis set group =>   2
Atom  30O    basis set group =>   1
Atom  31H    basis set group =>   2
Atom  32H    basis set group =>   2
Atom  33O    basis set group =>   1
Atom  34H    basis set group =>   2
Atom  35H    basis set group =>   2
Atom  36O    basis set group =>   1
Atom  37H    basis set group =>   2
Atom  38H    basis set group =>   2
Atom  39O    basis set group =>   1
Atom  40H    basis set group =>   2
Atom  41H    basis set group =>   2
Atom  42O    basis set group =>   1
Atom  43H    basis set group =>   2
Atom  44H    basis set group =>   2
Atom  45O    basis set group =>   1
Atom  46H    basis set group =>   2
Atom  47H    basis set group =>   2
-------------------------------
AUXILIARY BASIS SET INFORMATION
-------------------------------
There are 2 groups of distinct atoms

 Group   1 Type O   : 12s5p4d2f1g contracted to 6s4p3d1f1g pattern {711111/2111/211/2/1}
 Group   2 Type H   : 5s2p1d contracted to 3s1p1d pattern {311/2/1}

Atom   0O    basis set group =>   1
Atom   1H    basis set group =>   2
Atom   2H    basis set group =>   2
Atom   3O    basis set group =>   1
Atom   4H    basis set group =>   2
Atom   5H    basis set group =>   2
Atom   6O    basis set group =>   1
Atom   7H    basis set group =>   2
Atom   8H    basis set group =>   2
Atom   9O    basis set group =>   1
Atom  10H    basis set group =>   2
Atom  11H    basis set group =>   2
Atom  12O    basis set group =>   1
Atom  13H    basis set group =>   2
Atom  14H    basis set group =>   2
Atom  15O    basis set group =>   1
Atom  16H    basis set group =>   2
Atom  17H    basis set group =>   2
Atom  18O    basis set group =>   1
Atom  19H    basis set group =>   2
Atom  20H    basis set group =>   2
Atom  21O    basis set group =>   1
Atom  22H    basis set group =>   2
Atom  23H    basis set group =>   2
Atom  24O    basis set group =>   1
Atom  25H    basis set group =>   2
Atom  26H    basis set group =>   2
Atom  27O    basis set group =>   1
Atom  28H    basis set group =>   2
Atom  29H    basis set group =>   2
Atom  30O    basis set group =>   1
Atom  31H    basis set group =>   2
Atom  32H    basis set group =>   2
Atom  33O    basis set group =>   1
Atom  34H    basis set group =>   2
Atom  35H    basis set group =>   2
Atom  36O    basis set group =>   1
Atom  37H    basis set group =>   2
Atom  38H    basis set group =>   2
Atom  39O    basis set group =>   1
Atom  40H    basis set group =>   2
Atom  41H    basis set group =>   2
Atom  42O    basis set group =>   1
Atom  43H    basis set group =>   2
Atom  44H    basis set group =>   2
Atom  45O    basis set group =>   1
Atom  46H    basis set group =>   2
Atom  47H    basis set group =>   2
smp-n88.crc.pitt.edu.349602hfi_wait_for_device: The /dev/hfi1_0 device failed to appear after 15.0 seconds: Connection timed out
smp-n88.crc.pitt.edu.349603hfi_wait_for_device: The /dev/hfi1_0 device failed to appear after 15.0 seconds: Connection timed out
smp-n88.crc.pitt.edu.349604hfi_wait_for_device: The /dev/hfi1_0 device failed to appear after 15.0 seconds: Connection timed out
smp-n88.crc.pitt.edu.349605hfi_wait_for_device: The /dev/hfi1_0 device failed to appear after 15.0 seconds: Connection timed out
smp-n88.crc.pitt.edu.349606hfi_wait_for_device: The /dev/hfi1_0 device failed to appear after 15.0 seconds: Connection timed out
smp-n88.crc.pitt.edu.349607hfi_wait_for_device: The /dev/hfi1_0 device failed to appear after 15.0 seconds: Connection timed out
smp-n88.crc.pitt.edu.349608hfi_wait_for_device: The /dev/hfi1_0 device failed to appear after 15.0 seconds: Connection timed out
smp-n88.crc.pitt.edu.349610hfi_wait_for_device: The /dev/hfi1_0 device failed to appear after 15.0 seconds: Connection timed out
smp-n88.crc.pitt.edu.349611hfi_wait_for_device: The /dev/hfi1_0 device failed to appear after 15.0 seconds: Connection timed out
smp-n88.crc.pitt.edu.349612hfi_wait_for_device: The /dev/hfi1_0 device failed to appear after 15.0 seconds: Connection timed out
smp-n88.crc.pitt.edu.349600hfi_wait_for_device: The /dev/hfi1_0 device failed to appear after 15.0 seconds: Connection timed out
smp-n88.crc.pitt.edu.349601hfi_wait_for_device: The /dev/hfi1_0 device failed to appear after 15.0 seconds: Connection timed out


           ************************************************************
           *        Program running with 12 parallel MPI-processes    *
           *              working on a common directory               *
           ************************************************************
------------------------------------------------------------------------------
                           ORCA GTO INTEGRAL CALCULATION
                           -- RI-GTO INTEGRALS CHOSEN --
------------------------------------------------------------------------------

                         BASIS SET STATISTICS AND STARTUP INFO

Gaussian basis set:
 # of primitive gaussian shells          ...  512
 # of primitive gaussian functions       ...  992
 # of contracted shells                  ...  304
 # of contracted basis functions         ...  688
 Highest angular momentum                ...    3
 Maximum contraction depth               ...    6
Auxiliary gaussian basis set:
 # of primitive gaussian shells          ...  640
 # of primitive gaussian functions       ... 1632
 # of contracted shells                  ...  400
 # of contracted aux-basis functions     ... 1136
 Highest angular momentum                ...    4
 Maximum contraction depth               ...    7
Ratio of auxiliary to basis functions    ...  1.65
Integral package used                  ... LIBINT
 One Electron integrals                  ... done
 Ordering auxiliary basis shells         ... done
 Integral threshhold             Thresh  ...  2.500e-11
 Primitive cut-off               TCut    ...  2.500e-12
 Pre-screening matrix                    ... done
 Shell pair data                         ... 
 Ordering of the shell pairs             ... done (   0.005 sec) 30505 of 46360 pairs
 Determination of significant pairs      ... done (   0.000 sec)
 Creation of shell pair data             ... done (   0.003 sec)
 Storage of shell pair data              ... done (   0.004 sec)
 Shell pair data done in (   0.012 sec)
 Computing two index integrals           ... done
 Cholesky decomposition of the V-matrix  ... done


Timings:
 Total evaluation time                   ...   0.627 sec (  0.010 min)
 One electron matrix time                ...   0.201 sec (  0.003 min) = 32.0%
 Schwartz matrix evaluation time         ...   0.308 sec (  0.005 min) = 49.1%
 Two index repulsion integral time       ...   0.030 sec (  0.000 min) =  4.8%
 Cholesky decomposition of V             ...   0.062 sec (  0.001 min) =  9.9%
 Three index repulsion integral time     ...   0.000 sec (  0.000 min) =  0.0%

           ************************************************************
           *              Shut down parallel processing               *
           ************************************************************
smp-n88.crc.pitt.edu.349661hfi_wait_for_device: The /dev/hfi1_0 device failed to appear after 15.0 seconds: Connection timed out
smp-n88.crc.pitt.edu.349662hfi_wait_for_device: The /dev/hfi1_0 device failed to appear after 15.0 seconds: Connection timed out
smp-n88.crc.pitt.edu.349663hfi_wait_for_device: The /dev/hfi1_0 device failed to appear after 15.0 seconds: Connection timed out
smp-n88.crc.pitt.edu.349655hfi_wait_for_device: The /dev/hfi1_0 device failed to appear after 15.0 seconds: Connection timed out
smp-n88.crc.pitt.edu.349659hfi_wait_for_device: The /dev/hfi1_0 device failed to appear after 15.0 seconds: Connection timed out
smp-n88.crc.pitt.edu.349653hfi_wait_for_device: The /dev/hfi1_0 device failed to appear after 15.0 seconds: Connection timed out
smp-n88.crc.pitt.edu.349657hfi_wait_for_device: The /dev/hfi1_0 device failed to appear after 15.0 seconds: Connection timed out
smp-n88.crc.pitt.edu.349658hfi_wait_for_device: The /dev/hfi1_0 device failed to appear after 15.0 seconds: Connection timed out
smp-n88.crc.pitt.edu.349664hfi_wait_for_device: The /dev/hfi1_0 device failed to appear after 15.0 seconds: Connection timed out
smp-n88.crc.pitt.edu.349656hfi_wait_for_device: The /dev/hfi1_0 device failed to appear after 15.0 seconds: Connection timed out
smp-n88.crc.pitt.edu.349660hfi_wait_for_device: The /dev/hfi1_0 device failed to appear after 15.0 seconds: Connection timed out
smp-n88.crc.pitt.edu.349654hfi_wait_for_device: The /dev/hfi1_0 device failed to appear after 15.0 seconds: Connection timed out


           ************************************************************
           *        Program running with 12 parallel MPI-processes    *
           *              working on a common directory               *
           ************************************************************
-------------------------------------------------------------------------------
                                 ORCA SCF
-------------------------------------------------------------------------------

------------
SCF SETTINGS
------------
Hamiltonian:
 Density Functional     Method          .... DFT(GTOs)
 Exchange Functional    Exchange        .... B88
   X-Alpha parameter    XAlpha          ....  0.666667
   Becke's b parameter  XBeta           ....  0.004200
 Correlation Functional Correlation     .... LYP
 LDA part of GGA corr.  LDAOpt          .... VWN-5
 Gradients option       PostSCFGGA      .... off
 Hybrid DFT is turned on
   Fraction HF Exchange ScalHFX         ....  0.200000
   Scaling of DF-GGA-X  ScalDFX         ....  0.720000
   Scaling of DF-GGA-C  ScalDFC         ....  0.810000
   Scaling of DF-LDA-C  ScalLDAC        ....  1.000000
   Perturbative correction              ....  0.000000
   NL short-range parameter             ....  4.800000
 RI-approximation to the Coulomb term is turned on
   Number of auxiliary basis functions  .... 1136
   RIJ-COSX (HFX calculated with COS-X)).... on


General Settings:
 Integral files         IntName         .... 1_B3LYP_GasPhase_onB3LYP_16_waters
 Hartree-Fock type      HFTyp           .... RHF
 Total Charge           Charge          ....    0
 Multiplicity           Mult            ....    1
 Number of Electrons    NEL             ....  160
 Basis Dimension        Dim             ....  688
 Nuclear Repulsion      ENuc            ....   1661.5653950821 Eh

Convergence Acceleration:
 DIIS                   CNVDIIS         .... on
   Start iteration      DIISMaxIt       ....    12
   Startup error        DIISStart       ....  0.200000
   # of expansion vecs  DIISMaxEq       ....     5
   Bias factor          DIISBfac        ....   1.050
   Max. coefficient     DIISMaxC        ....  10.000
 Newton-Raphson         CNVNR           .... off
 SOSCF                  CNVSOSCF        .... on
   Start iteration      SOSCFMaxIt      ....   150
   Startup grad/error   SOSCFStart      ....  0.003300
 Level Shifting         CNVShift        .... on
   Level shift para.    LevelShift      ....    0.2500
   Turn off err/grad.   ShiftErr        ....    0.0010
 Zerner damping         CNVZerner       .... off
 Static damping         CNVDamp         .... on
   Fraction old density DampFac         ....    0.7000
   Max. Damping (<1)    DampMax         ....    0.9800
   Min. Damping (>=0)   DampMin         ....    0.0000
   Turn off err/grad.   DampErr         ....    0.1000
 Fernandez-Rico         CNVRico         .... off

SCF Procedure:
 Maximum # iterations   MaxIter         ....   400
 SCF integral mode      SCFMode         .... Direct
   Integral package                     .... LIBINT
 Reset frequeny         DirectResetFreq ....    20
 Integral Threshold     Thresh          ....  2.500e-11 Eh
 Primitive CutOff       TCut            ....  2.500e-12 Eh

Convergence Tolerance:
 Convergence Check Mode ConvCheckMode   .... Total+1el-Energy
 Energy Change          TolE            ....  1.000e-08 Eh
 1-El. energy change                    ....  1.000e-05 Eh
 Orbital Gradient       TolG            ....  1.000e-05
 Orbital Rotation angle TolX            ....  1.000e-05
 DIIS Error             TolErr          ....  5.000e-07


Diagonalization of the overlap matrix:
Smallest eigenvalue                        ... 2.151e-03
Time for diagonalization                   ...    0.116 sec
Threshold for overlap eigenvalues          ... 1.000e-08
Number of eigenvalues below threshold      ... 0
Time for construction of square roots      ...    0.044 sec
Total time needed                          ...    0.162 sec

-------------------
DFT GRID GENERATION
-------------------

General Integration Accuracy     IntAcc      ...  4.670
Radial Grid Type                 RadialGrid  ... Gauss-Chebyshev
Angular Grid (max. acc.)         AngularGrid ... Lebedev-302
Angular grid pruning method      GridPruning ... 3 (G Style)
Weight generation scheme         WeightScheme... Becke
Basis function cutoff            BFCut       ...    1.0000e-11
Integration weight cutoff        WCut        ...    1.0000e-14
Grids for H and He will be reduced by one unit

# of grid points (after initial pruning)     ... 208000 (   0.0 sec)
# of grid points (after weights+screening)   ... 181632 (   0.8 sec)
nearest neighbour list constructed           ...    0.0 sec
Grid point re-assignment to atoms done       ...    0.0 sec
Grid point division into batches done        ...    0.4 sec
Reduced shell lists constructed in    0.6 sec

Total number of grid points                  ...   181632
Total number of batches                      ...     2859
Average number of points per batch           ...       63
Average number of grid points per atom       ...     3784
Average number of shells per batch           ...   100.88 (33.18%)
Average number of basis functions per batch  ...   192.51 (27.98%)
Average number of large shells per batch     ...    61.96 (61.42%)
Average number of large basis fcns per batch ...   115.71 (60.11%)
Maximum spatial batch extension              ...  12.42, 12.55, 12.65 au
Average spatial batch extension              ...   0.17,  0.17,  0.17 au

Time for grid setup =    1.678 sec

------------------------------
INITIAL GUESS: MODEL POTENTIAL
------------------------------
Loading Hartree-Fock densities                     ... done
Calculating cut-offs                               ... done
Setting up the integral package                    ... done
Initializing the effective Hamiltonian             ... done
Starting the Coulomb interaction                   ... done (   0.2 sec)
Reading the grid                                   ... done
Mapping shells                                     ... done
Starting the XC term evaluation                    ... done (   0.4 sec)
  promolecular density results
     # of electrons  =    159.981730552
     EX              =   -140.711273307
     EC              =     -5.561455100
     EX+EC           =   -146.272728408
Transforming the Hamiltonian                       ... done (   0.0 sec)
Diagonalizing the Hamiltonian                      ... done (   0.1 sec)
Back transforming the eigenvectors                 ... done (   0.0 sec)
Now organizing SCF variables                       ... done
                      ------------------
                      INITIAL GUESS DONE (   2.5 sec)
                      ------------------
--------------------
COSX GRID GENERATION
--------------------

General Integration Accuracy     IntAcc      ...  3.340
Radial Grid Type                 RadialGrid  ... Gauss-Chebyshev
Angular Grid (max. acc.)         AngularGrid ... Lebedev-50
Angular grid pruning method      GridPruning ... 3 (G Style)
Weight generation scheme         WeightScheme... Becke
Basis function cutoff            BFCut       ...    1.0000e-11
Integration weight cutoff        WCut        ...    1.0000e-14
Grids for H and He will be reduced by one unit

# of grid points (after initial pruning)     ...  19520 (   0.0 sec)
# of grid points (after weights+screening)   ...  17359 (   0.1 sec)
nearest neighbour list constructed           ...    0.0 sec
Grid point re-assignment to atoms done       ...    0.0 sec
Grid point division into batches done        ...    0.0 sec
Reduced shell lists constructed in    0.0 sec

Total number of grid points                  ...    17359
Total number of batches                      ...      291
Average number of points per batch           ...       59
Average number of grid points per atom       ...      362
Average number of shells per batch           ...   119.04 (39.16%)
Average number of basis functions per batch  ...   237.04 (34.45%)
Average number of large shells per batch     ...    73.62 (61.84%)
Average number of large basis fcns per batch ...   140.69 (59.35%)
Maximum spatial batch extension              ...  16.92, 13.69, 11.15 au
Average spatial batch extension              ...   0.40,  0.39,  0.34 au

Overlap Fitting                  UseSFitting ... on
Constructing numerical overlap ... done (      0.0 sec)
Inverting numerical overlap    ... done (      0.0 sec)
Obtaining analytic overlap     ... done (      0.0 sec)
Final contraction and storage  ... done (      0.0 sec)


General Integration Accuracy     IntAcc      ...  3.670
Radial Grid Type                 RadialGrid  ... Gauss-Chebyshev
Angular Grid (max. acc.)         AngularGrid ... Lebedev-50
Angular grid pruning method      GridPruning ... 3 (G Style)
Weight generation scheme         WeightScheme... Becke
Basis function cutoff            BFCut       ...    1.0000e-11
Integration weight cutoff        WCut        ...    1.0000e-14
Grids for H and He will be reduced by one unit

# of grid points (after initial pruning)     ...  25632 (   0.0 sec)
# of grid points (after weights+screening)   ...  22734 (   0.0 sec)
nearest neighbour list constructed           ...    0.0 sec
Grid point re-assignment to atoms done       ...    0.0 sec
Grid point division into batches done        ...    0.0 sec
Reduced shell lists constructed in    0.0 sec

Total number of grid points                  ...    22734
Total number of batches                      ...      379
Average number of points per batch           ...       59
Average number of grid points per atom       ...      474
Average number of shells per batch           ...   115.67 (38.05%)
Average number of basis functions per batch  ...   228.03 (33.14%)
Average number of large shells per batch     ...    71.82 (62.09%)
Average number of large basis fcns per batch ...   136.30 (59.77%)
Maximum spatial batch extension              ...  18.51, 14.79, 11.51 au
Average spatial batch extension              ...   0.33,  0.33,  0.28 au

Overlap Fitting                  UseSFitting ... on
Constructing numerical overlap ... done (      0.0 sec)
Inverting numerical overlap    ... done (      0.0 sec)
Obtaining analytic overlap     ... done (      0.0 sec)
Final contraction and storage  ... done (      0.0 sec)


General Integration Accuracy     IntAcc      ...  4.010
Radial Grid Type                 RadialGrid  ... Gauss-Chebyshev
Angular Grid (max. acc.)         AngularGrid ... Lebedev-110
Angular grid pruning method      GridPruning ... 3 (G Style)
Weight generation scheme         WeightScheme... Becke
Basis function cutoff            BFCut       ...    1.0000e-11
Integration weight cutoff        WCut        ...    1.0000e-14
Grids for H and He will be reduced by one unit

# of grid points (after initial pruning)     ...  44128 (   0.0 sec)
# of grid points (after weights+screening)   ...  39427 (   0.1 sec)
nearest neighbour list constructed           ...    0.0 sec
Grid point re-assignment to atoms done       ...    0.0 sec
Grid point division into batches done        ...    0.0 sec
Reduced shell lists constructed in    0.1 sec

Total number of grid points                  ...    39427
Total number of batches                      ...      640
Average number of points per batch           ...       61
Average number of grid points per atom       ...      821
Average number of shells per batch           ...   111.25 (36.60%)
Average number of basis functions per batch  ...   215.80 (31.37%)
Average number of large shells per batch     ...    68.60 (61.66%)
Average number of large basis fcns per batch ...   129.95 (60.22%)
Maximum spatial batch extension              ...  17.27, 15.11, 12.68 au
Average spatial batch extension              ...   0.29,  0.30,  0.27 au

Overlap Fitting                  UseSFitting ... on
Constructing numerical overlap ... done (      0.0 sec)
Inverting numerical overlap    ... done (      0.0 sec)
Obtaining analytic overlap     ... done (      0.0 sec)
Final contraction and storage  ... done (      0.0 sec)

Time for X-Grid setup             =    0.662 sec
--------------
SCF ITERATIONS
--------------
ITER       Energy         Delta-E        Max-DP      RMS-DP      [F,P]     Damp
               ***  Starting incremental Fock matrix formation  ***
  0  -1221.8431949704   0.000000000000 0.05234947  0.00090442  0.3081074 0.7000
  1  -1222.4532857731  -0.610090802695 0.03183036  0.00056073  0.1299817 0.7000
                               ***Turning on DIIS***
  2  -1222.6566655274  -0.203379754259 0.03170389  0.00069338  0.0331977 0.0000
  3  -1223.0055895468  -0.348924019411 0.02121853  0.00035284  0.0751917 0.0000
  4  -1223.0750965749  -0.069507028069 0.00502758  0.00010557  0.0151842 0.0000
                      *** Initiating the SOSCF procedure ***
                           *** Shutting down DIIS ***
                      *** Re-Reading the Fockian *** 
                      *** Removing any level shift *** 
ITER      Energy       Delta-E        Grad      Rot      Max-DP    RMS-DP
  5  -1223.07783156  -0.0027349898  0.000674  0.000674  0.001971  0.000035
               *** Restarting incremental Fock matrix formation ***
  6  -1223.07797049  -0.0001389245  0.000287  0.000712  0.001063  0.000022
  7  -1223.07796624   0.0000042499  0.000303  0.000186  0.000623  0.000007
  8  -1223.07798844  -0.0000222019  0.000018  0.000040  0.000093  0.000001
  9  -1223.07798848  -0.0000000431  0.000016  0.000011  0.000036  0.000000
 10  -1223.07798862  -0.0000001307  0.000003  0.000006  0.000018  0.000000
 11  -1223.07798866  -0.0000000432  0.000003  0.000002  0.000006  0.000000
                  ***Gradient check signals convergence***
              ***Rediagonalizing the Fockian in SOSCF/NRSCF***

               *****************************************************
               *                     SUCCESS                       *
               *           SCF CONVERGED AFTER  12 CYCLES          *
               *****************************************************

Setting up the final grid:

General Integration Accuracy     IntAcc      ...  5.010
Radial Grid Type                 RadialGrid  ... Gauss-Chebyshev
Angular Grid (max. acc.)         AngularGrid ... Lebedev-434
Angular grid pruning method      GridPruning ... 3 (G Style)
Weight generation scheme         WeightScheme... Becke
Basis function cutoff            BFCut       ...    1.0000e-11
Integration weight cutoff        WCut        ...    1.0000e-14
Grids for H and He will be reduced by one unit

# of grid points (after initial pruning)     ... 387616 (   0.0 sec)
# of grid points (after weights+screening)   ... 337423 (   1.5 sec)
nearest neighbour list constructed           ...    0.0 sec
Grid point re-assignment to atoms done       ...    0.0 sec
Grid point division into batches done        ...    1.5 sec
Reduced shell lists constructed in    1.9 sec

Total number of grid points                  ...   337423
Total number of batches                      ...     5297
Average number of points per batch           ...       63
Average number of grid points per atom       ...     7030
Average number of shells per batch           ...    97.39 (32.03%)
Average number of basis functions per batch  ...   183.92 (26.73%)
Average number of large shells per batch     ...    59.88 (61.49%)
Average number of large basis fcns per batch ...   111.37 (60.56%)
Maximum spatial batch extension              ...  14.61, 18.69, 13.77 au
Average spatial batch extension              ...   0.14,  0.14,  0.13 au

Final grid set up in    3.8 sec
Final integration                            ... done (   0.8 sec)
Change in XC energy                          ...    -0.000169845
Integrated number of electrons               ...   159.999979646
Previous integrated no of electrons          ...   159.998857559
Old exchange energy                            =    -28.584915137 Eh
New exchange energy                            =    -28.583797770 Eh
Exchange energy change after final integration =      0.001117367 Eh
Total energy after final integration           =  -1223.077041043 Eh
Final COS-X integration done in                =     6.911 sec

----------------
TOTAL SCF ENERGY
----------------

Total Energy       :        -1223.07704104 Eh          -33281.61829 eV

Components:
Nuclear Repulsion  :         1661.56539508 Eh           45213.49301 eV
Electronic Energy  :        -2884.64243612 Eh          -78495.11130 eV

One Electron Energy:        -4997.20261921 Eh         -135980.79640 eV
Two Electron Energy:         2112.56018309 Eh           57485.68510 eV

Virial components:
Potential Energy   :        -2441.55912702 Eh          -66438.20150 eV
Kinetic Energy     :         1218.48208598 Eh           33156.58321 eV
Virial Ratio       :            2.00377105


DFT components:
N(Alpha)           :       79.999989822999 electrons
N(Beta)            :       79.999989822999 electrons
N(Total)           :      159.999979645999 electrons
E(X)               :     -113.923542074459 Eh       
E(C)               :       -6.567511027487 Eh       
E(XC)              :     -120.491053101946 Eh       

---------------
SCF CONVERGENCE
---------------

  Last Energy change         ...    9.3351e-08  Tolerance :   1.0000e-08
  Last MAX-Density change    ...    1.2768e-14  Tolerance :   1.0000e-07
  Last RMS-Density change    ...    1.3955e-16  Tolerance :   5.0000e-09
  Last Orbital Gradient      ...    1.1182e-06  Tolerance :   1.0000e-05
  Last Orbital Rotation      ...    8.5714e-07  Tolerance :   1.0000e-05

             **** THE GBW FILE WAS UPDATED (1_B3LYP_GasPhase_onB3LYP_16_waters.gbw) ****
             **** DENSITY FILE WAS UPDATED (1_B3LYP_GasPhase_onB3LYP_16_waters.scfp.tmp) ****
             **** ENERGY FILE WAS UPDATED (1_B3LYP_GasPhase_onB3LYP_16_waters.en.tmp) ****
----------------
ORBITAL ENERGIES
----------------

  NO   OCC          E(Eh)            E(eV) 
   0   2.0000     -19.145146      -520.9659 
   1   2.0000     -19.144777      -520.9559 
   2   2.0000     -19.144173      -520.9394 
   3   2.0000     -19.143882      -520.9315 
   4   2.0000     -19.132395      -520.6189 
   5   2.0000     -19.132125      -520.6116 
   6   2.0000     -19.131981      -520.6077 
   7   2.0000     -19.131570      -520.5965 
   8   2.0000     -19.131069      -520.5829 
   9   2.0000     -19.130072      -520.5557 
  10   2.0000     -19.129120      -520.5298 
  11   2.0000     -19.128212      -520.5051 
  12   2.0000     -19.125634      -520.4350 
  13   2.0000     -19.124318      -520.3991 
  14   2.0000     -19.123904      -520.3879 
  15   2.0000     -19.123595      -520.3795 
  16   2.0000      -1.044037       -28.4097 
  17   2.0000      -1.038932       -28.2708 
  18   2.0000      -1.030484       -28.0409 
  19   2.0000      -1.029876       -28.0244 
  20   2.0000      -1.028753       -27.9938 
  21   2.0000      -1.022220       -27.8160 
  22   2.0000      -1.020934       -27.7810 
  23   2.0000      -1.018990       -27.7281 
  24   2.0000      -1.011748       -27.5311 
  25   2.0000      -1.007775       -27.4229 
  26   2.0000      -1.006764       -27.3955 
  27   2.0000      -1.003567       -27.3085 
  28   2.0000      -1.001723       -27.2583 
  29   2.0000      -1.001401       -27.2495 
  30   2.0000      -0.994665       -27.0662 
  31   2.0000      -0.987431       -26.8694 
  32   2.0000      -0.559028       -15.2119 
  33   2.0000      -0.557884       -15.1808 
  34   2.0000      -0.554129       -15.0786 
  35   2.0000      -0.552174       -15.0254 
  36   2.0000      -0.549274       -14.9465 
  37   2.0000      -0.548731       -14.9317 
  38   2.0000      -0.544142       -14.8069 
  39   2.0000      -0.542292       -14.7565 
  40   2.0000      -0.536221       -14.5913 
  41   2.0000      -0.533796       -14.5253 
  42   2.0000      -0.532585       -14.4924 
  43   2.0000      -0.527693       -14.3593 
  44   2.0000      -0.525467       -14.2987 
  45   2.0000      -0.523550       -14.2465 
  46   2.0000      -0.521169       -14.1817 
  47   2.0000      -0.519960       -14.1488 
  48   2.0000      -0.480398       -13.0723 
  49   2.0000      -0.461635       -12.5617 
  50   2.0000      -0.445642       -12.1265 
  51   2.0000      -0.444473       -12.0947 
  52   2.0000      -0.432240       -11.7618 
  53   2.0000      -0.431380       -11.7385 
  54   2.0000      -0.421640       -11.4734 
  55   2.0000      -0.418441       -11.3864 
  56   2.0000      -0.403939       -10.9917 
  57   2.0000      -0.400838       -10.9074 
  58   2.0000      -0.399284       -10.8651 
  59   2.0000      -0.396782       -10.7970 
  60   2.0000      -0.380229       -10.3466 
  61   2.0000      -0.378142       -10.2898 
  62   2.0000      -0.371546       -10.1103 
  63   2.0000      -0.355217        -9.6659 
  64   2.0000      -0.341877        -9.3029 
  65   2.0000      -0.340319        -9.2605 
  66   2.0000      -0.339434        -9.2365 
  67   2.0000      -0.339073        -9.2267 
  68   2.0000      -0.332351        -9.0437 
  69   2.0000      -0.332147        -9.0382 
  70   2.0000      -0.329823        -8.9749 
  71   2.0000      -0.327778        -8.9193 
  72   2.0000      -0.327765        -8.9189 
  73   2.0000      -0.326627        -8.8880 
  74   2.0000      -0.323212        -8.7950 
  75   2.0000      -0.321893        -8.7591 
  76   2.0000      -0.320482        -8.7208 
  77   2.0000      -0.319470        -8.6932 
  78   2.0000      -0.318654        -8.6710 
  79   2.0000      -0.317780        -8.6472 
  80   0.0000      -0.002591        -0.0705 
  81   0.0000       0.009626         0.2619 
  82   0.0000       0.028823         0.7843 
  83   0.0000       0.029187         0.7942 
  84   0.0000       0.045831         1.2471 
  85   0.0000       0.072971         1.9856 
  86   0.0000       0.075694         2.0597 
  87   0.0000       0.087124         2.3708 
  88   0.0000       0.106812         2.9065 
  89   0.0000       0.114251         3.1089 
  90   0.0000       0.117505         3.1975 
  91   0.0000       0.120228         3.2716 
  92   0.0000       0.144288         3.9263 
  93   0.0000       0.148886         4.0514 
  94   0.0000       0.161110         4.3840 
  95   0.0000       0.164019         4.4632 
  96   0.0000       0.174923         4.7599 
  97   0.0000       0.184262         5.0140 
  98   0.0000       0.190569         5.1857 
  99   0.0000       0.192670         5.2428 
 100   0.0000       0.195612         5.3229 
 101   0.0000       0.198921         5.4129 
 102   0.0000       0.200226         5.4484 
 103   0.0000       0.206621         5.6224 
 104   0.0000       0.210480         5.7274 
 105   0.0000       0.211720         5.7612 
 106   0.0000       0.212963         5.7950 
 107   0.0000       0.220846         6.0095 
 108   0.0000       0.228271         6.2116 
 109   0.0000       0.231785         6.3072 
 110   0.0000       0.234090         6.3699 
 111   0.0000       0.238811         6.4984 
 112   0.0000       0.255115         6.9420 
 113   0.0000       0.277818         7.5598 
 114   0.0000       0.279227         7.5981 
 115   0.0000       0.288901         7.8614 
 116   0.0000       0.291619         7.9354 
 117   0.0000       0.298106         8.1119 
 118   0.0000       0.314537         8.5590 
 119   0.0000       0.319242         8.6870 
 120   0.0000       0.321580         8.7506 
 121   0.0000       0.322391         8.7727 
 122   0.0000       0.324103         8.8193 
 123   0.0000       0.325691         8.8625 
 124   0.0000       0.329103         8.9553 
 125   0.0000       0.335466         9.1285 
 126   0.0000       0.339852         9.2478 
 127   0.0000       0.341159         9.2834 
 128   0.0000       0.344025         9.3614 
 129   0.0000       0.357028         9.7152 
 130   0.0000       0.362492         9.8639 
 131   0.0000       0.368519        10.0279 
 132   0.0000       0.375389        10.2148 
 133   0.0000       0.378317        10.2945 
 134   0.0000       0.383477        10.4350 
 135   0.0000       0.386214        10.5094 
 136   0.0000       0.390275        10.6199 
 137   0.0000       0.394203        10.7268 
 138   0.0000       0.407591        11.0911 
 139   0.0000       0.413582        11.2541 
 140   0.0000       0.422675        11.5016 
 141   0.0000       0.430033        11.7018 
 142   0.0000       0.455173        12.3859 
 143   0.0000       0.456337        12.4176 
 144   0.0000       0.473462        12.8835 
 145   0.0000       0.475748        12.9458 
 146   0.0000       0.480897        13.0859 
 147   0.0000       0.482693        13.1347 
 148   0.0000       0.493140        13.4190 
 149   0.0000       0.497758        13.5447 
 150   0.0000       0.503959        13.7134 
 151   0.0000       0.512038        13.9333 
 152   0.0000       0.525426        14.2976 
 153   0.0000       0.530023        14.4227 
 154   0.0000       0.542073        14.7506 
 155   0.0000       0.553149        15.0520 
 156   0.0000       0.562549        15.3077 
 157   0.0000       0.576672        15.6920 
 158   0.0000       0.582218        15.8430 
 159   0.0000       0.585413        15.9299 
 160   0.0000       0.588784        16.0216 
 161   0.0000       0.594252        16.1704 
 162   0.0000       0.603025        16.4091 
 163   0.0000       0.605868        16.4865 
 164   0.0000       0.619750        16.8643 
 165   0.0000       0.629444        17.1280 
 166   0.0000       0.633523        17.2391 
 167   0.0000       0.634576        17.2677 
 168   0.0000       0.642269        17.4770 
 169   0.0000       0.652314        17.7504 
 170   0.0000       0.653038        17.7701 
 171   0.0000       0.660277        17.9671 
 172   0.0000       0.662134        18.0176 
 173   0.0000       0.667517        18.1641 
 174   0.0000       0.669575        18.2201 
 175   0.0000       0.675683        18.3863 
 176   0.0000       0.691503        18.8167 
 177   0.0000       0.699288        19.0286 
 178   0.0000       0.711163        19.3517 
 179   0.0000       0.718247        19.5445 
 180   0.0000       0.724669        19.7193 
 181   0.0000       0.739709        20.1285 
 182   0.0000       0.753453        20.5025 
 183   0.0000       0.754222        20.5234 
 184   0.0000       0.757990        20.6259 
 185   0.0000       0.780933        21.2503 
 186   0.0000       0.793274        21.5861 
 187   0.0000       0.804662        21.8960 
 188   0.0000       0.810386        22.0517 
 189   0.0000       0.825286        22.4572 
 190   0.0000       0.829813        22.5804 
 191   0.0000       0.832730        22.6597 
 192   0.0000       0.841785        22.9061 
 193   0.0000       0.858792        23.3689 
 194   0.0000       0.864801        23.5324 
 195   0.0000       0.875005        23.8101 
 196   0.0000       0.877647        23.8820 
 197   0.0000       0.886038        24.1103 
 198   0.0000       0.891800        24.2671 
 199   0.0000       0.908154        24.7121 
 200   0.0000       0.920730        25.0543 
 201   0.0000       0.940694        25.5976 
 202   0.0000       0.974579        26.5197 
 203   0.0000       0.982587        26.7375 
 204   0.0000       0.989683        26.9306 
 205   0.0000       1.005218        27.3534 
 206   0.0000       1.064492        28.9663 
 207   0.0000       1.090852        29.6836 
 208   0.0000       1.109956        30.2034 
 209   0.0000       1.127248        30.6740 
 210   0.0000       1.137365        30.9493 
 211   0.0000       1.140468        31.0337 
 212   0.0000       1.145245        31.1637 
 213   0.0000       1.151018        31.3208 
 214   0.0000       1.156179        31.4612 
 215   0.0000       1.162583        31.6355 
 216   0.0000       1.166721        31.7481 
 217   0.0000       1.168823        31.8053 
 218   0.0000       1.173334        31.9280 
 219   0.0000       1.178573        32.0706 
 220   0.0000       1.179373        32.0924 
 221   0.0000       1.186266        32.2799 
 222   0.0000       1.193454        32.4755 
 223   0.0000       1.199786        32.6478 
 224   0.0000       1.210504        32.9395 
 225   0.0000       1.215096        33.0644 
 226   0.0000       1.220556        33.2130 
 227   0.0000       1.232873        33.5482 
 228   0.0000       1.265024        34.4231 
 229   0.0000       1.266044        34.4508 
 230   0.0000       1.271061        34.5873 
 231   0.0000       1.274212        34.6731 
 232   0.0000       1.277617        34.7657 
 233   0.0000       1.299493        35.3610 
 234   0.0000       1.301596        35.4182 
 235   0.0000       1.304161        35.4880 
 236   0.0000       1.313111        35.7316 
 237   0.0000       1.315283        35.7907 
 238   0.0000       1.316618        35.8270 
 239   0.0000       1.318628        35.8817 
 240   0.0000       1.323923        36.0258 
 241   0.0000       1.334871        36.3237 
 242   0.0000       1.344376        36.5823 
 243   0.0000       1.346319        36.6352 
 244   0.0000       1.352242        36.7964 
 245   0.0000       1.353345        36.8264 
 246   0.0000       1.363624        37.1061 
 247   0.0000       1.372276        37.3415 
 248   0.0000       1.374144        37.3924 
 249   0.0000       1.374697        37.4074 
 250   0.0000       1.380998        37.5789 
 251   0.0000       1.386087        37.7173 
 252   0.0000       1.391992        37.8780 
 253   0.0000       1.393533        37.9199 
 254   0.0000       1.402958        38.1764 
 255   0.0000       1.420734        38.6601 
 256   0.0000       1.550664        42.1957 
 257   0.0000       1.579396        42.9776 
 258   0.0000       1.597573        43.4722 
 259   0.0000       1.629513        44.3413 
 260   0.0000       1.638430        44.5839 
 261   0.0000       1.644875        44.7593 
 262   0.0000       1.646691        44.8087 
 263   0.0000       1.650911        44.9236 
 264   0.0000       1.653862        45.0039 
 265   0.0000       1.662157        45.2296 
 266   0.0000       1.668269        45.3959 
 267   0.0000       1.675072        45.5810 
 268   0.0000       1.687006        45.9058 
 269   0.0000       1.692843        46.0646 
 270   0.0000       1.701546        46.3014 
 271   0.0000       1.704946        46.3939 
 272   0.0000       1.709136        46.5080 
 273   0.0000       1.714469        46.6531 
 274   0.0000       1.716586        46.7107 
 275   0.0000       1.729077        47.0506 
 276   0.0000       1.732427        47.1417 
 277   0.0000       1.740863        47.3713 
 278   0.0000       1.741507        47.3888 
 279   0.0000       1.745138        47.4876 
 280   0.0000       1.762076        47.9485 
 281   0.0000       1.765845        48.0511 
 282   0.0000       1.778749        48.4022 
 283   0.0000       1.783562        48.5332 
 284   0.0000       1.788330        48.6629 
 285   0.0000       1.795750        48.8648 
 286   0.0000       1.797314        48.9074 
 287   0.0000       1.817837        49.4659 
 288   0.0000       1.821822        49.5743 
 289   0.0000       1.847752        50.2799 
 290   0.0000       1.861313        50.6489 
 291   0.0000       1.876045        51.0498 
 292   0.0000       1.879579        51.1459 
 293   0.0000       1.891047        51.4580 
 294   0.0000       1.894122        51.5417 
 295   0.0000       1.901269        51.7361 
 296   0.0000       1.907484        51.9053 
 297   0.0000       1.915387        52.1203 
 298   0.0000       1.939101        52.7656 
 299   0.0000       1.940209        52.7958 
 300   0.0000       1.949862        53.0585 
 301   0.0000       1.951721        53.1090 
 302   0.0000       1.959252        53.3140 
 303   0.0000       1.963679        53.4344 
 304   0.0000       1.965785        53.4917 
 305   0.0000       1.973905        53.7127 
 306   0.0000       1.985983        54.0413 
 307   0.0000       1.992806        54.2270 
 308   0.0000       1.994104        54.2623 
 309   0.0000       2.005625        54.5758 
 310   0.0000       2.010868        54.7185 
 311   0.0000       2.014429        54.8154 
 312   0.0000       2.018113        54.9157 
 313   0.0000       2.036129        55.4059 
 314   0.0000       2.037365        55.4395 
 315   0.0000       2.043408        55.6039 
 316   0.0000       2.065758        56.2121 
 317   0.0000       2.077734        56.5380 
 318   0.0000       2.078931        56.5706 
 319   0.0000       2.089066        56.8464 
 320   0.0000       2.092462        56.9388 
 321   0.0000       2.094926        57.0058 
 322   0.0000       2.105203        57.2855 
 323   0.0000       2.110551        57.4310 
 324   0.0000       2.115648        57.5697 
 325   0.0000       2.127954        57.9046 
 326   0.0000       2.137527        58.1651 
 327   0.0000       2.145623        58.3854 
 328   0.0000       2.156700        58.6868 
 329   0.0000       2.159815        58.7716 
 330   0.0000       2.174237        59.1640 
 331   0.0000       2.193251        59.6814 
 332   0.0000       2.198107        59.8135 
 333   0.0000       2.205322        60.0098 
 334   0.0000       2.216109        60.3034 
 335   0.0000       2.229877        60.6781 
 336   0.0000       2.240981        60.9802 
 337   0.0000       2.243360        61.0449 
 338   0.0000       2.244787        61.0838 
 339   0.0000       2.276362        61.9430 
 340   0.0000       2.277769        61.9812 
 341   0.0000       2.282769        62.1173 
 342   0.0000       2.287241        62.2390 
 343   0.0000       2.292121        62.3718 
 344   0.0000       2.298286        62.5395 
 345   0.0000       2.307971        62.8031 
 346   0.0000       2.308975        62.8304 
 347   0.0000       2.314846        62.9902 
 348   0.0000       2.315288        63.0022 
 349   0.0000       2.324996        63.2664 
 350   0.0000       2.330479        63.4156 
 351   0.0000       2.337629        63.6101 
 352   0.0000       2.343083        63.7585 
 353   0.0000       2.347889        63.8893 
 354   0.0000       2.353820        64.0507 
 355   0.0000       2.357342        64.1465 
 356   0.0000       2.359084        64.1939 
 357   0.0000       2.361236        64.2525 
 358   0.0000       2.366809        64.4041 
 359   0.0000       2.375749        64.6474 
 360   0.0000       2.379018        64.7364 
 361   0.0000       2.390021        65.0358 
 362   0.0000       2.391667        65.0806 
 363   0.0000       2.398483        65.2660 
 364   0.0000       2.398761        65.2736 
 365   0.0000       2.406789        65.4920 
 366   0.0000       2.422702        65.9251 
 367   0.0000       2.433366        66.2153 
 368   0.0000       2.438683        66.3599 
 369   0.0000       2.445664        66.5499 
 370   0.0000       2.459095        66.9154 
 371   0.0000       2.464185        67.0539 
 372   0.0000       2.476687        67.3941 
 373   0.0000       2.480317        67.4929 
 374   0.0000       2.482547        67.5535 
 375   0.0000       2.500438        68.0404 
 376   0.0000       2.503685        68.1287 
 377   0.0000       2.512729        68.3748 
 378   0.0000       2.518342        68.5276 
 379   0.0000       2.525249        68.7155 
 380   0.0000       2.545278        69.2605 
 381   0.0000       2.550207        69.3947 
 382   0.0000       2.572095        69.9903 
 383   0.0000       2.583032        70.2879 
 384   0.0000       2.597660        70.6859 
 385   0.0000       2.602032        70.8049 
 386   0.0000       2.609839        71.0173 
 387   0.0000       2.615894        71.1821 
 388   0.0000       2.624005        71.4028 
 389   0.0000       2.630316        71.5745 
 390   0.0000       2.637293        71.7644 
 391   0.0000       2.642956        71.9185 
 392   0.0000       2.656536        72.2880 
 393   0.0000       2.663693        72.4828 
 394   0.0000       2.664039        72.4922 
 395   0.0000       2.672297        72.7169 
 396   0.0000       2.676381        72.8280 
 397   0.0000       2.684730        73.0552 
 398   0.0000       2.692775        73.2741 
 399   0.0000       2.700724        73.4904 
 400   0.0000       2.712139        73.8010 
 401   0.0000       2.720589        74.0310 
 402   0.0000       2.724727        74.1436 
 403   0.0000       2.731170        74.3189 
 404   0.0000       2.744131        74.6716 
 405   0.0000       2.749548        74.8190 
 406   0.0000       2.753044        74.9141 
 407   0.0000       2.772195        75.4353 
 408   0.0000       2.776975        75.5653 
 409   0.0000       2.790196        75.9251 
 410   0.0000       2.798362        76.1473 
 411   0.0000       2.820434        76.7479 
 412   0.0000       2.826284        76.9071 
 413   0.0000       2.837111        77.2017 
 414   0.0000       2.848473        77.5109 
 415   0.0000       2.855259        77.6955 
 416   0.0000       2.865216        77.9665 
 417   0.0000       2.878307        78.3227 
 418   0.0000       2.898225        78.8647 
 419   0.0000       2.923854        79.5621 
 420   0.0000       2.939920        79.9993 
 421   0.0000       2.946114        80.1678 
 422   0.0000       2.961462        80.5855 
 423   0.0000       2.964647        80.6721 
 424   0.0000       2.967039        80.7372 
 425   0.0000       2.974875        80.9505 
 426   0.0000       2.977462        81.0209 
 427   0.0000       2.988114        81.3107 
 428   0.0000       2.991177        81.3941 
 429   0.0000       2.997496        81.5660 
 430   0.0000       3.007840        81.8475 
 431   0.0000       3.012201        81.9662 
 432   0.0000       3.015045        82.0435 
 433   0.0000       3.025787        82.3359 
 434   0.0000       3.044147        82.8355 
 435   0.0000       3.063372        83.3586 
 436   0.0000       3.065855        83.4262 
 437   0.0000       3.083673        83.9110 
 438   0.0000       3.100773        84.3763 
 439   0.0000       3.123061        84.9828 
 440   0.0000       3.137815        85.3843 
 441   0.0000       3.145505        85.5936 
 442   0.0000       3.154199        85.8301 
 443   0.0000       3.162581        86.0582 
 444   0.0000       3.205405        87.2235 
 445   0.0000       3.227533        87.8256 
 446   0.0000       3.248667        88.4007 
 447   0.0000       3.258094        88.6572 
 448   0.0000       3.704024       100.7916 
 449   0.0000       3.716324       101.1263 
 450   0.0000       3.720153       101.2305 
 451   0.0000       3.732028       101.5537 
 452   0.0000       3.735908       101.6592 
 453   0.0000       3.746166       101.9384 
 454   0.0000       3.749373       102.0256 
 455   0.0000       3.752480       102.1102 
 456   0.0000       3.758865       102.2839 
 457   0.0000       3.769501       102.5733 
 458   0.0000       3.806948       103.5923 
 459   0.0000       3.828759       104.1858 
 460   0.0000       3.837181       104.4150 
 461   0.0000       3.846766       104.6758 
 462   0.0000       3.852831       104.8408 
 463   0.0000       3.862800       105.1121 
 464   0.0000       3.910814       106.4187 
 465   0.0000       3.919814       106.6636 
 466   0.0000       3.922442       106.7351 
 467   0.0000       3.926412       106.8431 
 468   0.0000       3.934296       107.0576 
 469   0.0000       3.946130       107.3797 
 470   0.0000       3.959395       107.7406 
 471   0.0000       3.962081       107.8137 
 472   0.0000       3.966108       107.9233 
 473   0.0000       3.977267       108.2269 
 474   0.0000       3.979285       108.2818 
 475   0.0000       3.995972       108.7359 
 476   0.0000       4.001586       108.8887 
 477   0.0000       4.021541       109.4317 
 478   0.0000       4.033572       109.7591 
 479   0.0000       4.064688       110.6058 
 480   0.0000       5.082493       138.3017 
 481   0.0000       5.083184       138.3205 
 482   0.0000       5.084129       138.3462 
 483   0.0000       5.085728       138.3897 
 484   0.0000       5.086402       138.4080 
 485   0.0000       5.087633       138.4415 
 486   0.0000       5.088425       138.4631 
 487   0.0000       5.088949       138.4773 
 488   0.0000       5.089596       138.4949 
 489   0.0000       5.090768       138.5268 
 490   0.0000       5.091382       138.5436 
 491   0.0000       5.092727       138.5802 
 492   0.0000       5.094086       138.6171 
 493   0.0000       5.094336       138.6239 
 494   0.0000       5.096686       138.6879 
 495   0.0000       5.102827       138.8550 
 496   0.0000       5.168127       140.6319 
 497   0.0000       5.177120       140.8766 
 498   0.0000       5.182218       141.0153 
 499   0.0000       5.185446       141.1032 
 500   0.0000       5.199570       141.4875 
 501   0.0000       5.203460       141.5933 
 502   0.0000       5.207697       141.7086 
 503   0.0000       5.208574       141.7325 
 504   0.0000       5.226009       142.2069 
 505   0.0000       5.230272       142.3229 
 506   0.0000       5.237719       142.5256 
 507   0.0000       5.242026       142.6428 
 508   0.0000       5.245597       142.7399 
 509   0.0000       5.252271       142.9216 
 510   0.0000       5.254010       142.9689 
 511   0.0000       5.257310       143.0587 
 512   0.0000       5.315565       144.6439 
 513   0.0000       5.320987       144.7914 
 514   0.0000       5.323200       144.8516 
 515   0.0000       5.326608       144.9444 
 516   0.0000       5.330650       145.0544 
 517   0.0000       5.335222       145.1788 
 518   0.0000       5.339875       145.3054 
 519   0.0000       5.342709       145.3825 
 520   0.0000       5.344401       145.4285 
 521   0.0000       5.346173       145.4768 
 522   0.0000       5.353834       145.6852 
 523   0.0000       5.360523       145.8672 
 524   0.0000       5.366706       146.0355 
 525   0.0000       5.369252       146.1048 
 526   0.0000       5.371236       146.1588 
 527   0.0000       5.372162       146.1840 
 528   0.0000       5.377457       146.3280 
 529   0.0000       5.378712       146.3622 
 530   0.0000       5.395269       146.8127 
 531   0.0000       5.400026       146.9422 
 532   0.0000       5.405211       147.0833 
 533   0.0000       5.406413       147.1160 
 534   0.0000       5.408186       147.1642 
 535   0.0000       5.411709       147.2601 
 536   0.0000       5.412821       147.2903 
 537   0.0000       5.414650       147.3401 
 538   0.0000       5.417252       147.4109 
 539   0.0000       5.421309       147.5213 
 540   0.0000       5.423435       147.5792 
 541   0.0000       5.427284       147.6839 
 542   0.0000       5.431001       147.7850 
 543   0.0000       5.433994       147.8665 
 544   0.0000       5.435316       147.9025 
 545   0.0000       5.437450       147.9605 
 546   0.0000       5.439043       148.0039 
 547   0.0000       5.441134       148.0608 
 548   0.0000       5.443774       148.1326 
 549   0.0000       5.446190       148.1984 
 550   0.0000       5.449433       148.2866 
 551   0.0000       5.449856       148.2981 
 552   0.0000       5.453872       148.4074 
 553   0.0000       5.456184       148.4703 
 554   0.0000       5.460169       148.5788 
 555   0.0000       5.463266       148.6630 
 556   0.0000       5.466499       148.7510 
 557   0.0000       5.481139       149.1494 
 558   0.0000       5.486598       149.2979 
 559   0.0000       5.505734       149.8187 
 560   0.0000       5.912983       160.9004 
 561   0.0000       5.918487       161.0502 
 562   0.0000       5.929340       161.3456 
 563   0.0000       5.946231       161.8052 
 564   0.0000       5.947605       161.8426 
 565   0.0000       5.951452       161.9473 
 566   0.0000       5.953734       162.0093 
 567   0.0000       5.957368       162.1082 
 568   0.0000       5.958658       162.1433 
 569   0.0000       5.961531       162.2215 
 570   0.0000       5.964511       162.3026 
 571   0.0000       5.973191       162.5388 
 572   0.0000       5.980298       162.7322 
 573   0.0000       5.989884       162.9930 
 574   0.0000       5.994765       163.1258 
 575   0.0000       5.999563       163.2564 
 576   0.0000       6.092966       165.7980 
 577   0.0000       6.106771       166.1737 
 578   0.0000       6.140993       167.1049 
 579   0.0000       6.150673       167.3683 
 580   0.0000       6.168464       167.8524 
 581   0.0000       6.171495       167.9349 
 582   0.0000       6.194861       168.5707 
 583   0.0000       6.206458       168.8863 
 584   0.0000       6.208582       168.9441 
 585   0.0000       6.227759       169.4659 
 586   0.0000       6.238310       169.7531 
 587   0.0000       6.259393       170.3267 
 588   0.0000       6.266813       170.5286 
 589   0.0000       6.271372       170.6527 
 590   0.0000       6.275108       170.7544 
 591   0.0000       6.278233       170.8394 
 592   0.0000       6.295771       171.3166 
 593   0.0000       6.302623       171.5031 
 594   0.0000       6.323056       172.0591 
 595   0.0000       6.328113       172.1967 
 596   0.0000       6.336290       172.4192 
 597   0.0000       6.340677       172.5386 
 598   0.0000       6.342372       172.5847 
 599   0.0000       6.345578       172.6720 
 600   0.0000       6.356337       172.9647 
 601   0.0000       6.365941       173.2260 
 602   0.0000       6.368048       173.2834 
 603   0.0000       6.373039       173.4192 
 604   0.0000       6.375245       173.4792 
 605   0.0000       6.377784       173.5483 
 606   0.0000       6.385338       173.7539 
 607   0.0000       6.388301       173.8345 
 608   0.0000       6.395212       174.0226 
 609   0.0000       6.395951       174.0427 
 610   0.0000       6.398071       174.1004 
 611   0.0000       6.404174       174.2664 
 612   0.0000       6.405422       174.3004 
 613   0.0000       6.424940       174.8315 
 614   0.0000       6.426993       174.8874 
 615   0.0000       6.428287       174.9226 
 616   0.0000       6.432746       175.0439 
 617   0.0000       6.437739       175.1798 
 618   0.0000       6.452420       175.5793 
 619   0.0000       6.457528       175.7183 
 620   0.0000       6.465302       175.9298 
 621   0.0000       6.471159       176.0892 
 622   0.0000       6.475134       176.1974 
 623   0.0000       6.476439       176.2329 
 624   0.0000       6.495867       176.7615 
 625   0.0000       6.509809       177.1409 
 626   0.0000       6.512359       177.2103 
 627   0.0000       6.520672       177.4365 
 628   0.0000       6.545242       178.1051 
 629   0.0000       6.564637       178.6329 
 630   0.0000       6.583237       179.1390 
 631   0.0000       6.593179       179.4095 
 632   0.0000       6.601788       179.6438 
 633   0.0000       6.627093       180.3324 
 634   0.0000       6.646582       180.8627 
 635   0.0000       6.660342       181.2371 
 636   0.0000       6.681281       181.8069 
 637   0.0000       6.686931       181.9606 
 638   0.0000       6.703663       182.4159 
 639   0.0000       6.727541       183.0657 
 640   0.0000       6.840785       186.1472 
 641   0.0000       6.861046       186.6985 
 642   0.0000       6.901675       187.8041 
 643   0.0000       6.915614       188.1834 
 644   0.0000       6.936850       188.7613 
 645   0.0000       6.939038       188.8208 
 646   0.0000       6.976488       189.8399 
 647   0.0000       6.977894       189.8781 
 648   0.0000       6.982670       190.0081 
 649   0.0000       6.988675       190.1715 
 650   0.0000       6.999874       190.4763 
 651   0.0000       7.004910       190.6133 
 652   0.0000       7.011896       190.8034 
 653   0.0000       7.019749       191.0171 
 654   0.0000       7.035712       191.4514 
 655   0.0000       7.046254       191.7383 
 656   0.0000       7.056069       192.0054 
 657   0.0000       7.060847       192.1354 
 658   0.0000       7.073338       192.4753 
 659   0.0000       7.086447       192.8320 
 660   0.0000       7.090610       192.9453 
 661   0.0000       7.094658       193.0555 
 662   0.0000       7.101900       193.2525 
 663   0.0000       7.109722       193.4654 
 664   0.0000       7.114516       193.5958 
 665   0.0000       7.121518       193.7864 
 666   0.0000       7.126525       193.9226 
 667   0.0000       7.141745       194.3368 
 668   0.0000       7.163805       194.9371 
 669   0.0000       7.185794       195.5354 
 670   0.0000       7.196562       195.8284 
 671   0.0000       7.221356       196.5031 
 672   0.0000      43.407813      1181.1866 
 673   0.0000      43.410051      1181.2475 
 674   0.0000      43.442407      1182.1280 
 675   0.0000      43.444291      1182.1793 
 676   0.0000      43.472722      1182.9529 
 677   0.0000      43.476719      1183.0617 
 678   0.0000      43.495498      1183.5727 
 679   0.0000      43.530478      1184.5245 
 680   0.0000      43.538560      1184.7445 
 681   0.0000      43.561971      1185.3815 
 682   0.0000      43.565008      1185.4641 
 683   0.0000      43.607600      1186.6231 
 684   0.0000      43.657461      1187.9799 
 685   0.0000      43.671766      1188.3692 
 686   0.0000      43.735973      1190.1163 
 687   0.0000      43.856454      1193.3948 

                    ********************************
                    * MULLIKEN POPULATION ANALYSIS *
                    ********************************

-----------------------
MULLIKEN ATOMIC CHARGES
-----------------------
   0 O :   -0.728746
   1 H :    0.371286
   2 H :    0.333338
   3 O :   -0.730576
   4 H :    0.355968
   5 H :    0.362565
   6 O :   -0.730031
   7 H :    0.377344
   8 H :    0.346505
   9 O :   -0.682931
  10 H :    0.353389
  11 H :    0.371868
  12 O :   -0.726866
  13 H :    0.334589
  14 H :    0.365421
  15 O :   -0.727778
  16 H :    0.334470
  17 H :    0.364179
  18 O :   -0.737966
  19 H :    0.371419
  20 H :    0.344731
  21 O :   -0.677597
  22 H :    0.371284
  23 H :    0.350328
  24 O :   -0.728947
  25 H :    0.367557
  26 H :    0.335110
  27 O :   -0.740824
  28 H :    0.370099
  29 H :    0.350853
  30 O :   -0.675485
  31 H :    0.374127
  32 H :    0.350474
  33 O :   -0.726945
  34 H :    0.348126
  35 H :    0.375196
  36 O :   -0.732236
  37 H :    0.384054
  38 H :    0.346326
  39 O :   -0.678062
  40 H :    0.372313
  41 H :    0.354121
  42 O :   -0.729134
  43 H :    0.378915
  44 H :    0.348658
  45 O :   -0.730151
  46 H :    0.363045
  47 H :    0.356618
Sum of atomic charges:   -0.0000000

--------------------------------
MULLIKEN REDUCED ORBITAL CHARGES
--------------------------------
  0 O s       :     3.800726  s :     3.800726
      pz      :     1.582720  p :     4.910225
      px      :     1.657378
      py      :     1.670127
      dz2     :     0.003297  d :     0.016690
      dxz     :     0.005276
[...]
      py      :     1.649789
      dz2     :     0.003877  d :     0.028543
      dxz     :     0.007501
      dyz     :     0.010630
      dx2y2   :     0.001846
      dxy     :     0.004690
      f0      :     0.000184  f :     0.001983
      f+1     :     0.000454
      f-1     :     0.000429
      f+2     :     0.000220
      f-2     :     0.000523
      f+3     :     0.000130
      f-3     :     0.000042
 19 H s       :     0.673425  s :     0.673425
      pz      :     0.087253  p :     0.185233
      px      :     0.056274
      py      :     0.041706
 20 H s       :     0.672918  s :     0.672918
      pz      :     0.071197  p :     0.195265
      px      :     0.047360
      py      :     0.076708
 21 O s       :     3.451442  s :     3.451442
      pz      :     1.619080  p :     4.788650
      px      :     1.676907
      py      :     1.492662
      dz2     :     0.001589  d :     0.029655
      dxz     :     0.007221
      dyz     :     0.014352
      dx2y2   :     0.000895
      dxy     :     0.005598
      f0      :     0.000206  f :     0.002113
      f+1     :     0.000151
      f-1     :     0.000333
      f+2     :     0.000146
      f-2     :     0.000859
      f+3     :     0.000365
      f-3     :     0.000053
 22 H s       :     0.675561  s :     0.675561
      pz      :     0.057906  p :     0.174148
      px      :     0.055307
      py      :     0.060936
 23 H s       :     0.679320  s :     0.679320
      pz      :     0.069328  p :     0.180701
      px      :     0.047976
      py      :     0.063397
 24 O s       :     3.456774  s :     3.456774
      pz      :     1.429737  p :     4.811116
      px      :     1.652021
      py      :     1.729359
      dz2     :     0.016077  d :     0.028345
      dxz     :     0.001932
      dyz     :     0.001607
      dx2y2   :     0.001231
      dxy     :     0.007498
      f0      :     0.001217  f :     0.002139
      f+1     :     0.000121
      f-1     :     0.000120
      f+2     :     0.000033
      f-2     :     0.000135
      f+3     :     0.000083
      f-3     :     0.000430
 25 H s       :     0.651535  s :     0.651535
      pz      :     0.032576  p :     0.206996
      px      :     0.099736
      py      :     0.074683
 26 H s       :     0.679793  s :     0.679793
      pz      :     0.083635  p :     0.161559
      px      :     0.037266
      py      :     0.040658
 27 O s       :     3.451014  s :     3.451014
      pz      :     1.443725  p :     4.808309
      px      :     1.637654
      py      :     1.726930
      dz2     :     0.001327  d :     0.028475
      dxz     :     0.012604
      dyz     :     0.007279
      dx2y2   :     0.003112
      dxy     :     0.004154
      f0      :     0.000057  f :     0.001985
      f+1     :     0.000536
      f-1     :     0.000305
      f+2     :     0.000462
      f-2     :     0.000424
      f+3     :     0.000162
      f-3     :     0.000039
 28 H s       :     0.672651  s :     0.672651
      pz      :     0.074345  p :     0.185889
      px      :     0.072680
      py      :     0.038864
 29 H s       :     0.670896  s :     0.670896
      pz      :     0.076468  p :     0.195339
      px      :     0.043991
      py      :     0.074880
 30 O s       :     3.449272  s :     3.449272
      pz      :     1.399484  p :     4.787251
      px      :     1.626163
      py      :     1.761604
      dz2     :     0.001501  d :     0.029768
      dxz     :     0.012667
      dyz     :     0.008059
      dx2y2   :     0.002991
      dxy     :     0.004550
      f0      :     0.000033  f :     0.002097
      f+1     :     0.000574
      f-1     :     0.000410
      f+2     :     0.000405
      f-2     :     0.000484
      f+3     :     0.000120
      f-3     :     0.000072
 31 H s       :     0.675018  s :     0.675018
      pz      :     0.069337  p :     0.177772
      px      :     0.066288
      py      :     0.042148
 32 H s       :     0.681105  s :     0.681105
      pz      :     0.070091  p :     0.178345
      px      :     0.042468
      py      :     0.065786
 33 O s       :     3.453826  s :     3.453826
      pz      :     1.699665  p :     4.803811
      px      :     1.603876
      py      :     1.500271
      dz2     :     0.002243  d :     0.028645
      dxz     :     0.006036
      dyz     :     0.005611
      dx2y2   :     0.001051
      dxy     :     0.013703
      f0      :     0.000393  f :     0.002029
      f+1     :     0.000102
      f-1     :     0.000070
      f+2     :     0.000078
      f-2     :     0.000696
      f+3     :     0.000305
      f-3     :     0.000384
 34 H s       :     0.673422  s :     0.673422
      pz      :     0.043270  p :     0.192527
      px      :     0.080567
      py      :     0.068691
 35 H s       :     0.673095  s :     0.673095
      pz      :     0.059166  p :     0.174137
      px      :     0.053492
      py      :     0.061479
 36 O s       :     3.449525  s :     3.449525
      pz      :     1.644954  p :     4.805814
      px      :     1.436509
      py      :     1.724351
      dz2     :     0.002206  d :     0.028284
      dxz     :     0.011900
      dyz     :     0.004128
      dx2y2   :     0.002375
      dxy     :     0.007675
      f0      :     0.000197  f :     0.001993
      f+1     :     0.000296
      f-1     :     0.000064
      f+2     :     0.000518
      f-2     :     0.000419
      f+3     :     0.000209
      f-3     :     0.000291
 37 H s       :     0.670470  s :     0.670470
      pz      :     0.068441  p :     0.181853
      px      :     0.073536
      py      :     0.039876
 38 H s       :     0.674361  s :     0.674361
      pz      :     0.042589  p :     0.190257
      px      :     0.072787
      py      :     0.074881
 39 O s       :     3.450323  s :     3.450323
      pz      :     1.380120  p :     4.787803
      px      :     1.796495
      py      :     1.611188
      dz2     :     0.002348  d :     0.029640
      dxz     :     0.006334
      dyz     :     0.013626
      dx2y2   :     0.002709
      dxy     :     0.004623
      f0      :     0.000065  f :     0.002103
      f+1     :     0.000405
      f-1     :     0.000598
      f+2     :     0.000410
      f-2     :     0.000430
      f+3     :     0.000079
      f-3     :     0.000116
 40 H s       :     0.674914  s :     0.674914
      pz      :     0.074348  p :     0.176088
      px      :     0.058157
      py      :     0.043583
 41 H s       :     0.679310  s :     0.679310
      pz      :     0.065079  p :     0.179897
      px      :     0.043436
      py      :     0.071382
 42 O s       :     3.453888  s :     3.453888
      pz      :     1.557423  p :     4.804446
      px      :     1.658572
      py      :     1.588452
      dz2     :     0.004942  d :     0.028676
      dxz     :     0.007117
      dyz     :     0.005457
      dx2y2   :     0.001047
      dxy     :     0.010113
      f0      :     0.000127  f :     0.002007
      f+1     :     0.000452
      f-1     :     0.000423
      f+2     :     0.000032
      f-2     :     0.000427
      f+3     :     0.000220
      f-3     :     0.000325
 43 H s       :     0.671725  s :     0.671725
      pz      :     0.079847  p :     0.179689
      px      :     0.051988
      py      :     0.047855
 44 H s       :     0.672641  s :     0.672641
      pz      :     0.038699  p :     0.193750
      px      :     0.081896
      py      :     0.073155
 45 O s       :     3.455386  s :     3.455386
      pz      :     1.607100  p :     4.807447
      px      :     1.637016
      py      :     1.563330
      dz2     :     0.002295  d :     0.028732
      dxz     :     0.007853
      dyz     :     0.011423
      dx2y2   :     0.000919
      dxy     :     0.006241
      f0      :     0.000202  f :     0.001993
      f+1     :     0.000137
      f-1     :     0.000359
      f+2     :     0.000120
      f-2     :     0.000760
      f+3     :     0.000227
      f-3     :     0.000188
 46 H s       :     0.676532  s :     0.676532
      pz      :     0.053162  p :     0.179920
      px      :     0.069740
      py      :     0.057018
 47 H s       :     0.671713  s :     0.671713
      pz      :     0.081176  p :     0.193124
      px      :     0.044133
      py      :     0.067816


                      *****************************
                      * MAYER POPULATION ANALYSIS *
                      *****************************

  NA   - Mulliken gross atomic population
  ZA   - Total nuclear charge
  QA   - Mulliken gross atomic charge
  VA   - Mayer's total valence
  BVA  - Mayer's bonded valence
  FA   - Mayer's free valence

  ATOM       NA         ZA         QA         VA         BVA        FA
  0 O      8.7287     8.0000    -0.7287     1.7810     1.7810    -0.0000
  1 H      0.6287     1.0000     0.3713     0.9234     0.9234    -0.0000
  2 H      0.6667     1.0000     0.3333     0.9107     0.9107    -0.0000
  3 O      8.7306     8.0000    -0.7306     1.7932     1.7932     0.0000
  4 H      0.6440     1.0000     0.3560     0.9353     0.9353     0.0000
  5 H      0.6374     1.0000     0.3626     0.9270     0.9270     0.0000
  6 O      8.7300     8.0000    -0.7300     1.8006     1.8006    -0.0000
  7 H      0.6227     1.0000     0.3773     0.9045     0.9045     0.0000
  8 H      0.6535     1.0000     0.3465     0.9443     0.9443    -0.0000
  9 O      8.6829     8.0000    -0.6829     1.8408     1.8408    -0.0000
 10 H      0.6466     1.0000     0.3534     0.9330     0.9330     0.0000
 11 H      0.6281     1.0000     0.3719     0.9047     0.9047     0.0000
 12 O      8.7269     8.0000    -0.7269     1.7745     1.7745     0.0000
 13 H      0.6654     1.0000     0.3346     0.9086     0.9086     0.0000
 14 H      0.6346     1.0000     0.3654     0.9314     0.9314     0.0000
 15 O      8.7278     8.0000    -0.7278     1.7717     1.7717    -0.0000
 16 H      0.6655     1.0000     0.3345     0.9084     0.9084    -0.0000
 17 H      0.6358     1.0000     0.3642     0.9330     0.9330    -0.0000
 18 O      8.7380     8.0000    -0.7380     1.7758     1.7758    -0.0000
 19 H      0.6286     1.0000     0.3714     0.9216     0.9216    -0.0000
 20 H      0.6553     1.0000     0.3447     0.9487     0.9487    -0.0000
 21 O      8.6776     8.0000    -0.6776     1.8519     1.8519    -0.0000
 22 H      0.6287     1.0000     0.3713     0.9042     0.9042    -0.0000
 23 H      0.6497     1.0000     0.3503     0.9338     0.9338    -0.0000
 24 O      8.7289     8.0000    -0.7289     1.7735     1.7735    -0.0000
 25 H      0.6324     1.0000     0.3676     0.9296     0.9296    -0.0000
 26 H      0.6649     1.0000     0.3351     0.9092     0.9092    -0.0000
 27 O      8.7408     8.0000    -0.7408     1.7721     1.7721    -0.0000
 28 H      0.6299     1.0000     0.3701     0.9267     0.9267     0.0000
 29 H      0.6491     1.0000     0.3509     0.9423     0.9423     0.0000
 30 O      8.6755     8.0000    -0.6755     1.8573     1.8573     0.0000
 31 H      0.6259     1.0000     0.3741     0.9014     0.9014     0.0000
 32 H      0.6495     1.0000     0.3505     0.9318     0.9318     0.0000
 33 O      8.7269     8.0000    -0.7269     1.8039     1.8039    -0.0000
 34 H      0.6519     1.0000     0.3481     0.9411     0.9411     0.0000
 35 H      0.6248     1.0000     0.3752     0.9065     0.9065     0.0000
 36 O      8.7322     8.0000    -0.7322     1.7924     1.7924     0.0000
 37 H      0.6159     1.0000     0.3841     0.9030     0.9030     0.0000
 38 H      0.6537     1.0000     0.3463     0.9466     0.9466    -0.0000
 39 O      8.6781     8.0000    -0.6781     1.8542     1.8542    -0.0000
 40 H      0.6277     1.0000     0.3723     0.9027     0.9027    -0.0000
 41 H      0.6459     1.0000     0.3541     0.9295     0.9295     0.0000
 42 O      8.7291     8.0000    -0.7291     1.7976     1.7976     0.0000
 43 H      0.6211     1.0000     0.3789     0.9064     0.9064    -0.0000
 44 H      0.6513     1.0000     0.3487     0.9433     0.9433     0.0000
 45 O      8.7302     8.0000    -0.7302     1.7954     1.7954    -0.0000
 46 H      0.6370     1.0000     0.3630     0.9262     0.9262    -0.0000
 47 H      0.6434     1.0000     0.3566     0.9327     0.9327    -0.0000

  Mayer bond orders larger than 0.1
B(  0-O ,  1-H ) :   0.7287 B(  0-O ,  2-H ) :   0.8894 B(  0-O , 28-H ) :   0.1046 
B(  1-H ,  9-O ) :   0.1819 B(  3-O ,  4-H ) :   0.7836 B(  3-O ,  5-H ) :   0.8257 
B(  3-O , 38-H ) :   0.1384 B(  4-H , 33-O ) :   0.1362 B(  6-O ,  7-H ) :   0.8274 
B(  6-O ,  8-H ) :   0.7830 B(  6-O , 47-H ) :   0.1350 B(  8-H , 27-O ) :   0.1391 
B(  9-O , 10-H ) :   0.8246 B(  9-O , 11-H ) :   0.8337 B( 12-O , 13-H ) :   0.8895 
B( 12-O , 14-H ) :   0.7295 B( 14-H , 39-O ) :   0.1884 B( 15-O , 16-H ) :   0.8898 
B( 15-O , 17-H ) :   0.7313 B( 17-H , 30-O ) :   0.1870 B( 18-O , 19-H ) :   0.8110 
B( 18-O , 20-H ) :   0.7797 B( 18-O , 34-H ) :   0.1367 B( 20-H , 36-O ) :   0.1430 
B( 21-O , 22-H ) :   0.8359 B( 21-O , 23-H ) :   0.8316 B( 21-O , 25-H ) :   0.1842 
B( 24-O , 25-H ) :   0.7323 B( 24-O , 26-H ) :   0.8888 B( 27-O , 28-H ) :   0.8071 
B( 27-O , 29-H ) :   0.7749 B( 29-H , 42-O ) :   0.1483 B( 30-O , 31-H ) :   0.8329 
B( 30-O , 32-H ) :   0.8365 B( 33-O , 34-H ) :   0.7867 B( 33-O , 35-H ) :   0.8282 
B( 36-O , 37-H ) :   0.8128 B( 36-O , 38-H ) :   0.7894 B( 39-O , 40-H ) :   0.8342 
B( 39-O , 41-H ) :   0.8318 B( 42-O , 43-H ) :   0.8197 B( 42-O , 44-H ) :   0.7844 
B( 44-H , 45-O ) :   0.1433 B( 45-O , 46-H ) :   0.8247 B( 45-O , 47-H ) :   0.7827 


-------
TIMINGS
-------

Total SCF time: 0 days 0 hours 1 min 4 sec 

Total time                  ....      64.498 sec
Sum of individual times     ....      60.845 sec  ( 94.3%)

Fock matrix formation       ....      48.850 sec  ( 75.7%)
  Coulomb formation         ....      43.428 sec  ( 88.9% of F)
  Split-RI-J                ....       5.268 sec  ( 10.8% of F)
  Chain of spheres X        ....      44.860 sec  ( 91.8% of F)
  COS-X 1 center corr.      ....       0.000 sec  (  0.0% of F)
  XC integration            ....       5.289 sec  ( 10.8% of F)
    Basis function eval.    ....       1.442 sec  ( 27.3% of XC)
    Density eval.           ....       1.315 sec  ( 24.9% of XC)
    XC-Functional eval.     ....       0.154 sec  (  2.9% of XC)
    XC-Potential eval.      ....       1.954 sec  ( 37.0% of XC)
Diagonalization             ....       1.025 sec  (  1.6%)
Density matrix formation    ....       0.083 sec  (  0.1%)
Population analysis         ....       0.928 sec  (  1.4%)
Initial guess               ....       2.536 sec  (  3.9%)
Orbital Transformation      ....       0.000 sec  (  0.0%)
Orbital Orthonormalization  ....       0.000 sec  (  0.0%)
DIIS solution               ....       0.358 sec  (  0.6%)
SOSCF solution              ....       0.875 sec  (  1.4%)
Grid generation             ....       6.188 sec  (  9.6%)
           ************************************************************
           *              Shut down parallel processing               *
           ************************************************************

Entering the calculation of the dispersion correction...

Checking the input atom types...

Done


-------------------------------------------------------------------------------
                          DFT DISPERSION CORRECTION                            
                                                                               
                                DFTD3 V2.1  Rev 6                               
                          USING Becke-Johnson damping                          
-------------------------------------------------------------------------------
The B3LYP functional is recognized
Active option DFTDOPT                   ...         4   

molecular C6(AA) [au] = 11390.483945 


            DFT-D V3
 parameters
 s6 scaling factor         :     1.0000 
 a1 scaling factor         :     0.3981 
 s8 scaling factor         :     1.9889 
 a2 scaling factor         :     4.4211 
 ad hoc parameters k1-k3   :    16.0000     1.3333    -4.0000 

 Edisp/kcal,au: -38.181729074062  -0.060846451853 
 E6   /kcal   : -21.139120470 
 E8   /kcal   : -17.042608604 
 % E8         :  44.635507656 

-------------------------   ----------------
Dispersion correction           -0.060846452
-------------------------   ----------------


-------------------------   --------------------
FINAL SINGLE POINT ENERGY     -1223.137887494697
-------------------------   --------------------


                            ***************************************
                            *     ORCA property calculations      *
                            ***************************************

                                    ---------------------
                                    Active property flags
                                    ---------------------
   (+) Dipole Moment


------------------------------------------------------------------------------
                       ORCA ELECTRIC PROPERTIES CALCULATION
------------------------------------------------------------------------------

Dipole Moment Calculation                       ... on
Quadrupole Moment Calculation                   ... off
Polarizability Calculation                      ... off
GBWName                                         ... 1_B3LYP_GasPhase_onB3LYP_16_waters.gbw
Electron density file                           ... 1_B3LYP_GasPhase_onB3LYP_16_waters.scfp.tmp

-------------
DIPOLE MOMENT
-------------
                                X             Y             Z
Electronic contribution:      0.03283      -0.03468       0.00435
Nuclear contribution   :      0.03704       0.12131       0.01300
                        -----------------------------------------
Total Dipole Moment    :      0.06987       0.08663       0.01735
                        -----------------------------------------
Magnitude (a.u.)       :      0.11264
Magnitude (Debye)      :      0.28631

smp-n88.crc.pitt.edu.349689hfi_wait_for_device: The /dev/hfi1_0 device failed to appear after 15.0 seconds: Connection timed out
smp-n88.crc.pitt.edu.349681hfi_wait_for_device: The /dev/hfi1_0 device failed to appear after 15.0 seconds: Connection timed out
smp-n88.crc.pitt.edu.349687hfi_wait_for_device: The /dev/hfi1_0 device failed to appear after 15.0 seconds: Connection timed out
smp-n88.crc.pitt.edu.349691hfi_wait_for_device: The /dev/hfi1_0 device failed to appear after 15.0 seconds: Connection timed out
smp-n88.crc.pitt.edu.349683hfi_wait_for_device: The /dev/hfi1_0 device failed to appear after 15.0 seconds: Connection timed out
smp-n88.crc.pitt.edu.349690hfi_wait_for_device: The /dev/hfi1_0 device failed to appear after 15.0 seconds: Connection timed out
smp-n88.crc.pitt.edu.349682hfi_wait_for_device: The /dev/hfi1_0 device failed to appear after 15.0 seconds: Connection timed out
smp-n88.crc.pitt.edu.349685hfi_wait_for_device: The /dev/hfi1_0 device failed to appear after 15.0 seconds: Connection timed out
smp-n88.crc.pitt.edu.349692hfi_wait_for_device: The /dev/hfi1_0 device failed to appear after 15.0 seconds: Connection timed out
smp-n88.crc.pitt.edu.349686hfi_wait_for_device: The /dev/hfi1_0 device failed to appear after 15.0 seconds: Connection timed out
smp-n88.crc.pitt.edu.349688hfi_wait_for_device: The /dev/hfi1_0 device failed to appear after 15.0 seconds: Connection timed out
smp-n88.crc.pitt.edu.349684hfi_wait_for_device: The /dev/hfi1_0 device failed to appear after 15.0 seconds: Connection timed out

Timings for individual modules:

Sum of individual times         ...       99.779 sec (=   1.663 min)
GTO integral calculation        ...       16.595 sec (=   0.277 min)  16.6 %
SCF iterations                  ...       83.184 sec (=   1.386 min)  83.4 %
                             ****ORCA TERMINATED NORMALLY****
TOTAL RUN TIME: 0 days 0 hours 1 minutes 55 seconds 978 msec
cp: cannot stat ‘/scratch/slurm-1328784/*.{prop}’: No such file or directory
