7
Energy:   -127.73880490
O    0.02998568   0.20261626   1.51122767
H   -0.69985004  -0.39143864   1.33609785
H    0.40309248   0.38515478   0.64884559
C    0.16653532  -0.16113145  -1.53898035
O   -0.26130678  -1.30201261  -0.91264202
O    1.23094971   0.36369209  -0.85437751
O   -0.85372644   0.75318235  -1.56858487
