7
Energy:   -126.63942050
O    1.18626442  -0.36665875   0.97291123
H    1.14600344  -0.94515916   0.21136794
H    0.51533258   0.29556929   0.80697048
C   -1.19729583   0.53562955  -0.89981655
O   -0.24189708  -0.02008348  -1.70935631
O   -0.59293335   1.31694986   0.04959556
O   -1.91069733  -0.46030670  -0.28585443
