7
Energy:   -128.19581350
O    0.39978044  -1.42095681  -0.46812754
H   -0.21672541  -0.99863254  -1.06628689
H    0.48756418  -0.80567205   0.25984947
C   -0.37259151   1.36851522   0.64325410
O   -1.41550936   0.74479487   0.01059805
O    0.44281513   1.95369991  -0.28936033
O    0.34256888   0.44638173   1.36158246
