46
Energy:   -675.91170003
O    0.78360047  -0.45237541   3.46369476
H    0.65133357  -0.80157565   4.34505536
H    1.37232978  -1.07906410   3.04311072
O   -0.95268426  -0.93275357   1.32392978
H   -0.51598345  -0.70056402   2.14344931
H   -0.77810044  -1.86762670   1.21546515
O    2.27787472  -2.04328917   1.75701006
H    2.21941779  -1.33581535   1.11490771
H    3.20365148  -2.28647355   1.76254050
O    1.57891228   1.98058338   2.43695320
H    2.04093934   2.53426225   3.06639943
H    1.29893502   1.22013473   2.94642589
O    0.11326974  -3.45590338   0.81876813
H    0.04156879  -4.35689831   1.13388549
H    0.94067530  -3.13984707   1.18172859
O   -0.07544630  -1.92743993  -1.55040980
H    0.04045200  -2.63917824  -0.90355632
C   -0.86066891  -2.43788311  -2.61596459
H   -0.98147338  -1.62341335  -3.33536051
H   -1.86305183  -2.75730532  -2.29042619
H   -0.37809142  -3.28171448  -3.13350195
O    1.85955831   0.24558040   0.22343522
H    1.92271887   0.96583430   0.86815868
C    2.76925926   0.52795573  -0.82786975
H    2.68521336  -0.29307046  -1.54504301
H    3.81451492   0.57558472  -0.48443211
H    2.53324291   1.46623313  -1.35390124
O   -2.82091305   0.13518772  -1.02881910
H   -3.44160772  -0.23388717  -0.38310622
C   -3.57028276   0.54086619  -2.16301651
H   -2.85585581   0.95408582  -2.88018377
H   -4.30859401   1.32322971  -1.92725993
H   -4.09490060  -0.29717483  -2.64803270
O    0.05856685   1.15575796  -2.81991716
H    0.38582352   0.78294982  -3.65198713
C   -0.12003481   2.54971581  -3.01360952
H   -0.48890020   2.95371570  -2.06692710
H   -0.86174620   2.77891844  -3.79470344
H    0.81896999   3.06810850  -3.26324192
O   -0.49250435   2.26811774   0.54715662
H    0.12977572   2.41659624   1.27458010
C   -1.68843005   2.96659326   0.85444710
H   -2.37817062   2.78862363   0.02494728
H   -1.53512610   4.05346855   0.94376314
H   -2.16598296   2.60590291   1.77890533
Na  -0.48078348   0.24577578  -0.68892067
