46
Energy:   -671.83487293
O    2.44925998  -2.86195787  -0.47784815
H    3.37895346  -2.93614765  -0.69324953
H    2.26477725  -1.92418823  -0.53063132
O    0.14760873  -1.74514153   2.08214663
H    0.61931031  -1.87466002   2.90491903
H    0.16096391  -2.60415506   1.66006933
O    0.01296740  -0.54394101  -2.97858252
H   -0.46912390  -1.16577954  -2.43348008
H    0.07193209  -0.96988610  -3.83375841
O    0.17846785  -3.97512802   0.47069056
H    1.03059483  -3.72393626   0.11430008
H    0.22408282  -4.92769741   0.55292597
O    1.57171292  -0.25669652  -0.71877424
H    1.22570644  -0.28322853  -1.61085463
H    2.06728352   0.56120534  -0.67780871
O    2.87606749   2.20616667  -0.38732626
H    3.82392444   2.40332117  -0.35385125
C    2.26271367   3.18076082  -1.21587748
H    1.19565021   2.94380530  -1.24257668
H    2.64287244   3.16048237  -2.24924355
H    2.37553442   4.20378966  -0.82413674
O   -2.44551875   0.24750245   1.87470132
H   -3.03205485  -0.31166682   2.40548226
C   -2.73868969   1.59938174   2.18935504
H   -2.06922932   2.21539510   1.58286056
H   -2.55651997   1.83854106   3.24878618
H   -3.77536393   1.87802743   1.94350868
O   -1.17810026  -1.88071701  -0.82639218
H   -0.84936278  -2.72379379  -0.48059384
C   -2.59094904  -1.97331669  -0.91480823
H   -2.94469028  -1.01552259  -1.30593839
H   -3.06825045  -2.13976141   0.06358681
H   -2.92288574  -2.76657174  -1.60280661
O   -1.10844885   1.36125514  -1.24080858
H   -0.83434577   0.91743639  -2.05709021
C   -1.99553472   2.40923353  -1.59767513
H   -2.29444741   2.89851074  -0.66668414
H   -2.90558486   2.04389925  -2.09879082
H   -1.52259107   3.16511754  -2.24400400
O    0.81432019   1.75833442   1.56605935
H    1.55059143   2.09185821   1.03212133
C    1.02621975   2.18142133   2.90345601
H    0.18798022   1.79725344   3.49103982
H    1.04047307   3.27786087   3.00540940
H    1.95710711   1.78028252   3.33393680
Na  -0.45279277   0.00452049   0.62738254
