46
Energy:   -675.70900024
O    1.90313332  -2.55388676   1.18912876
H    2.76266731  -2.74865206   1.56262527
H    2.00590768  -1.69113839   0.78746405
O   -0.01977708  -1.02453690   2.50896760
H   -0.00600236  -1.10595225   3.46259942
H    0.57886279  -1.70514030   2.20132957
O    1.10247476  -1.10345651  -2.61255744
H    0.97366188  -1.98089584  -2.25236400
H    1.57512192  -1.24757223  -3.43235448
O    0.79567257  -3.46197438  -1.16539654
H    1.23216864  -3.31069862  -0.32705373
H    0.87693652  -4.40443724  -1.31165577
O    1.69991768  -0.16684726  -0.08892018
H    2.14388520   0.68115724  -0.08530692
H    1.59939160  -0.38115538  -1.01638898
O    2.85258106   2.39657394  -0.01504877
H    3.75095802   2.68465392   0.20484219
C    2.45568960   3.08425396  -1.19067930
H    1.44181774   2.74804305  -1.42415578
H    3.09877204   2.85528940  -2.05485378
H    2.43049882   4.17697513  -1.05613116
O   -2.81491722   0.99870852   1.30236203
H   -3.35726842   1.80137382   1.29973875
C   -3.44274721   0.05781808   2.15856788
H   -2.81886153  -0.84005524   2.14988698
H   -4.45056395  -0.22342678   1.81507975
H   -3.51643810   0.41227244   3.19862033
O   -1.31780155  -1.79582253  -0.33469536
H   -0.75060239  -2.53366478  -0.60357675
C   -2.58132122  -1.97635274  -0.95393738
H   -3.20764810  -1.13675788  -0.64044047
H   -3.07845816  -2.90822241  -0.64208627
H   -2.52140032  -1.96564990  -2.05351560
O   -0.67438447   0.96178610  -1.66612200
H   -0.25562922   0.31086624  -2.24867728
C   -1.61927464   1.68543811  -2.43816092
H   -2.08151898   2.41410264  -1.76669731
H   -2.41588883   1.04372822  -2.84607217
H   -1.15529392   2.23563018  -3.27170031
O    0.32842036   2.29055225   1.35002982
H    1.18827879   2.53924661   0.97960052
C    0.09437579   3.11117721   2.48331336
H   -0.87801108   2.81784217   2.88816336
H    0.05005929   4.18221107   2.23092504
H    0.84919953   2.97118358   3.27288302
Na  -0.66390806   0.27908406   0.63061403
