46
Energy:   -674.56564195
O    3.01513729  -1.20828448   0.23527859
H    2.75772186  -1.83172560  -0.44390497
H    3.86322131  -1.52675735   0.54440699
O   -0.50850197  -3.33894863  -0.17267097
H   -0.25874447  -2.62773176   0.41726428
H   -0.75763292  -4.05704610   0.40913796
O    0.75014299  -0.49859392  -2.34780124
H    1.13125070  -1.36662651  -2.21548275
H    0.96819634  -0.27618863  -3.25290924
O    1.80307751  -2.92525150  -1.59235574
H    2.07387718  -3.67689058  -2.11955407
H    0.99959657  -3.21307330  -1.15898657
O    0.40004490  -1.10416982   1.10275427
H    0.28809919  -0.69574591   1.96117719
H    1.34705068  -1.11511722   0.96385846
O    1.80027201   1.38284621  -0.03706273
H    2.46534237   0.67858448  -0.04802209
C    2.46021696   2.60275890  -0.33508865
H    1.69666001   3.38518718  -0.31859683
H    2.92615272   2.60143771  -1.33292604
H    3.23070494   2.86195301   0.40784070
O   -1.36343427   1.51334891   1.36177929
H   -1.02734844   1.23078052   2.22527491
C   -2.43619545   2.41293708   1.59081715
H   -2.80290423   2.72128408   0.60799876
H   -2.12411322   3.31647328   2.13763005
H   -3.27204003   1.94784185   2.13655298
O   -2.07301931  -1.03860998  -0.89624984
H   -1.81987234  -1.97294599  -0.85942454
C   -3.43697275  -0.94694720  -0.51708929
H   -3.70561666   0.11187855  -0.56403258
H   -3.61732413  -1.29967059   0.51044997
H   -4.10518949  -1.49912163  -1.19632939
O   -1.15140317   2.36282856  -1.95307465
H   -1.13374119   3.33006365  -2.00374625
C   -1.99086904   1.89246205  -2.99546909
H   -1.99947857   0.80146588  -2.92378621
H   -1.62048873   2.16593482  -3.99587320
H   -3.02837123   2.24907549  -2.89958692
O   -0.00277028   0.23726543   3.54215456
H   -0.24393550  -0.09478668   4.41965329
C    1.08616554   1.13186317   3.70478122
H    1.34495960   1.49642109   2.70697946
H    1.97667796   0.64461081   4.13180593
H    0.83216203   2.00159084   4.33074714
Na  -0.38776493   0.59487519  -0.57732058
