46
Energy:   -674.36472667
O    2.20865024  -0.29741890   2.51237979
H    3.04453794  -0.32834775   2.97774741
H    2.22714874  -1.06051033   1.93481497
O   -0.39571548  -0.10317172   3.42666630
H    0.54108576  -0.10269643   3.23010823
H   -0.44250481   0.03494717   4.37269261
O   -0.92227531  -0.94577009  -0.96637755
H   -1.00808111  -1.41612718  -0.13714090
H   -0.17069991  -1.35332598  -1.39680114
O    1.55397531  -1.80014494  -1.86471299
H    1.83121792  -2.01850747  -0.97494550
H    1.85836595  -2.53447327  -2.39794848
O    1.90589791  -2.46101031   0.81904134
H    0.97712334  -2.49861383   1.04750496
H    2.24818610  -3.32082872   1.06354683
O    0.91856949   0.89099722  -2.63584122
H    1.35803980   0.02978930  -2.57575752
C    1.23606877   1.44891351  -3.90093307
H    0.73313425   2.41842197  -3.95187832
H    0.87589821   0.83299628  -4.73980163
H    2.31639802   1.61743406  -4.03233658
O    1.46199889   1.51450582   0.48166252
H    1.80523032   1.00442258   1.23028161
C    2.47930300   2.41401440   0.07116227
H    2.07603083   2.98049502  -0.77261286
H    3.39118757   1.89837153  -0.26847914
H    2.75823196   3.12945637   0.86054097
O   -0.74526724  -2.16739188   1.54828988
H   -0.79955514  -1.55049104   2.29321232
C   -1.80690553  -3.09876130   1.68248728
H   -1.73085770  -3.78600066   0.83549023
H   -2.79860186  -2.62123320   1.64667361
H   -1.73924087  -3.69010001   2.60904939
O   -2.00380500   2.69215612  -1.98414362
H   -2.35130370   3.58922444  -2.09788173
C   -2.63685575   1.86050485  -2.94338117
H   -2.23397365   0.85403698  -2.80127684
H   -2.42614427   2.16946230  -3.97920128
H   -3.72901255   1.81297214  -2.81029662
O   -1.61757706   1.26959374   1.26950231
H   -1.27821930   0.93219624   2.11177455
C   -2.99728876   1.55044475   1.44285776
H   -3.36353067   1.92942354   0.48487700
H   -3.18156888   2.32098521   2.20776663
H   -3.58404504   0.65549023   1.70276313
Na  -0.50169269   1.34430786  -0.79696006
