46
Energy:   -674.91668478
O    2.96374361  -2.21531705   1.40263214
H    3.67049716  -2.84126165   1.56050745
H    2.31258015  -2.70922734   0.90436452
O   -0.44102711  -0.24065704   1.74976367
H    0.44334428  -0.11122459   2.09235139
H   -0.91701300   0.54797460   2.01001243
O    0.98204387  -3.43066946  -0.09571524
H    0.13053789  -3.29958902   0.32140265
H    0.93740046  -4.31482871  -0.45972242
O    2.18671562   0.17821839   2.42216229
H    2.62207069   0.26843396   3.26984086
H    2.52491025  -0.64287435   2.06486277
O   -1.39021241  -2.70979856   1.06829811
H   -1.06985509  -1.89577826   1.45685182
H   -1.86808834  -3.14185379   1.77624918
O    1.02409639  -0.84588633  -1.23996643
H    1.06609228  -1.77819569  -0.98023800
C    2.28914723  -0.49064787  -1.77474280
H    2.22427614   0.56228993  -2.06214308
H    2.55065738  -1.07381879  -2.67157135
H    3.10491847  -0.59497138  -1.04234180
O    1.37068757   2.00923771   0.43358028
H    1.86238975   1.52352603   1.11235595
C    2.12847176   3.15922813   0.09325845
H    1.56028184   3.69464709  -0.67222959
H    3.11540590   2.90923292  -0.32655191
H    2.27607507   3.83916266   0.94688579
O   -2.18263103  -0.77402737  -0.86044307
H   -2.14411852  -1.56518505  -0.30276073
C   -2.48863403  -1.19268256  -2.18090654
H   -2.52816311  -0.28935532  -2.79566059
H   -3.46520212  -1.69675536  -2.25163638
H   -1.72161208  -1.86017537  -2.60388174
O   -0.69074784   2.16112977  -2.40331701
H   -0.13376952   2.47104534  -3.13280365
C   -1.99676863   2.67478433  -2.61068735
H   -2.61092056   2.31616866  -1.78020712
H   -2.44983004   2.31844429  -3.54905533
H   -2.02635430   3.77564113  -2.60664630
O   -1.75930996   2.19662950   1.07349218
H   -1.56172742   3.11267817   1.31892901
C   -3.15573743   2.00094371   1.22915576
H   -3.36089722   0.96428256   0.94857005
H   -3.75243402   2.65606838   0.57528867
H   -3.49239850   2.14657847   2.26753294
Na  -0.46369101   0.81355868  -0.48579601
