46
Energy:   -673.72851905
O    2.25362973  -2.09479417   1.78105918
H    2.83611595  -2.54282810   2.39441654
H    2.02915631  -2.76193390   1.13239277
O   -0.37336141  -1.24637543   1.70763195
H    0.50948544  -1.48639859   1.98906076
H   -0.57070764  -0.44557828   2.19344079
O    1.21275379  -3.79306402  -0.16117360
H    0.26116964  -3.76358785  -0.06192340
H    1.39816073  -4.69256209  -0.43091300
O    2.13053067   0.49186312   0.78034682
H    2.91459685   0.74840683   0.29490125
H    2.34924793  -0.36086885   1.15616966
O   -1.46550614  -3.28046020   0.25003407
H   -1.20726152  -2.61484455   0.88760553
H   -2.10275794  -3.82314183   0.71440316
O    1.06031454  -1.33379283  -1.53931830
H    1.24076214  -2.24393126  -1.26091216
C    1.21047325  -1.27705800  -2.94884563
H    1.00369762  -0.24521065  -3.24552744
H    0.50218276  -1.93307770  -3.47869472
H    2.23062859  -1.52908979  -3.27830032
O   -0.01408564   4.18975601   1.14650132
H   -0.36611215   5.08025652   1.29316228
C    1.28005398   4.13778410   1.72532368
H    1.66183459   3.12815258   1.55104525
H    1.26722072   4.31502497   2.81215315
H    1.98074703   4.85189216   1.26504522
O   -2.00442251  -0.72829761  -0.97730168
H   -2.06965948  -1.68186425  -0.81957383
C   -2.93964980  -0.39463999  -1.99049282
H   -2.85290050   0.68270959  -2.15565223
H   -3.97886068  -0.61265081  -1.69844941
H   -2.73270452  -0.90404081  -2.94467403
O    0.08042498   2.42688379  -1.12239669
H    0.09861881   3.16436530  -0.49453263
C   -0.03191737   2.97436711  -2.42630427
H   -0.05103008   2.13018549  -3.12091012
H    0.82207793   3.61654704  -2.69290190
H   -0.95859105   3.55268855  -2.56629546
O   -0.99136983   1.52927989   1.66276482
H   -0.67348433   2.44390188   1.69172508
C   -2.40951012   1.56645650   1.65730453
H   -2.75086695   0.52824363   1.62452130
H   -2.81783929   2.08801291   0.77751846
H   -2.82612055   2.03435631   2.56299921
Na  -0.01856443   0.27471336  -0.19323120
