46
Energy:   -672.60363735
O    2.45959312  -1.85039642   0.81134295
H    3.02918519  -2.59694534   0.62570507
H    2.34912316  -1.41659179  -0.03473138
O   -0.65664979  -0.56955910   3.38010536
H    0.28910854  -0.44206124   3.45438412
H   -0.92562839  -0.87978481   4.24476851
O   -0.64702725  -3.09359158  -1.49649853
H   -0.66306733  -2.81903079  -0.57966106
H   -0.84882214  -4.02891715  -1.47048392
O    2.09163579  -0.32550809   3.11206831
H    2.81552227  -0.32870486   3.73833502
H    2.37043842  -0.92506302   2.41994490
O   -0.29270045  -1.65881129   0.86094894
H    0.64282752  -1.84088848   0.94964588
H   -0.57593387  -1.42221088   1.74414254
O    1.25820086  -0.96720906  -1.64461586
H    0.76261871  -1.76371945  -1.88626187
C    1.75151879  -0.38747977  -2.84173120
H    2.30707712   0.50832756  -2.55126714
H    0.94723294  -0.08239323  -3.52935305
H    2.43904942  -1.05430382  -3.38526101
O    1.52151760   1.21969893   0.81478791
H    1.75961097   0.92233684   1.70546776
C    2.54291884   2.09607891   0.36619967
H    2.25887785   2.42152645  -0.63823540
H    3.52629274   1.60471451   0.30051753
H    2.64345489   2.99141577   0.99947824
O   -1.92567862  -0.59786825  -1.80433468
H   -1.78989407  -1.54479647  -1.95701986
C   -3.31688352  -0.38595094  -1.62496424
H   -3.45199999   0.68552436  -1.45417368
H   -3.72005094  -0.92416193  -0.75286202
H   -3.90761083  -0.66762307  -2.51067265
O   -0.41684236   2.54023713  -1.61516388
H   -0.31769154   3.45561712  -1.31404618
C   -0.96964359   2.57424065  -2.92122220
H   -1.07461120   1.53521097  -3.24508070
H   -0.32099236   3.09328047  -3.64415136
H   -1.96582944   3.04286025  -2.94927159
O   -1.71733072   1.12217256   1.35529331
H   -1.53466168   0.71206448   2.21370269
C   -2.71390892   2.11196123   1.55450187
H   -2.90759217   2.56378343   0.57786033
H   -2.38988216   2.90945413   2.24137090
H   -3.66035084   1.69284072   1.93048463
Na  -0.33875349   0.48628295  -0.44276401
