46
Energy:   -672.28986124
O    3.36807408  -1.50626403  -0.97259553
H    3.35596428  -1.28883755  -0.04049525
H    4.29742897  -1.57840767  -1.19014242
O    0.26075967  -1.50323261   0.95142917
H   -0.55495779  -1.80583453   1.35051433
H    0.43845054  -2.13820901   0.25755399
O    1.10384449  -3.11078063  -1.06254244
H    1.25158670  -4.01930947  -1.32518182
H    1.95714235  -2.68943641  -1.16541931
O    2.83066994  -0.88707155   1.65770708
H    3.16587032  -1.31853165   2.44365538
H    1.93920058  -1.22217133   1.56167395
O   -2.31615169  -1.72782734   1.93124372
H   -2.83111357  -2.13755726   2.62634623
H   -2.22282174  -0.81607602   2.20734314
O    1.28576856   1.48185391   1.48159537
H    1.99973754   0.84733420   1.64301500
C    1.86618463   2.77447281   1.41240474
H    1.04823134   3.47678368   1.23020417
H    2.58992748   2.87207059   0.58811820
H    2.36518560   3.06726444   2.34944712
O    1.26876060   0.26292415  -1.64535341
H    2.06738447  -0.27696536  -1.54973696
C    1.01705608   0.41715699  -3.03293794
H    0.11438482   1.02760195  -3.12252999
H    0.83208714  -0.54234684  -3.54079248
H    1.83389647   0.93649263  -3.55814229
O   -2.24513906  -0.66133621  -0.71040783
H   -2.58137081  -1.21821783   0.00740437
C   -2.25308423  -1.43798952  -1.89753894
H   -1.87149612  -0.79559177  -2.69578755
H   -3.26377042  -1.77100164  -2.18107678
H   -1.60146702  -2.32327494  -1.83089001
O   -0.99459355   2.72080252  -0.94776455
H   -0.50107665   3.48544405  -1.27970983
C   -2.30701827   2.79073641  -1.48179112
H   -2.84908131   1.92224154  -1.09790374
H   -2.32155077   2.74330334  -2.58193486
H   -2.84691031   3.69710789  -1.16590401
O   -1.52780732   0.95606110   2.14124498
H   -0.75864839   1.34854409   2.58030638
C   -2.59569822   1.88558268   2.23142504
H   -3.45382697   1.42762611   1.73204940
H   -2.37430472   2.83807303   1.72494269
H   -2.88274666   2.10385477   3.27197193
Na  -0.38886300   0.62576747  -0.02984665
