46
Energy:   -675.41139293
O   -0.16837392  -2.21644032   2.96473748
H    0.05346091  -2.81751842   2.25359314
H   -0.12757269  -2.75454854   3.75531110
O    1.55993407  -0.37640469   1.84710367
H    1.08079808  -0.98392507   2.41064562
H    2.13882573  -0.93551345   1.32892060
O    2.75112293  -1.89360455  -0.14256102
H    3.67587199  -2.02078399  -0.35444877
H    2.48168073  -1.14948094  -0.68099653
O    0.71303721  -3.56988822   0.69818683
H    1.50075001  -3.12683038   0.38284552
H    0.85619662  -4.49263909   0.48778704
O    1.78995912   0.47562387  -1.23505401
H    1.41115314   0.69316694  -2.08676575
H    2.07954795   1.31584656  -0.87953186
O    0.45493028   1.22288425  -3.59640750
H    0.74799527   1.70924121  -4.38125977
C   -0.10373580  -0.00522403  -4.03478638
H   -0.42863363  -0.54031155  -3.13834456
H    0.62462554  -0.63844928  -4.56515688
H   -0.98107945   0.13493497  -4.68547903
O   -1.49064320   0.22697224   2.20032910
H   -1.28237192  -0.61191591   2.63772254
C   -2.50749718   0.86549205   2.95586480
H   -2.72995201   1.80857967   2.44932281
H   -2.19077249   1.09709872   3.98485516
H   -3.43635046   0.27572744   3.00262613
O   -0.72809023  -1.45171511  -0.47198388
H   -0.35653578  -2.30264234  -0.19577127
C   -2.12219397  -1.63234972  -0.66271844
H   -2.52476947  -0.66445010  -0.97350536
H   -2.64143901  -1.93796230   0.25910739
H   -2.35197806  -2.36657252  -1.45068639
O   -1.13568216   1.82431650  -1.28895181
H   -0.77994200   1.74313613  -2.18632685
C   -2.35887045   2.53786562  -1.37375643
H   -2.74583047   2.62025584  -0.35446305
H   -3.11331394   2.01745079  -1.98429779
H   -2.23044228   3.55595180  -1.77348645
O    1.49105487   2.49378566   0.78813886
H    2.02897205   2.43806553   1.59185749
C    1.14066264   3.85529278   0.59825093
H    0.53512614   3.89997454  -0.31104236
H    2.01874987   4.50450274   0.45589022
H    0.54046012   4.25967881   1.42831490
Na  -0.02254381   0.63623538   0.40485334
