30
Energy:   -130.18298253
O   -1.05007368   2.43482919   0.76362955
H   -0.73551207   1.65517801   1.24489694
C   -2.05950439   3.04764676   1.54978351
H   -2.40265459   3.92387556   0.99304637
H   -1.68759261   3.38915132   2.52847324
H   -2.92602344   2.38910880   1.71786040
O   -1.46607252  -1.75625032   0.14859766
H   -0.75741579  -1.91757173  -0.49187429
C   -2.41774518  -0.90385566  -0.46806778
H   -3.20881199  -0.73242984   0.26699119
H   -2.87504867  -1.35413344  -1.36299838
H   -1.99461804   0.07345943  -0.74841752
O    2.28736900   0.50533582  -1.70749039
H    3.07125510   1.00521903  -1.97963491
C    1.26971649   1.44078452  -1.38834644
H    0.39419468   0.86089370  -1.08392337
H    0.98267604   2.06663435  -2.24782134
H    1.54757794   2.10316031  -0.55358381
O   -0.25624148   0.02119998   1.97700643
H   -0.73448060  -0.66853831   1.49330021
C    1.11207511  -0.35113818   2.01710347
H    1.63604340   0.43649062   2.56535827
H    1.56182763  -0.42647675   1.01469433
H    1.27841800  -1.30318477   2.54503780
O    0.78459917  -1.89059621  -1.52424155
H    1.32448006  -1.09636403  -1.65131295
C    1.66518259  -2.99857353  -1.42681012
H    1.04065842  -3.88460397  -1.28396469
H    2.35110974  -2.92242690  -0.56862426
H    2.26461166  -3.14682377  -2.33866755
