30
Energy:   -125.63228117
O   -1.55331110  -0.24673161   1.13489536
H   -1.20536736   0.47038197   1.68544649
C   -1.85183065  -1.33922766   1.98922096
H   -2.24253438  -2.13797208   1.35294810
H   -2.61941977  -1.09454533   2.74003041
H   -0.96319942  -1.72423730   2.51351042
O    0.62388976  -0.72537201  -0.63549449
H   -0.16677582  -0.60548327  -0.08877893
C    0.45078089  -1.91579425  -1.38746655
H    1.35020671  -2.03560939  -1.99751796
H   -0.41688015  -1.86900179  -2.06404034
H    0.34794492  -2.80915878  -0.75177643
O   -0.34203099   1.79854547   2.64656758
H   -0.45150376   2.71201070   2.94991600
C    1.02529992   1.61587489   2.31555183
H    1.13088875   0.58196766   1.97588724
H    1.69473475   1.76202633   3.17768529
H    1.35785157   2.27840415   1.50115530
O   -2.94331648  -0.87191665  -1.26788381
H   -2.56735913  -0.64086155  -0.40550750
C   -2.74944495   0.23580474  -2.13269645
H   -3.17863610  -0.04142606  -3.09935215
H   -1.68530627   0.47352508  -2.28721260
H   -3.26100024   1.14511676  -1.78021925
O    2.94662677   0.84444386  -0.33215909
H    2.17158354   0.27735298  -0.45919927
C    3.62222243   0.93508536  -1.57630072
H    4.49236844   1.57725808  -1.41522522
H    3.00268049   1.39099962  -2.36439164
H    3.98083765  -0.04145990  -1.93759259
