30
Energy:   -129.77980136
O    2.26378287  -1.67769735  -0.71952124
H    3.18458657  -1.97007468  -0.79065010
C    2.23149775  -0.28635301  -0.99457100
H    1.18721698   0.02642772  -0.91012523
H    2.57874943  -0.04576249  -2.01158123
H    2.82345095   0.30285861  -0.27679778
O    1.75243337   1.56517287   1.91942760
H    0.90826112   1.57982283   1.44447301
C    1.78523441   0.38272992   2.70255374
H    2.74256407   0.38220737   3.23076283
H    1.73124802  -0.53275757   2.09284443
H    0.98079465   0.34780694   3.45384222
O   -0.49559274  -2.29052749  -0.54972667
H    0.46230984  -2.16256413  -0.61659453
C   -0.84329749  -2.22817549   0.82422654
H   -1.92537527  -2.37420836   0.88138677
H   -0.60581621  -1.25380399   1.27917725
H   -0.36029355  -3.01743529   1.42134754
O   -0.70125133   1.51612133   0.51607767
H   -1.15729657   1.05900692  -0.20606666
C   -1.24601086   2.82258746   0.61050799
H   -0.72117672   3.32343028   1.42854882
H   -2.32164595   2.81875914   0.84666860
H   -1.09353247   3.41414598  -0.30578136
O   -1.84876920  -0.03468442  -1.53067514
H   -1.48168647  -0.88860505  -1.25774090
C   -2.34922382  -0.18314708  -2.84978006
H   -2.75889282   0.78771074  -3.14148471
H   -3.15705650  -0.92860145  -2.91672386
H   -1.56521207  -0.45439025  -3.57402453
