30
Energy:   -145.90275788
O    1.06942494  -0.79251042   1.91403413
H    1.04503087  -1.36514531   1.13306199
C    0.29812977  -1.41539888   2.92874961
H    0.33630782  -0.75722138   3.80100531
H    0.69847521  -2.39774413   3.22455135
H   -0.75775926  -1.54228132   2.64278364
O    0.18176293   1.82116558   1.39705651
H    0.51655309   0.94150092   1.62624837
C    0.84113234   2.76273076   2.22845340
H    0.45231070   3.74795641   1.95709874
H    1.93195662   2.77280314   2.07752868
H    0.63992296   2.59925682   3.29876569
O    0.77521903  -2.28947096  -0.44640701
H    0.12411246  -1.89788764  -1.04736126
C    1.98857715  -2.44069584  -1.16573091
H    2.71078618  -2.88291734  -0.47411001
H    2.39681274  -1.48034998  -1.51766394
H    1.88860056  -3.11393373  -2.03148651
O   -1.07491044  -0.90504723  -2.04360944
H   -1.16483421   0.02079171  -1.77312978
C   -2.36972317  -1.48457939  -2.03193694
H   -2.25006912  -2.52712226  -2.33897516
H   -3.05993279  -0.99766485  -2.73855015
H   -2.83136144  -1.47397878  -1.03215943
O   -1.22581860   1.71076416  -1.03575690
H   -0.81346961   1.82707886  -0.16692868
C   -0.68628041   2.69487801  -1.90348512
H   -1.16146682   2.54951165  -2.87742130
H    0.40227826   2.59397992  -2.03628921
H   -0.90176777   3.72153150  -1.56833567
