
                                 *****************
                                 * O   R   C   A *
                                 *****************

           --- An Ab Initio, DFT and Semiempirical electronic structure package ---

                  #######################################################
                  #                        -***-                        #
                  #          Department of theory and spectroscopy      #
                  #               Directorship: Frank Neese             #
                  #        Max Planck Institute fuer Kohlenforschung    #
                  #                Kaiser Wilhelm Platz 1               #
                  #                 D-45470 Muelheim/Ruhr               #
                  #                      Germany                        #
                  #                                                     #
                  #                  All rights reserved                #
                  #                        -***-                        #
                  #######################################################


                         Program Version 4.2.0 -  RELEASE  -


 With contributions from (in alphabetic order):
   Daniel Aravena         : Magnetic Suceptibility
   Michael Atanasov       : Ab Initio Ligand Field Theory (pilot matlab implementation)
   Alexander A. Auer      : GIAO ZORA, VPT2
   Ute Becker             : Parallelization
   Giovanni Bistoni       : ED, misc. LED, open-shell LED, HFLED
   Martin Brehm           : Molecular dynamics
   Dmytro Bykov           : SCF Hessian
   Vijay G. Chilkuri      : MRCI spin determinant printing, contributions to CSF-ICE
   Dipayan Datta          : RHF DLPNO-CCSD density
   Achintya Kumar Dutta   : EOM-CC, STEOM-CC
   Dmitry Ganyushin       : Spin-Orbit,Spin-Spin,Magnetic field MRCI
   Miquel Garcia          : C-PCM Hessian, Gaussian charge scheme
   Yang Guo               : DLPNO-NEVPT2, CIM, IAO-localization
   Andreas Hansen         : Spin unrestricted coupled pair/coupled cluster methods
   Benjamin Helmich-Paris : CASSCF linear response (MC-RPA)
   Lee Huntington         : MR-EOM, pCC
   Robert Izsak           : Overlap fitted RIJCOSX, COSX-SCS-MP3, EOM
   Christian Kollmar      : KDIIS, OOCD, Brueckner-CCSD(T), CCSD density
   Simone Kossmann        : Meta GGA functionals, TD-DFT gradient, OOMP2, MP2 Hessian
   Martin Krupicka        : AUTO-CI
   Lucas Lang             : DCDCAS
   Dagmar Lenk            : GEPOL surface, SMD
   Dimitrios Liakos       : Extrapolation schemes; Compound Job, initial MDCI parallelization
   Dimitrios Manganas     : Further ROCIS development; embedding schemes
   Dimitrios Pantazis     : SARC Basis sets
   Taras Petrenko         : DFT Hessian,TD-DFT gradient, ASA, ECA, R-Raman, ABS, FL, XAS/XES, NRVS
   Peter Pinski           : DLPNO-MP2, DLPNO-MP2 Gradient
   Christoph Reimann      : Effective Core Potentials
   Marius Retegan         : Local ZFS, SOC
   Christoph Riplinger    : Optimizer, TS searches, QM/MM, DLPNO-CCSD(T), (RO)-DLPNO pert. Triples
   Tobias Risthaus        : Range-separated hybrids, TD-DFT gradient, RPA, STAB
   Michael Roemelt        : Original ROCIS implementation
   Masaaki Saitow         : Open-shell DLPNO-CCSD energy and density
   Barbara Sandhoefer     : DKH picture change effects
   Avijit Sen             : IP-ROCIS
   Kantharuban Sivalingam : CASSCF convergence, NEVPT2, FIC-MRCI
   Bernardo de Souza      : ESD, SOC TD-DFT
   Georgi Stoychev        : AutoAux, RI-MP2 NMR
   Willem Van den Heuvel  : Paramagnetic NMR
   Boris Wezisla          : Elementary symmetry handling
   Frank Wennmohs         : Technical directorship


 We gratefully acknowledge several colleagues who have allowed us to
 interface, adapt or use parts of their codes:
   Stefan Grimme, W. Hujo, H. Kruse,             : VdW corrections, initial TS optimization,
                  C. Bannwarth                     DFT functionals, gCP, sTDA/sTD-DF
   Ed Valeev, F. Pavosevic, A. Kumar             : LibInt (2-el integral package), F12 methods
   Garnet Chan, S. Sharma, J. Yang, R. Olivares  : DMRG
   Ulf Ekstrom                                   : XCFun DFT Library
   Mihaly Kallay                                 : mrcc  (arbitrary order and MRCC methods)
   Andreas Klamt, Michael Diedenhofen            : otool_cosmo (COSMO solvation model)
   Jiri Pittner, Ondrej Demel                    : Mk-CCSD
   Frank Weinhold                                : gennbo (NPA and NBO analysis)
   Christopher J. Cramer and Donald G. Truhlar   : smd solvation model
   Lars Goerigk                                  : TD-DFT with DH, B97 family of functionals
   V. Asgeirsson, H. Jonsson                     : NEB implementation
   FAccTs GmbH                                   : IRC, NEB, NEB-TS, Multilevel, MM, QM/MM, CI optimization
   S Lehtola, MJT Oliveira, MAL Marques          : LibXC Library


 Your calculation uses the libint2 library for the computation of 2-el integrals
 For citations please refer to: http://libint.valeyev.net

 Your ORCA version has been built with support for libXC version: 4.2.3
 For citations please refer to: https://tddft.org/programs/libxc/

 This ORCA versions uses:
   CBLAS   interface :  Fast vector & matrix operations
   LAPACKE interface :  Fast linear algebra routines
   SCALAPACK package :  Parallel linear algebra routines


----- Orbital basis set information -----
Your calculation utilizes the basis: def2-TZVP
   F. Weigend and R. Ahlrichs, Phys. Chem. Chem. Phys. 7, 3297 (2005).

================================================================================
                                        WARNINGS
                       Please study these warnings very carefully!
================================================================================


WARNING: The frozen-core approximation for MP2-gradient calculations is turned on by default.

INFO   : the flag for use of LIBINT has been found!

================================================================================
                                       INPUT FILE
================================================================================
NAME = 12h2o.su.etal.mol0,1,3,5,7,8,9-orca.engrad-mp2.def2tzvp.frozencore.inp
|  1> # 12h2o.su.etal.mol0,1,3,5,7,8,9
|  2> ! MP2 def2-TZVP EnGrad TightSCF
|  3> 
|  4> %pal
|  5>     nprocs 6
|  6> end
|  7> 
|  8> %maxcore 8000
|  9> 
| 10> %scf
| 11>     ConvForced true
| 12> end
| 13> 
| 14> *xyz 0 1
| 15> O   1.794470000   0.923410000   2.768350000
| 16> H   2.338250000   1.359750000   3.430940000
| 17> H   0.879480000   1.303000000   2.865760000
| 18> O  -1.794470000  -0.923410000   2.768350000
| 19> H  -2.338250000  -1.359750000   3.430940000
| 20> H  -0.879480000  -1.303000000   2.865760000
| 21> O  -1.752130000  -0.741530000  -2.896280000
| 22> H  -2.036450000  -0.920500000  -1.984040000
| 23> H  -0.921210000  -1.242140000  -2.984230000
| 24> O   0.885520000  -1.737840000   0.052730000
| 25> H   1.284090000  -0.839590000   0.017130000
| 26> H   1.032320000  -2.090180000  -0.841890000
| 27> O  -1.737840000  -0.885520000  -0.052730000
| 28> H  -2.090180000  -1.032320000   0.841890000
| 29> H  -0.839590000  -1.284090000  -0.017130000
| 30> O   1.752130000   0.741530000  -2.896280000
| 31> H   2.036450000   0.920500000  -1.984040000
| 32> H   0.921210000   1.242140000  -2.984230000
| 33> O   0.741530000  -1.752130000   2.896280000
| 34> H   0.920500000  -2.036450000   1.984040000
| 35> H   1.242140000  -0.921210000   2.984230000
| 36> *
| 37> 
| 38>                          ****END OF INPUT****
================================================================================

                     *******************************
                     * Energy+Gradient Calculation *
                     *******************************

---------------------------------
CARTESIAN COORDINATES (ANGSTROEM)
---------------------------------
  O      1.794470    0.923410    2.768350
  H      2.338250    1.359750    3.430940
  H      0.879480    1.303000    2.865760
  O     -1.794470   -0.923410    2.768350
  H     -2.338250   -1.359750    3.430940
  H     -0.879480   -1.303000    2.865760
  O     -1.752130   -0.741530   -2.896280
  H     -2.036450   -0.920500   -1.984040
  H     -0.921210   -1.242140   -2.984230
  O      0.885520   -1.737840    0.052730
  H      1.284090   -0.839590    0.017130
  H      1.032320   -2.090180   -0.841890
  O     -1.737840   -0.885520   -0.052730
  H     -2.090180   -1.032320    0.841890
  H     -0.839590   -1.284090   -0.017130
  O      1.752130    0.741530   -2.896280
  H      2.036450    0.920500   -1.984040
  H      0.921210    1.242140   -2.984230
  O      0.741530   -1.752130    2.896280
  H      0.920500   -2.036450    1.984040
  H      1.242140   -0.921210    2.984230

----------------------------
CARTESIAN COORDINATES (A.U.)
----------------------------
  NO LB      ZA    FRAG     MASS         X           Y           Z
   0 O     8.0000    0    15.999    3.391057    1.744992    5.231423
   1 H     1.0000    0     1.008    4.418652    2.569555    6.483537
   2 H     1.0000    0     1.008    1.661976    2.462313    5.415502
   3 O     8.0000    0    15.999   -3.391057   -1.744992    5.231423
   4 H     1.0000    0     1.008   -4.418652   -2.569555    6.483537
   5 H     1.0000    0     1.008   -1.661976   -2.462313    5.415502
   6 O     8.0000    0    15.999   -3.311046   -1.401289   -5.473176
   7 H     1.0000    0     1.008   -3.848333   -1.739493   -3.749292
   8 H     1.0000    0     1.008   -1.740835   -2.347304   -5.639377
   9 O     8.0000    0    15.999    1.673390   -3.284042    0.099645
  10 H     1.0000    0     1.008    2.426578   -1.586595    0.032371
  11 H     1.0000    0     1.008    1.950802   -3.949868   -1.590942
  12 O     8.0000    0    15.999   -3.284042   -1.673390   -0.099645
  13 H     1.0000    0     1.008   -3.949868   -1.950802    1.590942
  14 H     1.0000    0     1.008   -1.586595   -2.426578   -0.032371
  15 O     8.0000    0    15.999    3.311046    1.401289   -5.473176
  16 H     1.0000    0     1.008    3.848333    1.739493   -3.749292
  17 H     1.0000    0     1.008    1.740835    2.347304   -5.639377
  18 O     8.0000    0    15.999    1.401289   -3.311046    5.473176
  19 H     1.0000    0     1.008    1.739493   -3.848333    3.749292
  20 H     1.0000    0     1.008    2.347304   -1.740835    5.639377

--------------------------------
INTERNAL COORDINATES (ANGSTROEM)
--------------------------------
 O      0   0   0     0.000000000000     0.00000000     0.00000000
 H      1   0   0     0.961828878803     0.00000000     0.00000000
 H      1   2   0     0.995381322057   106.21731035     0.00000000
 O      3   1   2     3.480861789658   117.35405144   223.81249033
 H      4   3   1     0.961828878803   134.84484566    98.22461471
 H      4   3   1     0.995381322057    62.29205096    12.66575463
 O      4   3   1     5.667707300743    90.09768939   276.02472436
 H      7   4   3     0.972136791249    18.92045113   191.47242104
 H      7   4   3     0.974050112161    94.59568686    71.02022155
 O      6   4   3     3.349245975813   116.85538783   276.41377787
 H     10   6   4     0.983350632989    97.20424340    87.67157074
 H     10   6   4     0.972645187106   154.03893681   304.15813038
 O      8   7   4     1.954571525578   151.55104644   356.10627670
 H     13   8   7     0.972645187106   148.29772527   173.62852352
 H     13   8   7     0.983350632989    99.67573411   310.71905253
 O      9   7   4     3.330079372477   112.10393238   271.95050236
 H     16   9   7     0.972136791249   111.66865871    85.41731375
 H     16   9   7     0.974050112161    67.60081190   348.80737033
 O      6   4   3     1.682356278379   171.61043709   328.33166207
 H     19   6   4     0.972136791249   103.79460456   289.35412162
 H     19   6   4     0.974050112161   105.61118924    38.30604821

---------------------------
INTERNAL COORDINATES (A.U.)
---------------------------
 O      0   0   0     0.000000000000     0.00000000     0.00000000
 H      1   0   0     1.817593168635     0.00000000     0.00000000
 H      1   2   0     1.880998097508   106.21731035     0.00000000
 O      3   1   2     6.577875492484   117.35405144   223.81249033
 H      4   3   1     1.817593168635   134.84484566    98.22461471
 H      4   3   1     1.880998097508    62.29205096    12.66575463
 O      4   3   1    10.710414605631    90.09768939   276.02472436
 H      7   4   3     1.837072300170    18.92045113   191.47242104
 H      7   4   3     1.840687952699    94.59568686    71.02022155
 O      6   4   3     6.329157649425   116.85538783   276.41377787
 H     10   6   4     1.858263389967    97.20424340    87.67157074
 H     10   6   4     1.838033029106   154.03893681   304.15813038
 O      8   7   4     3.693604892503   151.55104644   356.10627670
 H     13   8   7     1.838033029106   148.29772527   173.62852352
 H     13   8   7     1.858263389967    99.67573411   310.71905253
 O      9   7   4     6.292938018203   112.10393238   271.95050236
 H     16   9   7     1.837072300170   111.66865871    85.41731375
 H     16   9   7     1.840687952699    67.60081190   348.80737033
 O      6   4   3     3.179192625819   171.61043709   328.33166207
 H     19   6   4     1.837072300170   103.79460456   289.35412162
 H     19   6   4     1.840687952699   105.61118924    38.30604821

---------------------
BASIS SET INFORMATION
---------------------
There are 2 groups of distinct atoms

 Group   1 Type O   : 11s6p2d1f contracted to 5s3p2d1f pattern {62111/411/11/1}
 Group   2 Type H   : 5s1p contracted to 3s1p pattern {311/1}

Atom   0O    basis set group =>   1
Atom   1H    basis set group =>   2
Atom   2H    basis set group =>   2
Atom   3O    basis set group =>   1
Atom   4H    basis set group =>   2
Atom   5H    basis set group =>   2
Atom   6O    basis set group =>   1
Atom   7H    basis set group =>   2
Atom   8H    basis set group =>   2
Atom   9O    basis set group =>   1
Atom  10H    basis set group =>   2
Atom  11H    basis set group =>   2
Atom  12O    basis set group =>   1
Atom  13H    basis set group =>   2
Atom  14H    basis set group =>   2
Atom  15O    basis set group =>   1
Atom  16H    basis set group =>   2
Atom  17H    basis set group =>   2
Atom  18O    basis set group =>   1
Atom  19H    basis set group =>   2
Atom  20H    basis set group =>   2


           ************************************************************
           *        Program running with 6 parallel MPI-processes     *
           *              working on a common directory               *
           ************************************************************
------------------------------------------------------------------------------
                           ORCA GTO INTEGRAL CALCULATION
------------------------------------------------------------------------------

                         BASIS SET STATISTICS AND STARTUP INFO

 # of primitive gaussian shells          ...  224
 # of primitive gaussian functions       ...  434
 # of contracted shells                  ...  133
 # of contracted basis functions         ...  301
 Highest angular momentum                ...    3
 Maximum contraction depth               ...    6
 Integral package used                   ... LIBINT
 Integral threshhold            Thresh   ...  2.500e-11
 Primitive cut-off              TCut     ...  2.500e-12


------------------------------ INTEGRAL EVALUATION ----------------------------


 * One electron integrals 
 Pre-screening matrix                    ... done
 Shell pair data                         ... done (   0.002 sec)



           ************************************************************
           *        Program running with 6 parallel MPI-processes     *
           *              working on a common directory               *
           ************************************************************
-------------------------------------------------------------------------------
                                 ORCA SCF
-------------------------------------------------------------------------------

------------
SCF SETTINGS
------------
Hamiltonian:
 Ab initio Hamiltonian  Method          .... Hartree-Fock(GTOs)


General Settings:
 Integral files         IntName         .... 12h2o.su.etal.mol0,1,3,5,7,8,9-orca.engrad-mp2.def2tzvp.frozencore
 Hartree-Fock type      HFTyp           .... RHF
 Total Charge           Charge          ....    0
 Multiplicity           Mult            ....    1
 Number of Electrons    NEL             ....   70
 Basis Dimension        Dim             ....  301
 Nuclear Repulsion      ENuc            ....    345.3578797544 Eh

Convergence Acceleration:
 DIIS                   CNVDIIS         .... on
   Start iteration      DIISMaxIt       ....    12
   Startup error        DIISStart       ....  0.200000
   # of expansion vecs  DIISMaxEq       ....     5
   Bias factor          DIISBfac        ....   1.050
   Max. coefficient     DIISMaxC        ....  10.000
 Newton-Raphson         CNVNR           .... off
 SOSCF                  CNVSOSCF        .... on
   Start iteration      SOSCFMaxIt      ....   150
   Startup grad/error   SOSCFStart      ....  0.003300
 Level Shifting         CNVShift        .... on
   Level shift para.    LevelShift      ....    0.2500
   Turn off err/grad.   ShiftErr        ....    0.0010
 Zerner damping         CNVZerner       .... off
 Static damping         CNVDamp         .... on
   Fraction old density DampFac         ....    0.7000
   Max. Damping (<1)    DampMax         ....    0.9800
   Min. Damping (>=0)   DampMin         ....    0.0000
   Turn off err/grad.   DampErr         ....    0.1000
 Fernandez-Rico         CNVRico         .... off

SCF Procedure:
 Maximum # iterations   MaxIter         ....   125
 SCF integral mode      SCFMode         .... Direct
   Integral package                     .... LIBINT
 Reset frequency        DirectResetFreq ....    20
 Integral Threshold     Thresh          ....  2.500e-11 Eh
 Primitive CutOff       TCut            ....  2.500e-12 Eh

Convergence Tolerance:
 Convergence Check Mode ConvCheckMode   .... Total+1el-Energy
 Convergence forced     ConvForced      .... 1
 Energy Change          TolE            ....  1.000e-08 Eh
 1-El. energy change                    ....  1.000e-05 Eh
 Orbital Gradient       TolG            ....  1.000e-05
 Orbital Rotation angle TolX            ....  1.000e-05
 DIIS Error             TolErr          ....  5.000e-07


Diagonalization of the overlap matrix:
Smallest eigenvalue                        ... 3.977e-03
Time for diagonalization                   ...    0.031 sec
Threshold for overlap eigenvalues          ... 1.000e-08
Number of eigenvalues below threshold      ... 0
Time for construction of square roots      ...    0.102 sec
Total time needed                          ...    0.134 sec

-------------------
DFT GRID GENERATION
-------------------

General Integration Accuracy     IntAcc      ...  4.340
Radial Grid Type                 RadialGrid  ... Gauss-Chebyshev
Angular Grid (max. acc.)         AngularGrid ... Lebedev-110
Angular grid pruning method      GridPruning ... 3 (G Style)
Weight generation scheme         WeightScheme... Becke
Basis function cutoff            BFCut       ...    1.0000e-11
Integration weight cutoff        WCut        ...    1.0000e-14
Grids for H and He will be reduced by one unit

# of grid points (after initial pruning)     ...  23128 (   0.0 sec)
# of grid points (after weights+screening)   ...  21753 (   0.0 sec)
nearest neighbour list constructed           ...    0.0 sec
Grid point re-assignment to atoms done       ...    0.0 sec
Grid point division into batches done        ...    0.0 sec
Reduced shell lists constructed in    0.1 sec

Total number of grid points                  ...    21753
Total number of batches                      ...      352
Average number of points per batch           ...       61
Average number of grid points per atom       ...     1036
Average number of shells per batch           ...    58.80 (44.21%)
Average number of basis functions per batch  ...   115.10 (38.24%)
Average number of large shells per batch     ...    39.25 (66.75%)
Average number of large basis fcns per batch ...    75.05 (65.20%)
Maximum spatial batch extension              ...  14.53, 13.24, 17.28 au
Average spatial batch extension              ...   0.65,  0.69,  0.62 au

Time for grid setup =    0.151 sec

------------------------------
INITIAL GUESS: MODEL POTENTIAL
------------------------------
Loading Hartree-Fock densities                     ... done
Calculating cut-offs                               ... done
Setting up the integral package                    ... done
Initializing the effective Hamiltonian             ... done
Starting the Coulomb interaction                   ... done (   0.0 sec)
Reading the grid                                   ... done
Mapping shells                                     ... done
Starting the XC term evaluation                    ... done (   0.1 sec)
Transforming the Hamiltonian                       ... done (   0.0 sec)
Diagonalizing the Hamiltonian                      ... done (   0.0 sec)
Back transforming the eigenvectors                 ... done (   0.0 sec)
Now organizing SCF variables                       ... done
                      ------------------
                      INITIAL GUESS DONE (   0.5 sec)
                      ------------------
--------------
SCF ITERATIONS
--------------
ITER       Energy         Delta-E        Max-DP      RMS-DP      [F,P]     Damp
               ***  Starting incremental Fock matrix formation  ***
  0   -531.8102141089   0.000000000000 0.04355808  0.00089960  0.3454626 0.7000
  1   -532.0556763031  -0.245462194160 0.02884121  0.00062259  0.2169523 0.7000
                               ***Turning on DIIS***
  2   -532.1854313476  -0.129755044480 0.01654981  0.00034698  0.1637735 0.7000
  3   -533.3440279931  -1.158596645547 0.00735173  0.00015816  0.1218246 0.7000
  4   -533.1069939593   0.237034033816 0.01641042  0.00036657  0.0861386 0.0000
  5   -532.4824641922   0.624529767111 0.00237922  0.00005917  0.0058030 0.0000
                      *** Initiating the SOSCF procedure ***
                           *** Shutting down DIIS ***
                      *** Re-Reading the Fockian *** 
                      *** Removing any level shift *** 
ITER      Energy       Delta-E        Grad      Rot      Max-DP    RMS-DP
  6   -532.44598534   0.0364788571  0.000809  0.000809  0.001426  0.000036
               *** Restarting incremental Fock matrix formation ***
  7   -532.43575437   0.0102309625  0.000330  0.000452  0.000663  0.000016
  8   -532.43576497  -0.0000105944  0.000152  0.000348  0.000505  0.000013
  9   -532.43576750  -0.0000025308  0.000084  0.000047  0.000116  0.000002
 10   -532.43576771  -0.0000002119  0.000010  0.000007  0.000020  0.000000
                  ***Gradient check signals convergence***
              ***Rediagonalizing the Fockian in SOSCF/NRSCF***

               *****************************************************
               *                     SUCCESS                       *
               *           SCF CONVERGED AFTER  11 CYCLES          *
               *****************************************************


----------------
TOTAL SCF ENERGY
----------------

Total Energy       :         -532.43576771 Eh          -14488.31381 eV

Components:
Nuclear Repulsion  :          345.35787975 Eh            9397.66568 eV
Electronic Energy  :         -877.79364747 Eh          -23885.97949 eV
One Electron Energy:        -1423.29813474 Eh          -38729.91124 eV
Two Electron Energy:          545.50448728 Eh           14843.93175 eV

Virial components:
Potential Energy   :        -1064.15249716 Eh          -28957.06160 eV
Kinetic Energy     :          531.71672945 Eh           14468.74779 eV
Virial Ratio       :            2.00135230


---------------
SCF CONVERGENCE
---------------

  Last Energy change         ...   -4.5102e-09  Tolerance :   1.0000e-08
  Last MAX-Density change    ...    6.6874e-06  Tolerance :   1.0000e-07
  Last RMS-Density change    ...    1.4129e-07  Tolerance :   5.0000e-09
  Last Orbital Gradient      ...    1.8322e-06  Tolerance :   1.0000e-05
  Last Orbital Rotation      ...    2.6972e-06  Tolerance :   1.0000e-05

             **** THE GBW FILE WAS UPDATED (12h2o.su.etal.mol0,1,3,5,7,8,9-orca.engrad-mp2.def2tzvp.frozencore.gbw) ****
             **** DENSITY FILE WAS UPDATED (12h2o.su.etal.mol0,1,3,5,7,8,9-orca.engrad-mp2.def2tzvp.frozencore.scfp) ****
             **** ENERGY FILE WAS UPDATED (12h2o.su.etal.mol0,1,3,5,7,8,9-orca.engrad-mp2.def2tzvp.frozencore.en.tmp) ****
             **** THE GBW FILE WAS UPDATED (12h2o.su.etal.mol0,1,3,5,7,8,9-orca.engrad-mp2.def2tzvp.frozencore.gbw) ****
             **** DENSITY FILE WAS UPDATED (12h2o.su.etal.mol0,1,3,5,7,8,9-orca.engrad-mp2.def2tzvp.frozencore.scfp) ****
----------------
ORBITAL ENERGIES
----------------

  NO   OCC          E(Eh)            E(eV) 
   0   2.0000     -20.623500      -561.1940 
   1   2.0000     -20.610173      -560.8313 
   2   2.0000     -20.574677      -559.8654 
   3   2.0000     -20.565132      -559.6057 
   4   2.0000     -20.540938      -558.9474 
   5   2.0000     -20.523897      -558.4836 
   6   2.0000     -20.522478      -558.4450 
   7   2.0000      -1.406575       -38.2748 
   8   2.0000      -1.388195       -37.7747 
   9   2.0000      -1.357481       -36.9389 
  10   2.0000      -1.353592       -36.8331 
  11   2.0000      -1.325525       -36.0694 
  12   2.0000      -1.311916       -35.6991 
  13   2.0000      -1.301476       -35.4150 
  14   2.0000      -0.765438       -20.8286 
  15   2.0000      -0.755448       -20.5568 
  16   2.0000      -0.724209       -19.7067 
  17   2.0000      -0.716171       -19.4880 
  18   2.0000      -0.708136       -19.2694 
  19   2.0000      -0.693982       -18.8842 
  20   2.0000      -0.673198       -18.3187 
  21   2.0000      -0.651703       -17.7337 
  22   2.0000      -0.626327       -17.0432 
  23   2.0000      -0.597300       -16.2534 
  24   2.0000      -0.591495       -16.0954 
  25   2.0000      -0.591062       -16.0836 
  26   2.0000      -0.561227       -15.2718 
  27   2.0000      -0.551057       -14.9950 
  28   2.0000      -0.546465       -14.8701 
  29   2.0000      -0.527983       -14.3671 
  30   2.0000      -0.518680       -14.1140 
  31   2.0000      -0.506272       -13.7763 
  32   2.0000      -0.489169       -13.3110 
  33   2.0000      -0.474964       -12.9244 
  34   2.0000      -0.468848       -12.7580 
  35   0.0000       0.074123         2.0170 
  36   0.0000       0.104317         2.8386 
  37   0.0000       0.135071         3.6755 
  38   0.0000       0.151492         4.1223 
  39   0.0000       0.166630         4.5342 
  40   0.0000       0.181748         4.9456 
  41   0.0000       0.211343         5.7509 
  42   0.0000       0.219550         5.9743 
  43   0.0000       0.240849         6.5538 
  44   0.0000       0.252605         6.8737 
  45   0.0000       0.291862         7.9420 
  46   0.0000       0.312116         8.4931 
  47   0.0000       0.330885         9.0038 
  48   0.0000       0.352631         9.5956 
  49   0.0000       0.416337        11.3291 
  50   0.0000       0.472020        12.8443 
  51   0.0000       0.486249        13.2315 
  52   0.0000       0.489584        13.3223 
  53   0.0000       0.508834        13.8461 
  54   0.0000       0.517349        14.0778 
  55   0.0000       0.528745        14.3879 
  56   0.0000       0.540248        14.7009 
  57   0.0000       0.545586        14.8462 
  58   0.0000       0.553974        15.0744 
  59   0.0000       0.570405        15.5215 
  60   0.0000       0.582486        15.8502 
  61   0.0000       0.590555        16.0698 
  62   0.0000       0.593020        16.1369 
  63   0.0000       0.600306        16.3352 
  64   0.0000       0.616162        16.7666 
  65   0.0000       0.627121        17.0648 
  66   0.0000       0.635423        17.2907 
  67   0.0000       0.650020        17.6879 
  68   0.0000       0.663018        18.0416 
  69   0.0000       0.688227        18.7276 
  70   0.0000       0.692939        18.8558 
  71   0.0000       0.718956        19.5638 
  72   0.0000       0.729350        19.8466 
  73   0.0000       0.735606        20.0168 
  74   0.0000       0.757941        20.6246 
  75   0.0000       0.771502        20.9936 
  76   0.0000       0.775620        21.1057 
  77   0.0000       0.778248        21.1772 
  78   0.0000       0.791019        21.5247 
  79   0.0000       0.796351        21.6698 
  80   0.0000       0.832304        22.6481 
  81   0.0000       0.849416        23.1138 
  82   0.0000       0.851680        23.1754 
  83   0.0000       0.860363        23.4117 
  84   0.0000       0.916600        24.9420 
  85   0.0000       0.927057        25.2265 
  86   0.0000       0.954240        25.9662 
  87   0.0000       1.017283        27.6817 
  88   0.0000       1.032188        28.0873 
  89   0.0000       1.057419        28.7738 
  90   0.0000       1.113806        30.3082 
  91   0.0000       1.347268        36.6610 
  92   0.0000       1.351517        36.7767 
  93   0.0000       1.381324        37.5877 
  94   0.0000       1.395274        37.9673 
  95   0.0000       1.397642        38.0318 
  96   0.0000       1.411071        38.3972 
  97   0.0000       1.426820        38.8257 
  98   0.0000       1.437919        39.1278 
  99   0.0000       1.442808        39.2608 
 100   0.0000       1.451746        39.5040 
 101   0.0000       1.469459        39.9860 
 102   0.0000       1.502844        40.8945 
 103   0.0000       1.514325        41.2069 
 104   0.0000       1.520236        41.3677 
 105   0.0000       1.540499        41.9191 
 106   0.0000       1.563868        42.5550 
 107   0.0000       1.566444        42.6251 
 108   0.0000       1.585620        43.1469 
 109   0.0000       1.616181        43.9785 
 110   0.0000       1.636907        44.5425 
 111   0.0000       1.666928        45.3594 
 112   0.0000       1.777052        48.3561 
 113   0.0000       1.788388        48.6645 
 114   0.0000       1.809296        49.2334 
 115   0.0000       1.834884        49.9297 
 116   0.0000       1.843430        50.1623 
 117   0.0000       1.874239        51.0006 
 118   0.0000       1.876621        51.0654 
 119   0.0000       1.906338        51.8741 
 120   0.0000       1.924585        52.3706 
 121   0.0000       1.953731        53.1637 
 122   0.0000       1.963511        53.4299 
 123   0.0000       1.978525        53.8384 
 124   0.0000       1.990894        54.1750 
 125   0.0000       2.008067        54.6423 
 126   0.0000       2.016852        54.8813 
 127   0.0000       2.042294        55.5737 
 128   0.0000       2.063392        56.1477 
 129   0.0000       2.114880        57.5488 
 130   0.0000       2.141040        58.2607 
 131   0.0000       2.173182        59.1353 
 132   0.0000       2.198826        59.8331 
 133   0.0000       2.240319        60.9622 
 134   0.0000       2.256234        61.3953 
 135   0.0000       2.290566        62.3295 
 136   0.0000       2.294608        62.4395 
 137   0.0000       2.296429        62.4890 
 138   0.0000       2.327568        63.3363 
 139   0.0000       2.338113        63.6233 
 140   0.0000       2.341519        63.7160 
 141   0.0000       2.351498        63.9875 
 142   0.0000       2.356950        64.1359 
 143   0.0000       2.364441        64.3397 
 144   0.0000       2.370562        64.5063 
 145   0.0000       2.396471        65.2113 
 146   0.0000       2.407467        65.5105 
 147   0.0000       2.414887        65.7124 
 148   0.0000       2.431834        66.1736 
 149   0.0000       2.459702        66.9319 
 150   0.0000       2.501429        68.0673 
 151   0.0000       2.530395        68.8556 
 152   0.0000       2.543446        69.2107 
 153   0.0000       2.559486        69.6471 
 154   0.0000       2.576890        70.1207 
 155   0.0000       2.595725        70.6333 
 156   0.0000       2.608042        70.9684 
 157   0.0000       2.636401        71.7401 
 158   0.0000       2.639478        71.8238 
 159   0.0000       2.652253        72.1715 
 160   0.0000       2.661437        72.4214 
 161   0.0000       2.676025        72.8183 
 162   0.0000       2.678281        72.8797 
 163   0.0000       2.687710        73.1363 
 164   0.0000       2.736399        74.4612 
 165   0.0000       2.749658        74.8220 
 166   0.0000       2.786156        75.8152 
 167   0.0000       2.810764        76.4848 
 168   0.0000       2.862376        77.8892 
 169   0.0000       2.897916        78.8563 
 170   0.0000       2.918587        79.4188 
 171   0.0000       2.941145        80.0326 
 172   0.0000       2.948161        80.2235 
 173   0.0000       2.953856        80.3785 
 174   0.0000       2.956804        80.4587 
 175   0.0000       2.977838        81.0311 
 176   0.0000       2.989996        81.3619 
 177   0.0000       3.014897        82.0395 
 178   0.0000       3.032269        82.5122 
 179   0.0000       3.046539        82.9006 
 180   0.0000       3.054526        83.1179 
 181   0.0000       3.071120        83.5694 
 182   0.0000       3.105534        84.5059 
 183   0.0000       3.108404        84.5840 
 184   0.0000       3.124843        85.0313 
 185   0.0000       3.140142        85.4476 
 186   0.0000       3.173905        86.3663 
 187   0.0000       3.178950        86.5036 
 188   0.0000       3.244864        88.2972 
 189   0.0000       3.261442        88.7484 
 190   0.0000       3.268498        88.9404 
 191   0.0000       3.304616        89.9232 
 192   0.0000       3.336820        90.7995 
 193   0.0000       3.365306        91.5746 
 194   0.0000       3.460616        94.1681 
 195   0.0000       3.536583        96.2353 
 196   0.0000       3.952370       107.5494 
 197   0.0000       4.000786       108.8669 
 198   0.0000       4.013182       109.2042 
 199   0.0000       4.067259       110.6757 
 200   0.0000       4.080484       111.0356 
 201   0.0000       4.116029       112.0028 
 202   0.0000       4.150246       112.9339 
 203   0.0000       4.248727       115.6137 
 204   0.0000       4.272145       116.2510 
 205   0.0000       4.297210       116.9330 
 206   0.0000       4.321801       117.6022 
 207   0.0000       4.349382       118.3527 
 208   0.0000       4.381462       119.2257 
 209   0.0000       4.401627       119.7744 
 210   0.0000       5.485139       149.2582 
 211   0.0000       5.500746       149.6829 
 212   0.0000       5.535849       150.6381 
 213   0.0000       5.536313       150.6507 
 214   0.0000       5.566945       151.4843 
 215   0.0000       5.581539       151.8814 
 216   0.0000       5.583532       151.9356 
 217   0.0000       5.598204       152.3349 
 218   0.0000       5.612229       152.7165 
 219   0.0000       5.640233       153.4785 
 220   0.0000       5.653788       153.8474 
 221   0.0000       5.684607       154.6860 
 222   0.0000       5.688965       154.8046 
 223   0.0000       5.693870       154.9381 
 224   0.0000       5.763228       156.8254 
 225   0.0000       5.766758       156.9215 
 226   0.0000       5.789312       157.5352 
 227   0.0000       5.800318       157.8347 
 228   0.0000       5.809514       158.0849 
 229   0.0000       5.827206       158.5663 
 230   0.0000       5.832576       158.7125 
 231   0.0000       5.840359       158.9243 
 232   0.0000       5.842585       158.9848 
 233   0.0000       5.850858       159.2099 
 234   0.0000       5.861070       159.4878 
 235   0.0000       5.865953       159.6207 
 236   0.0000       5.872109       159.7882 
 237   0.0000       5.882607       160.0739 
 238   0.0000       5.885433       160.1508 
 239   0.0000       5.892803       160.3513 
 240   0.0000       5.896312       160.4468 
 241   0.0000       5.913384       160.9114 
 242   0.0000       5.936371       161.5369 
 243   0.0000       5.943778       161.7384 
 244   0.0000       5.950574       161.9233 
 245   0.0000       6.384941       173.7431 
 246   0.0000       6.410679       174.4434 
 247   0.0000       6.476349       176.2304 
 248   0.0000       6.478215       176.2812 
 249   0.0000       6.489050       176.5760 
 250   0.0000       6.499425       176.8583 
 251   0.0000       6.529457       177.6755 
 252   0.0000       6.646456       180.8593 
 253   0.0000       6.662086       181.2846 
 254   0.0000       6.682284       181.8342 
 255   0.0000       6.700953       182.3422 
 256   0.0000       6.721548       182.9026 
 257   0.0000       6.725619       183.0134 
 258   0.0000       6.763602       184.0470 
 259   0.0000       6.817139       185.5038 
 260   0.0000       6.824921       185.7155 
 261   0.0000       6.829840       185.8494 
 262   0.0000       6.838669       186.0897 
 263   0.0000       6.858776       186.6368 
 264   0.0000       6.867952       186.8865 
 265   0.0000       6.869408       186.9261 
 266   0.0000       6.875547       187.0931 
 267   0.0000       6.905972       187.9211 
 268   0.0000       6.908963       188.0024 
 269   0.0000       6.917255       188.2281 
 270   0.0000       6.920012       188.3031 
 271   0.0000       6.923340       188.3937 
 272   0.0000       6.933954       188.6825 
 273   0.0000       6.955062       189.2569 
 274   0.0000       6.960537       189.4058 
 275   0.0000       6.987872       190.1497 
 276   0.0000       6.993979       190.3158 
 277   0.0000       7.009995       190.7517 
 278   0.0000       7.056679       192.0220 
 279   0.0000       7.100470       193.2136 
 280   0.0000       7.336477       199.6357 
 281   0.0000       7.341826       199.7812 
 282   0.0000       7.354412       200.1237 
 283   0.0000       7.408207       201.5876 
 284   0.0000       7.429483       202.1665 
 285   0.0000       7.450863       202.7483 
 286   0.0000       7.465514       203.1470 
 287   0.0000       7.496077       203.9786 
 288   0.0000       7.501522       204.1268 
 289   0.0000       7.503399       204.1779 
 290   0.0000       7.568346       205.9452 
 291   0.0000       7.576503       206.1671 
 292   0.0000       7.585022       206.3989 
 293   0.0000       7.656854       208.3536 
 294   0.0000      44.820563      1219.6295 
 295   0.0000      44.843201      1220.2455 
 296   0.0000      44.937458      1222.8104 
 297   0.0000      44.962543      1223.4930 
 298   0.0000      44.995216      1224.3821 
 299   0.0000      45.057440      1226.0753 
 300   0.0000      45.077586      1226.6235 

                    ********************************
                    * MULLIKEN POPULATION ANALYSIS *
                    ********************************

-----------------------
MULLIKEN ATOMIC CHARGES
-----------------------
   0 O :   -0.738316
   1 H :    0.370281
   2 H :    0.383659
   3 O :   -0.774055
   4 H :    0.344211
   5 H :    0.399452
   6 O :   -0.722926
   7 H :    0.396291
   8 H :    0.318226
   9 O :   -0.738945
  10 H :    0.375886
  11 H :    0.382774
  12 O :   -0.777199
  13 H :    0.394374
  14 H :    0.356309
  15 O :   -0.700228
  16 H :    0.332450
  17 H :    0.369348
  18 O :   -0.752958
  19 H :    0.396633
  20 H :    0.384733
Sum of atomic charges:   -0.0000000

--------------------------------
MULLIKEN REDUCED ORBITAL CHARGES
--------------------------------
  0 O s       :     3.808504  s :     3.808504
      pz      :     1.739164  p :     4.904034
      px      :     1.380540
      py      :     1.784330
      dz2     :     0.004289  d :     0.024274
      dxz     :     0.004882
      dyz     :     0.005441
      dx2y2   :     0.002584
      dxy     :     0.007078
      f0      :     0.000093  f :     0.001504
      f+1     :     0.000350
      f-1     :     0.000185
      f+2     :     0.000061
      f-2     :     0.000357
      f+3     :     0.000091
      f-3     :     0.000366
  1 H s       :     0.584518  s :     0.584518
      pz      :     0.017225  p :     0.045202
      px      :     0.013286
      py      :     0.014691
  2 H s       :     0.575342  s :     0.575342
      pz      :     0.010844  p :     0.040999
      px      :     0.018110
      py      :     0.012045
  3 O s       :     3.809134  s :     3.809134
      pz      :     1.709729  p :     4.940653
      px      :     1.421075
      py      :     1.809849
      dz2     :     0.003647  d :     0.022845
      dxz     :     0.004272
      dyz     :     0.005389
      dx2y2   :     0.002242
      dxy     :     0.007295
      f0      :     0.000079  f :     0.001423
      f+1     :     0.000310
      f-1     :     0.000177
      f+2     :     0.000069
      f-2     :     0.000348
      f+3     :     0.000088
      f-3     :     0.000352
  4 H s       :     0.610012  s :     0.610012
      pz      :     0.016876  p :     0.045777
      px      :     0.013933
      py      :     0.014968
  5 H s       :     0.543905  s :     0.543905
      pz      :     0.010180  p :     0.056643
      px      :     0.032473
      py      :     0.013990
  6 O s       :     3.810717  s :     3.810717
      pz      :     1.567054  p :     4.885376
      px      :     1.507775
      py      :     1.810548
      dz2     :     0.011479  d :     0.025351
      dxz     :     0.001166
      dyz     :     0.002953
      dx2y2   :     0.002169
      dxy     :     0.007583
      f0      :     0.000243  f :     0.001483
      f+1     :     0.000374
      f-1     :     0.000165
      f+2     :     0.000056
      f-2     :     0.000056
      f+3     :     0.000070
      f-3     :     0.000519
  7 H s       :     0.554979  s :     0.554979
      pz      :     0.024959  p :     0.048730
      px      :     0.011301
      py      :     0.012470
  8 H s       :     0.636525  s :     0.636525
      pz      :     0.011272  p :     0.045249
      px      :     0.017792
      py      :     0.016185
  9 O s       :     3.804047  s :     3.804047
      pz      :     1.574350  p :     4.908899
      px      :     1.856304
      py      :     1.478245
      dz2     :     0.011065  d :     0.024553
      dxz     :     0.002174
      dyz     :     0.002634
      dx2y2   :     0.003524
      dxy     :     0.005156
      f0      :     0.000188  f :     0.001445
      f+1     :     0.000120
      f-1     :     0.000453
      f+2     :     0.000071
      f-2     :     0.000038
      f+3     :     0.000462
      f-3     :     0.000113
 10 H s       :     0.582536  s :     0.582536
      pz      :     0.009071  p :     0.041578
      px      :     0.013826
      py      :     0.018682
 11 H s       :     0.573505  s :     0.573505
      pz      :     0.019198  p :     0.043721
      px      :     0.013098
      py      :     0.011425
 12 O s       :     3.804395  s :     3.804395
      pz      :     1.594136  p :     4.948967
      px      :     1.477439
      py      :     1.877392
      dz2     :     0.009673  d :     0.022429
      dxz     :     0.002363
      dyz     :     0.002278
      dx2y2   :     0.002935
      dxy     :     0.005179
      f0      :     0.000181  f :     0.001408
      f+1     :     0.000422
      f-1     :     0.000117
      f+2     :     0.000078
      f-2     :     0.000036
      f+3     :     0.000120
      f-3     :     0.000453
 13 H s       :     0.556321  s :     0.556321
      pz      :     0.024831  p :     0.049304
      px      :     0.011472
      py      :     0.013001
 14 H s       :     0.589889  s :     0.589889
      pz      :     0.009746  p :     0.053802
      px      :     0.027819
      py      :     0.016237
 15 O s       :     3.815919  s :     3.815919
      pz      :     1.489295  p :     4.856386
      px      :     1.548215
      py      :     1.818876
      dz2     :     0.012338  d :     0.026392
      dxz     :     0.001301
      dyz     :     0.003072
      dx2y2   :     0.002093
      dxy     :     0.007588
      f0      :     0.000270  f :     0.001532
      f+1     :     0.000385
      f-1     :     0.000174
      f+2     :     0.000055
      f-2     :     0.000056
      f+3     :     0.000068
      f-3     :     0.000523
 16 H s       :     0.622293  s :     0.622293
      pz      :     0.018747  p :     0.045257
      px      :     0.012508
      py      :     0.014001
 17 H s       :     0.586624  s :     0.586624
      pz      :     0.010263  p :     0.044028
      px      :     0.018474
      py      :     0.015291
 18 O s       :     3.793123  s :     3.793123
      pz      :     1.563826  p :     4.934124
      px      :     1.786301
      py      :     1.583997
      dz2     :     0.011823  d :     0.024355
      dxz     :     0.002313
      dyz     :     0.001225
      dx2y2   :     0.002346
      dxy     :     0.006648
      f0      :     0.000233  f :     0.001356
      f+1     :     0.000151
      f-1     :     0.000377
      f+2     :     0.000050
      f-2     :     0.000055
      f+3     :     0.000442
      f-3     :     0.000048
 19 H s       :     0.555654  s :     0.555654
      pz      :     0.024186  p :     0.047713
      px      :     0.012244
      py      :     0.011283
 20 H s       :     0.565588  s :     0.565588
      pz      :     0.009949  p :     0.049679
      px      :     0.015744
      py      :     0.023987


                     *******************************
                     * LOEWDIN POPULATION ANALYSIS *
                     *******************************

----------------------
LOEWDIN ATOMIC CHARGES
----------------------
   0 O :   -0.321299
   1 H :    0.167177
   2 H :    0.193807
   3 O :   -0.350579
   4 H :    0.152269
   5 H :    0.152942
   6 O :   -0.344180
   7 H :    0.160100
   8 H :    0.150449
   9 O :   -0.285823
  10 H :    0.181808
  11 H :    0.178435
  12 O :   -0.355345
  13 H :    0.157248
  14 H :    0.142149
  15 O :   -0.330949
  16 H :    0.157432
  17 H :    0.174988
  18 O :   -0.296267
  19 H :    0.159945
  20 H :    0.155691

-------------------------------
LOEWDIN REDUCED ORBITAL CHARGES
-------------------------------
  0 O s       :     3.466653  s :     3.466653
      pz      :     1.713466  p :     4.821588
      px      :     1.364709
      py      :     1.743413
      dz2     :     0.004917  d :     0.031000
      dxz     :     0.006924
      dyz     :     0.005321
      dx2y2   :     0.004309
      dxy     :     0.009529
      f0      :     0.000077  f :     0.002058
      f+1     :     0.000455
      f-1     :     0.000271
      f+2     :     0.000033
      f-2     :     0.000606
      f+3     :     0.000090
      f-3     :     0.000527
  1 H s       :     0.669269  s :     0.669269
      pz      :     0.066423  p :     0.163554
      px      :     0.044552
      py      :     0.052579
  2 H s       :     0.657408  s :     0.657408
      pz      :     0.033190  p :     0.148785
      px      :     0.072151
      py      :     0.043444
  3 O s       :     3.461220  s :     3.461220
      pz      :     1.677332  p :     4.858157
      px      :     1.398337
      py      :     1.782488
      dz2     :     0.004615  d :     0.029221
      dxz     :     0.006825
      dyz     :     0.005638
      dx2y2   :     0.003230
      dxy     :     0.008913
      f0      :     0.000084  f :     0.001981
      f+1     :     0.000427
      f-1     :     0.000260
      f+2     :     0.000034
      f-2     :     0.000619
      f+3     :     0.000084
      f-3     :     0.000473
  4 H s       :     0.682836  s :     0.682836
      pz      :     0.065812  p :     0.164894
      px      :     0.045828
      py      :     0.053255
  5 H s       :     0.649829  s :     0.649829
      pz      :     0.033432  p :     0.197229
      px      :     0.115997
      py      :     0.047800
  6 O s       :     3.467389  s :     3.467389
      pz      :     1.543942  p :     4.842689
      px      :     1.514858
      py      :     1.783889
      dz2     :     0.015021  d :     0.031973
      dxz     :     0.001735
      dyz     :     0.002261
      dx2y2   :     0.002500
      dxy     :     0.010457
      f0      :     0.000419  f :     0.002130
      f+1     :     0.000562
      f-1     :     0.000318
      f+2     :     0.000024
      f-2     :     0.000045
      f+3     :     0.000003
      f-3     :     0.000759
  7 H s       :     0.667900  s :     0.667900
      pz      :     0.095198  p :     0.172000
      px      :     0.035459
      py      :     0.041343
  8 H s       :     0.692293  s :     0.692293
      pz      :     0.031843  p :     0.157258
      px      :     0.070442
      py      :     0.054973
  9 O s       :     3.460889  s :     3.460889
      pz      :     1.540007  p :     4.790438
      px      :     1.792331
      py      :     1.458101
      dz2     :     0.015327  d :     0.032401
      dxz     :     0.001378
      dyz     :     0.003892
      dx2y2   :     0.005244
      dxy     :     0.006560
      f0      :     0.000371  f :     0.002095
      f+1     :     0.000207
      f-1     :     0.000738
      f+2     :     0.000041
      f-2     :     0.000044
      f+3     :     0.000620
      f-3     :     0.000074
 10 H s       :     0.663904  s :     0.663904
      pz      :     0.029230  p :     0.154288
      px      :     0.049306
      py      :     0.075752
 11 H s       :     0.662415  s :     0.662415
      pz      :     0.081060  p :     0.159150
      px      :     0.042704
      py      :     0.035386
 12 O s       :     3.456678  s :     3.456678
      pz      :     1.557352  p :     4.868048
      px      :     1.471957
      py      :     1.838740
      dz2     :     0.013259  d :     0.028673
      dxz     :     0.003495
      dyz     :     0.001491
      dx2y2   :     0.003992
      dxy     :     0.006437
      f0      :     0.000347  f :     0.001945
      f+1     :     0.000686
      f-1     :     0.000182
      f+2     :     0.000041
      f-2     :     0.000041
      f+3     :     0.000069
      f-3     :     0.000579
 13 H s       :     0.668955  s :     0.668955
      pz      :     0.094497  p :     0.173797
      px      :     0.036679
      py      :     0.042620
 14 H s       :     0.674572  s :     0.674572
      pz      :     0.031132  p :     0.183278
      px      :     0.099401
      py      :     0.052745
 15 O s       :     3.473474  s :     3.473474
      pz      :     1.502001  p :     4.821720
      px      :     1.531841
      py      :     1.787878
      dz2     :     0.017056  d :     0.033545
      dxz     :     0.002236
      dyz     :     0.002537
      dx2y2   :     0.002205
      dxy     :     0.009510
      f0      :     0.000505  f :     0.002210
      f+1     :     0.000597
      f-1     :     0.000328
      f+2     :     0.000026
      f-2     :     0.000048
      f+3     :     0.000003
      f-3     :     0.000703
 16 H s       :     0.684926  s :     0.684926
      pz      :     0.079487  p :     0.157642
      px      :     0.035621
      py      :     0.042534
 17 H s       :     0.667903  s :     0.667903
      pz      :     0.029294  p :     0.157109
      px      :     0.073076
      py      :     0.054740
 18 O s       :     3.447318  s :     3.447318
      pz      :     1.537223  p :     4.816462
      px      :     1.729099
      py      :     1.550140
      dz2     :     0.015150  d :     0.030454
      dxz     :     0.001777
      dyz     :     0.001840
      dx2y2   :     0.003429
      dxy     :     0.008258
      f0      :     0.000426  f :     0.002033
      f+1     :     0.000323
      f-1     :     0.000545
      f+2     :     0.000019
      f-2     :     0.000048
      f+3     :     0.000646
      f-3     :     0.000025
 19 H s       :     0.668934  s :     0.668934
      pz      :     0.092180  p :     0.171122
      px      :     0.041863
      py      :     0.037079
 20 H s       :     0.669543  s :     0.669543
      pz      :     0.030930  p :     0.174766
      px      :     0.057860
      py      :     0.085977


                      *****************************
                      * MAYER POPULATION ANALYSIS *
                      *****************************

  NA   - Mulliken gross atomic population
  ZA   - Total nuclear charge
  QA   - Mulliken gross atomic charge
  VA   - Mayer's total valence
  BVA  - Mayer's bonded valence
  FA   - Mayer's free valence

  ATOM       NA         ZA         QA         VA         BVA        FA
  0 O      8.7383     8.0000    -0.7383     1.7562     1.7562     0.0000
  1 H      0.6297     1.0000     0.3703     0.8785     0.8785    -0.0000
  2 H      0.6163     1.0000     0.3837     0.8670     0.8670    -0.0000
  3 O      8.7741     8.0000    -0.7741     1.6842     1.6842    -0.0000
  4 H      0.6558     1.0000     0.3442     0.8980     0.8980    -0.0000
  5 H      0.6005     1.0000     0.3995     0.8794     0.8794     0.0000
  6 O      8.7229     8.0000    -0.7229     1.7512     1.7512    -0.0000
  7 H      0.6037     1.0000     0.3963     0.8731     0.8731    -0.0000
  8 H      0.6818     1.0000     0.3182     0.9158     0.9158    -0.0000
  9 O      8.7389     8.0000    -0.7389     1.7535     1.7535    -0.0000
 10 H      0.6241     1.0000     0.3759     0.8783     0.8783    -0.0000
 11 H      0.6172     1.0000     0.3828     0.8720     0.8720    -0.0000
 12 O      8.7772     8.0000    -0.7772     1.6875     1.6875    -0.0000
 13 H      0.6056     1.0000     0.3944     0.8793     0.8793    -0.0000
 14 H      0.6437     1.0000     0.3563     0.9074     0.9074    -0.0000
 15 O      8.7002     8.0000    -0.7002     1.7788     1.7788     0.0000
 16 H      0.6675     1.0000     0.3325     0.9045     0.9045     0.0000
 17 H      0.6307     1.0000     0.3693     0.8812     0.8812     0.0000
 18 O      8.7530     8.0000    -0.7530     1.7337     1.7337    -0.0000
 19 H      0.6034     1.0000     0.3966     0.8631     0.8631    -0.0000
 20 H      0.6153     1.0000     0.3847     0.8835     0.8835    -0.0000

  Mayer bond orders larger than 0.100000
B(  0-O ,  1-H ) :   0.8713 B(  0-O ,  2-H ) :   0.8565 B(  3-O ,  4-H ) :   0.8894 
B(  3-O ,  5-H ) :   0.7914 B(  6-O ,  7-H ) :   0.8370 B(  6-O ,  8-H ) :   0.9067 
B(  9-O , 10-H ) :   0.8600 B(  9-O , 11-H ) :   0.8605 B( 12-O , 13-H ) :   0.8363 
B( 12-O , 14-H ) :   0.8508 B( 15-O , 16-H ) :   0.8977 B( 15-O , 17-H ) :   0.8702 
B( 18-O , 19-H ) :   0.8456 B( 18-O , 20-H ) :   0.8413 

-------
TIMINGS
-------

Total SCF time: 0 days 0 hours 0 min 23 sec 

Total time                  ....      23.844 sec
Sum of individual times     ....      23.056 sec  ( 96.7%)

Fock matrix formation       ....      21.246 sec  ( 89.1%)
Diagonalization             ....       0.589 sec  (  2.5%)
Density matrix formation    ....       0.162 sec  (  0.7%)
Population analysis         ....       0.058 sec  (  0.2%)
Initial guess               ....       0.300 sec  (  1.3%)
Orbital Transformation      ....       0.000 sec  (  0.0%)
Orbital Orthonormalization  ....       0.000 sec  (  0.0%)
DIIS solution               ....       0.260 sec  (  1.1%)
SOSCF solution              ....       0.291 sec  (  1.2%)


           ************************************************************
           *        Program running with 6 parallel MPI-processes     *
           *              working on a common directory               *
           ************************************************************

------------------------------------------------------------------------------
                                ORCA  MP2 
------------------------------------------------------------------------------

Freezing NCore=14 chemical core electrons
MP2 will be done in the AO integral direct mode
The Q1-step will be done using symmetric double matrices
Dimension of the basis                    ...  301
Memory devoted for MP2                    ... 8000 MB   
Memory needed for all in one shot         ...  523 MB
Number of MOs that can be treated together...   75      
MP2 density construction                  ... relaxed
The MP2 gradient is requested => amplitudes will be stored on disk
Total number of MOs              ...   28
Number of MOs treated per batch  ...    5 
Number of batches necessary      ...    1 
OPERATORS   0/  0 PASS   0
-----------------------------------------------
 MP2 CORRELATION ENERGY   :     -1.807688892 Eh
-----------------------------------------------


---------------------
MP2 DENSITY FORMATION
---------------------

Completing the external part of the density      ... done
Storing the unrelaxed density                    ... done

Calculating G(D)                                 ... done
Completing the Lagrangian                        ... done
Solving the Z-vector equations                   ... 

------------------------------------------------------------------------------
                           ORCA CP-SCF CALCULATION
------------------------------------------------------------------------------

Input orbitals are from        ... 12h2o.su.etal.mol0,1,3,5,7,8,9-orca.engrad-mp2.def2tzvp.frozencore.gbw
Input Perturbation             ... 12h2o.su.etal.mol0,1,3,5,7,8,9-orca.engrad-mp2.def2tzvp.frozencore.pin.tmp
Wavefunction output            ... 12h2o.su.etal.mol0,1,3,5,7,8,9-orca.engrad-mp2.def2tzvp.frozencore.pout.tmp
Perturbation mode              ... Real perturbation (singlet)
Solver                         ... POPLE
Max. number of iterations      ... 128
Convergence tolerance          ... 1.000e-08
Integral handling              ... Direct
Number of perturbations        ... 1
Number of operators            ... 1
Orbital ranges used for CP-SCF:
 Operator 0:  Orbitals   0... 34  to  35...300
Variables per vector in CP-SCF ... 9310
Number of vectors sought       ... 1
     CP-SCF ITERATION   0: 
     CP-SCF ITERATION   1:      0.000882384419
     CP-SCF ITERATION   2:      0.000022337538
     CP-SCF ITERATION   3:      0.000001317173
     CP-SCF ITERATION   4:      0.000000094617
     CP-SCF ITERATION   5:      0.000000008141
                                                 ... done
Finalizing the relaxed density                   ... done
Transforming P to the AO basis                   ... done
Storing the relaxed density                      ... done

------------------------------------
ENERGY WEIGHTED DENSITY FINALIZATION
------------------------------------

Gathering the parts of the W-matrix              ...                                                      done
Forming the Z-density                            ... done
Transforming Z to the AO basis                   ... done
Calculating G(Z)                                 ... done
Finalizing the W-matrix                          ...                                                      done
Transforming W to the AO basis and storing       ... done

                *********************************************
                * UNRELAXED MP2 DENSITY POPULATION ANALYSIS *
                *********************************************

------------------------------------------------------------------------------
                           ORCA POPULATION ANALYSIS
------------------------------------------------------------------------------
Input electron density              ... 12h2o.su.etal.mol0,1,3,5,7,8,9-orca.engrad-mp2.def2tzvp.frozencore.pmp2ur
BaseName (.gbw .S,...)              ... 12h2o.su.etal.mol0,1,3,5,7,8,9-orca.engrad-mp2.def2tzvp.frozencore

                    ********************************
                    * MULLIKEN POPULATION ANALYSIS *
                    ********************************

-----------------------
MULLIKEN ATOMIC CHARGES
-----------------------
   0 O :   -0.732783
   1 H :    0.368122
   2 H :    0.380871
   3 O :   -0.767966
   4 H :    0.341906
   5 H :    0.394560
   6 O :   -0.717506
   7 H :    0.393228
   8 H :    0.315650
   9 O :   -0.732781
  10 H :    0.372987
  11 H :    0.380350
  12 O :   -0.770895
  13 H :    0.391255
  14 H :    0.351983
  15 O :   -0.695183
  16 H :    0.330041
  17 H :    0.366813
  18 O :   -0.745842
  19 H :    0.393775
  20 H :    0.381414
Sum of atomic charges:   -0.0000000

--------------------------------
MULLIKEN REDUCED ORBITAL CHARGES
--------------------------------
  0 O s       :     3.803662  s :     3.803662
      pz      :     1.728520  p :     4.873886
      px      :     1.372816
      py      :     1.772551
      dz2     :     0.009691  d :     0.051176
      dxz     :     0.010175
      dyz     :     0.010857
      dx2y2   :     0.008041
      dxy     :     0.012412
      f0      :     0.000461  f :     0.004059
      f+1     :     0.000711
      f-1     :     0.000549
      f+2     :     0.000430
      f-2     :     0.000721
      f+3     :     0.000462
      f-3     :     0.000726
  1 H s       :     0.585144  s :     0.585144
      pz      :     0.017692  p :     0.046734
      px      :     0.013666
      py      :     0.015376
  2 H s       :     0.576640  s :     0.576640
      pz      :     0.011667  p :     0.042488
      px      :     0.018042
      py      :     0.012780
  3 O s       :     3.804200  s :     3.804200
      pz      :     1.698772  p :     4.909416
      px      :     1.412279
      py      :     1.798364
      dz2     :     0.009295  d :     0.050346
      dxz     :     0.009768
      dyz     :     0.010822
      dx2y2   :     0.007786
      dxy     :     0.012674
      f0      :     0.000451  f :     0.004005
      f+1     :     0.000677
      f-1     :     0.000542
      f+2     :     0.000439
      f-2     :     0.000715
      f+3     :     0.000463
      f-3     :     0.000719
  4 H s       :     0.610649  s :     0.610649
      pz      :     0.017368  p :     0.047445
      px      :     0.014387
      py      :     0.015690
  5 H s       :     0.547152  s :     0.547152
      pz      :     0.010996  p :     0.058288
      px      :     0.032576
      py      :     0.014716
  6 O s       :     3.805876  s :     3.805876
      pz      :     1.557510  p :     4.855599
      px      :     1.498851
      py      :     1.799238
      dz2     :     0.016608  d :     0.051989
      dxz     :     0.006563
      dyz     :     0.008415
      dx2y2   :     0.007629
      dxy     :     0.012774
      f0      :     0.000623  f :     0.004043
      f+1     :     0.000741
      f-1     :     0.000539
      f+2     :     0.000415
      f-2     :     0.000420
      f+3     :     0.000436
      f-3     :     0.000869
  7 H s       :     0.556568  s :     0.556568
      pz      :     0.024986  p :     0.050204
      px      :     0.011938
      py      :     0.013280
  8 H s       :     0.637321  s :     0.637321
      pz      :     0.012120  p :     0.047029
      px      :     0.017994
      py      :     0.016915
  9 O s       :     3.798932  s :     3.798932
      pz      :     1.564705  p :     4.877837
      px      :     1.843655
      py      :     1.469477
      dz2     :     0.016378  d :     0.051985
      dxz     :     0.007855
      dyz     :     0.008024
      dx2y2   :     0.009088
      dxy     :     0.010639
      f0      :     0.000573  f :     0.004026
      f+1     :     0.000496
      f-1     :     0.000818
      f+2     :     0.000435
      f-2     :     0.000405
      f+3     :     0.000817
      f-3     :     0.000482
 10 H s       :     0.583921  s :     0.583921
      pz      :     0.009858  p :     0.043092
      px      :     0.014542
      py      :     0.018692
 11 H s       :     0.574431  s :     0.574431
      pz      :     0.019315  p :     0.045219
      px      :     0.013915
      py      :     0.011989
 12 O s       :     3.799397  s :     3.799397
      pz      :     1.584008  p :     4.917432
      px      :     1.468067
      py      :     1.865357
      dz2     :     0.015150  d :     0.050068
      dxz     :     0.007882
      dyz     :     0.007946
      dx2y2   :     0.008482
      dxy     :     0.010608
      f0      :     0.000569  f :     0.003998
      f+1     :     0.000795
      f-1     :     0.000493
      f+2     :     0.000443
      f-2     :     0.000404
      f+3     :     0.000486
      f-3     :     0.000808
 13 H s       :     0.557957  s :     0.557957
      pz      :     0.024915  p :     0.050788
      px      :     0.012049
      py      :     0.013823
 14 H s       :     0.592439  s :     0.592439
      pz      :     0.010598  p :     0.055578
      px      :     0.027982
      py      :     0.016998
 15 O s       :     3.811152  s :     3.811152
      pz      :     1.480556  p :     4.827236
      px      :     1.539187
      py      :     1.807494
      dz2     :     0.017275  d :     0.052718
      dxz     :     0.006616
      dyz     :     0.008472
      dx2y2   :     0.007544
      dxy     :     0.012810
      f0      :     0.000644  f :     0.004078
      f+1     :     0.000747
      f-1     :     0.000543
      f+2     :     0.000412
      f-2     :     0.000419
      f+3     :     0.000436
      f-3     :     0.000876
 16 H s       :     0.623000  s :     0.623000
      pz      :     0.018856  p :     0.046958
      px      :     0.013219
      py      :     0.014884
 17 H s       :     0.587598  s :     0.587598
      pz      :     0.011022  p :     0.045589
      px      :     0.018613
      py      :     0.015954
 18 O s       :     3.787945  s :     3.787945
      pz      :     1.554156  p :     4.901927
      px      :     1.773584
      py      :     1.574187
      dz2     :     0.017089  d :     0.052002
      dxz     :     0.007970
      dyz     :     0.006735
      dx2y2   :     0.008083
      dxy     :     0.012125
      f0      :     0.000619  f :     0.003967
      f+1     :     0.000530
      f-1     :     0.000748
      f+2     :     0.000415
      f-2     :     0.000424
      f+3     :     0.000806
      f-3     :     0.000425
 19 H s       :     0.556988  s :     0.556988
      pz      :     0.024251  p :     0.049236
      px      :     0.013049
      py      :     0.011936
 20 H s       :     0.567371  s :     0.567371
      pz      :     0.010725  p :     0.051214
      px      :     0.016305
      py      :     0.024185


                     *******************************
                     * LOEWDIN POPULATION ANALYSIS *
                     *******************************

----------------------
LOEWDIN ATOMIC CHARGES
----------------------
   0 O :   -0.317534
   1 H :    0.166110
   2 H :    0.192137
   3 O :   -0.347334
   4 H :    0.150936
   5 H :    0.150274
   6 O :   -0.341234
   7 H :    0.158192
   8 H :    0.148715
   9 O :   -0.281120
  10 H :    0.179957
  11 H :    0.176981
  12 O :   -0.352009
  13 H :    0.155199
  14 H :    0.139521
  15 O :   -0.327941
  16 H :    0.155935
  17 H :    0.173583
  18 O :   -0.291953
  19 H :    0.158063
  20 H :    0.153521

-------------------------------
LOEWDIN REDUCED ORBITAL CHARGES
-------------------------------
  0 O s       :     3.462890  s :     3.462890
      pz      :     1.702876  p :     4.790912
      px      :     1.356639
      py      :     1.731397
      dz2     :     0.010439  d :     0.058928
      dxz     :     0.012435
      dyz     :     0.011008
      dx2y2   :     0.009858
      dxy     :     0.015188
      f0      :     0.000455  f :     0.004805
      f+1     :     0.000862
      f-1     :     0.000655
      f+2     :     0.000407
      f-2     :     0.001013
      f+3     :     0.000474
      f-3     :     0.000939
  1 H s       :     0.667424  s :     0.667424
      pz      :     0.067584  p :     0.166467
      px      :     0.045354
      py      :     0.053529
  2 H s       :     0.656145  s :     0.656145
      pz      :     0.034000  p :     0.151717
      px      :     0.073319
      py      :     0.044398
  3 O s       :     3.457587  s :     3.457587
      pz      :     1.665907  p :     4.827135
      px      :     1.389842
      py      :     1.771386
      dz2     :     0.010356  d :     0.057851
      dxz     :     0.012533
      dyz     :     0.011416
      dx2y2   :     0.008884
      dxy     :     0.014662
      f0      :     0.000468  f :     0.004761
      f+1     :     0.000843
      f-1     :     0.000645
      f+2     :     0.000411
      f-2     :     0.001030
      f+3     :     0.000472
      f-3     :     0.000892
  4 H s       :     0.680927  s :     0.680927
      pz      :     0.067089  p :     0.168138
      px      :     0.046784
      py      :     0.054265
  5 H s       :     0.650090  s :     0.650090
      pz      :     0.034270  p :     0.199636
      px      :     0.116703
      py      :     0.048663
  6 O s       :     3.463669  s :     3.463669
      pz      :     1.534464  p :     4.812945
      px      :     1.505610
      py      :     1.772871
      dz2     :     0.020823  d :     0.059736
      dxz     :     0.007081
      dyz     :     0.007666
      dx2y2   :     0.007965
      dxy     :     0.016202
      f0      :     0.000839  f :     0.004884
      f+1     :     0.000983
      f-1     :     0.000715
      f+2     :     0.000388
      f-2     :     0.000416
      f+3     :     0.000374
      f-3     :     0.001169
  7 H s       :     0.667076  s :     0.667076
      pz      :     0.096435  p :     0.174732
      px      :     0.036168
      py      :     0.042129
  8 H s       :     0.690509  s :     0.690509
      pz      :     0.032648  p :     0.160776
      px      :     0.072010
      py      :     0.056118
  9 O s       :     3.457014  s :     3.457014
      pz      :     1.529694  p :     4.758346
      px      :     1.779648
      py      :     1.449005
      dz2     :     0.021264  d :     0.060887
      dxz     :     0.006979
      dyz     :     0.009317
      dx2y2   :     0.010985
      dxy     :     0.012341
      f0      :     0.000786  f :     0.004873
      f+1     :     0.000599
      f-1     :     0.001173
      f+2     :     0.000413
      f-2     :     0.000416
      f+3     :     0.001032
      f-3     :     0.000454
 10 H s       :     0.662732  s :     0.662732
      pz      :     0.030037  p :     0.157311
      px      :     0.050238
      py      :     0.077036
 11 H s       :     0.660966  s :     0.660966
      pz      :     0.082469  p :     0.162053
      px      :     0.043478
      py      :     0.036106
 12 O s       :     3.453023  s :     3.453023
      pz      :     1.546832  p :     4.836786
      px      :     1.462671
      py      :     1.827283
      dz2     :     0.019316  d :     0.057466
      dxz     :     0.009058
      dyz     :     0.007096
      dx2y2   :     0.009749
      dxy     :     0.012247
      f0      :     0.000767  f :     0.004734
      f+1     :     0.001127
      f-1     :     0.000573
      f+2     :     0.000414
      f-2     :     0.000415
      f+3     :     0.000446
      f-3     :     0.000991
 13 H s       :     0.668231  s :     0.668231
      pz      :     0.095746  p :     0.176569
      px      :     0.037442
      py      :     0.043382
 14 H s       :     0.674136  s :     0.674136
      pz      :     0.032020  p :     0.186343
      px      :     0.100638
      py      :     0.053685
 15 O s       :     3.469736  s :     3.469736
      pz      :     1.492804  p :     4.792297
      px      :     1.522661
      py      :     1.776832
      dz2     :     0.022725  d :     0.060960
      dxz     :     0.007487
      dyz     :     0.007878
      dx2y2   :     0.007642
      dxy     :     0.015228
      f0      :     0.000920  f :     0.004949
      f+1     :     0.001013
      f-1     :     0.000721
      f+2     :     0.000388
      f-2     :     0.000418
      f+3     :     0.000376
      f-3     :     0.001114
 16 H s       :     0.683075  s :     0.683075
      pz      :     0.081224  p :     0.160990
      px      :     0.036390
      py      :     0.043376
 17 H s       :     0.666339  s :     0.666339
      pz      :     0.030006  p :     0.160078
      px      :     0.074336
      py      :     0.055736
 18 O s       :     3.443580  s :     3.443580
      pz      :     1.527481  p :     4.784374
      px      :     1.716492
      py      :     1.540400
      dz2     :     0.021094  d :     0.059155
      dxz     :     0.007366
      dyz     :     0.007309
      dx2y2   :     0.009125
      dxy     :     0.014263
      f0      :     0.000853  f :     0.004844
      f+1     :     0.000726
      f-1     :     0.000971
      f+2     :     0.000389
      f-2     :     0.000425
      f+3     :     0.001072
      f-3     :     0.000408
 19 H s       :     0.667936  s :     0.667936
      pz      :     0.093493  p :     0.174001
      px      :     0.042664
      py      :     0.037844
 20 H s       :     0.668852  s :     0.668852
      pz      :     0.031696  p :     0.177627
      px      :     0.058782
      py      :     0.087150


                      *****************************
                      * MAYER POPULATION ANALYSIS *
                      *****************************

  NA   - Mulliken gross atomic population
  ZA   - Total nuclear charge
  QA   - Mulliken gross atomic charge
  VA   - Mayer's total valence
  BVA  - Mayer's bonded valence
  FA   - Mayer's free valence

  ATOM       NA         ZA         QA         VA         BVA        FA
  0 O      8.7328     8.0000    -0.7328     2.0668     1.6766     0.3902
  1 H      0.6319     1.0000     0.3681     0.8839     0.8394     0.0445
  2 H      0.6191     1.0000     0.3809     0.8730     0.8265     0.0465
  3 O      8.7680     8.0000    -0.7680     2.0008     1.6063     0.3945
  4 H      0.6581     1.0000     0.3419     0.9039     0.8565     0.0474
  5 H      0.6054     1.0000     0.3946     0.8873     0.8409     0.0463
  6 O      8.7175     8.0000    -0.7175     2.0589     1.6705     0.3884
  7 H      0.6068     1.0000     0.3932     0.8792     0.8357     0.0435
  8 H      0.6844     1.0000     0.3156     0.9224     0.8719     0.0506
  9 O      8.7328     8.0000    -0.7328     2.0657     1.6741     0.3916
 10 H      0.6270     1.0000     0.3730     0.8846     0.8376     0.0470
 11 H      0.6197     1.0000     0.3803     0.8775     0.8327     0.0448
 12 O      8.7709     8.0000    -0.7709     2.0040     1.6095     0.3945
 13 H      0.6087     1.0000     0.3913     0.8854     0.8415     0.0439
 14 H      0.6480     1.0000     0.3520     0.9154     0.8660     0.0494
 15 O      8.6952     8.0000    -0.6952     2.0830     1.6968     0.3862
 16 H      0.6700     1.0000     0.3300     0.9107     0.8619     0.0488
 17 H      0.6332     1.0000     0.3668     0.8871     0.8413     0.0459
 18 O      8.7458     8.0000    -0.7458     2.0462     1.6560     0.3902
 19 H      0.6062     1.0000     0.3938     0.8690     0.8252     0.0437
 20 H      0.6186     1.0000     0.3814     0.8899     0.8450     0.0450

  Mayer bond orders larger than 0.100000
B(  0-O ,  1-H ) :   0.8327 B(  0-O ,  2-H ) :   0.8165 B(  3-O ,  4-H ) :   0.8486 
B(  3-O ,  5-H ) :   0.7555 B(  6-O ,  7-H ) :   0.8007 B(  6-O ,  8-H ) :   0.8633 
B(  9-O , 10-H ) :   0.8202 B(  9-O , 11-H ) :   0.8220 B( 12-O , 13-H ) :   0.7998 
B( 12-O , 14-H ) :   0.8108 B( 15-O , 16-H ) :   0.8555 B( 15-O , 17-H ) :   0.8308 
B( 18-O , 19-H ) :   0.8082 B( 18-O , 20-H ) :   0.8041 


                *******************************************
                * RELAXED MP2 DENSITY POPULATION ANALYSIS *
                *******************************************

------------------------------------------------------------------------------
                           ORCA POPULATION ANALYSIS
------------------------------------------------------------------------------
Input electron density              ... 12h2o.su.etal.mol0,1,3,5,7,8,9-orca.engrad-mp2.def2tzvp.frozencore.pmp2re
BaseName (.gbw .S,...)              ... 12h2o.su.etal.mol0,1,3,5,7,8,9-orca.engrad-mp2.def2tzvp.frozencore

                    ********************************
                    * MULLIKEN POPULATION ANALYSIS *
                    ********************************

-----------------------
MULLIKEN ATOMIC CHARGES
-----------------------
   0 O :   -0.712492
   1 H :    0.361687
   2 H :    0.373846
   3 O :   -0.743064
   4 H :    0.335311
   5 H :    0.369228
   6 O :   -0.699142
   7 H :    0.378124
   8 H :    0.309026
   9 O :   -0.707498
  10 H :    0.363378
  11 H :    0.372302
  12 O :   -0.743197
  13 H :    0.373600
  14 H :    0.332101
  15 O :   -0.679968
  16 H :    0.324089
  17 H :    0.358458
  18 O :   -0.713383
  19 H :    0.382310
  20 H :    0.365286
Sum of atomic charges:   -0.0000000

--------------------------------
MULLIKEN REDUCED ORBITAL CHARGES
--------------------------------
  0 O s       :     3.806827  s :     3.806827
      pz      :     1.723019  p :     4.852686
      px      :     1.369948
      py      :     1.759719
      dz2     :     0.009413  d :     0.048993
      dxz     :     0.009606
      dyz     :     0.010597
      dx2y2   :     0.007765
      dxy     :     0.011612
      f0      :     0.000459  f :     0.003985
      f+1     :     0.000692
      f-1     :     0.000541
      f+2     :     0.000429
      f-2     :     0.000700
      f+3     :     0.000460
      f-3     :     0.000704
  1 H s       :     0.590929  s :     0.590929
      pz      :     0.017775  p :     0.047383
      px      :     0.013599
      py      :     0.016009
  2 H s       :     0.583144  s :     0.583144
      pz      :     0.012489  p :     0.043010
      px      :     0.017072
      py      :     0.013450
  3 O s       :     3.805771  s :     3.805771
      pz      :     1.687983  p :     4.884873
      px      :     1.404202
      py      :     1.792688
      dz2     :     0.009144  d :     0.048481
      dxz     :     0.009192
      dyz     :     0.010503
      dx2y2   :     0.007672
      dxy     :     0.011970
      f0      :     0.000449  f :     0.003939
      f+1     :     0.000659
      f-1     :     0.000534
      f+2     :     0.000439
      f-2     :     0.000695
      f+3     :     0.000461
      f-3     :     0.000702
  4 H s       :     0.616468  s :     0.616468
      pz      :     0.017506  p :     0.048221
      px      :     0.014425
      py      :     0.016289
  5 H s       :     0.572353  s :     0.572353
      pz      :     0.011717  p :     0.058420
      px      :     0.031463
      py      :     0.015240
  6 O s       :     3.807247  s :     3.807247
      pz      :     1.553821  p :     4.838130
      px      :     1.491220
      py      :     1.793089
      dz2     :     0.015395  d :     0.049796
      dxz     :     0.006524
      dyz     :     0.008377
      dx2y2   :     0.007532
      dxy     :     0.011967
      f0      :     0.000607  f :     0.003970
      f+1     :     0.000719
      f-1     :     0.000528
      f+2     :     0.000416
      f-2     :     0.000419
      f+3     :     0.000436
      f-3     :     0.000845
  7 H s       :     0.571246  s :     0.571246
      pz      :     0.024165  p :     0.050631
      px      :     0.012394
      py      :     0.014071
  8 H s       :     0.642998  s :     0.642998
      pz      :     0.012931  p :     0.047977
      px      :     0.017404
      py      :     0.017641
  9 O s       :     3.802156  s :     3.802156
      pz      :     1.556662  p :     4.851549
      px      :     1.829944
      py      :     1.464944
      dz2     :     0.015190  d :     0.049841
      dxz     :     0.007910
      dyz     :     0.007742
      dx2y2   :     0.008828
      dxy     :     0.010171
      f0      :     0.000559  f :     0.003952
      f+1     :     0.000490
      f-1     :     0.000789
      f+2     :     0.000435
      f-2     :     0.000403
      f+3     :     0.000796
      f-3     :     0.000480
 10 H s       :     0.592900  s :     0.592900
      pz      :     0.010583  p :     0.043722
      px      :     0.015255
      py      :     0.017884
 11 H s       :     0.581884  s :     0.581884
      pz      :     0.018565  p :     0.045814
      px      :     0.014855
      py      :     0.012393
 12 O s       :     3.797818  s :     3.797818
      pz      :     1.574749  p :     4.893275
      px      :     1.459349
      py      :     1.859177
      dz2     :     0.014169  d :     0.048172
      dxz     :     0.007634
      dyz     :     0.007958
      dx2y2   :     0.008268
      dxy     :     0.010143
      f0      :     0.000558  f :     0.003932
      f+1     :     0.000766
      f-1     :     0.000487
      f+2     :     0.000443
      f-2     :     0.000403
      f+3     :     0.000485
      f-3     :     0.000790
 13 H s       :     0.575066  s :     0.575066
      pz      :     0.024244  p :     0.051334
      px      :     0.012433
      py      :     0.014657
 14 H s       :     0.611738  s :     0.611738
      pz      :     0.011395  p :     0.056161
      px      :     0.027103
      py      :     0.017663
 15 O s       :     3.816088  s :     3.816088
      pz      :     1.474359  p :     4.809493
      px      :     1.534181
      py      :     1.800953
      dz2     :     0.015856  d :     0.050386
      dxz     :     0.006544
      dyz     :     0.008441
      dx2y2   :     0.007459
      dxy     :     0.012086
      f0      :     0.000625  f :     0.004001
      f+1     :     0.000725
      f-1     :     0.000533
      f+2     :     0.000413
      f-2     :     0.000418
      f+3     :     0.000436
      f-3     :     0.000851
 16 H s       :     0.628099  s :     0.628099
      pz      :     0.018087  p :     0.047812
      px      :     0.013834
      py      :     0.015890
 17 H s       :     0.595298  s :     0.595298
      pz      :     0.011672  p :     0.046244
      px      :     0.018051
      py      :     0.016521
 18 O s       :     3.784946  s :     3.784946
      pz      :     1.550720  p :     4.874298
      px      :     1.754133
      py      :     1.569446
      dz2     :     0.015935  d :     0.050243
      dxz     :     0.007963
      dyz     :     0.006715
      dx2y2   :     0.008068
      dxy     :     0.011561
      f0      :     0.000603  f :     0.003897
      f+1     :     0.000521
      f-1     :     0.000727
      f+2     :     0.000415
      f-2     :     0.000422
      f+3     :     0.000783
      f-3     :     0.000425
 19 H s       :     0.568052  s :     0.568052
      pz      :     0.023408  p :     0.049639
      px      :     0.013860
      py      :     0.012371
 20 H s       :     0.582956  s :     0.582956
      pz      :     0.011382  p :     0.051758
      px      :     0.016699
      py      :     0.023677


                     *******************************
                     * LOEWDIN POPULATION ANALYSIS *
                     *******************************

----------------------
LOEWDIN ATOMIC CHARGES
----------------------
   0 O :   -0.314953
   1 H :    0.167999
   2 H :    0.193353
   3 O :   -0.344927
   4 H :    0.152806
   5 H :    0.142411
   6 O :   -0.342383
   7 H :    0.154126
   8 H :    0.150111
   9 O :   -0.274461
  10 H :    0.179930
  11 H :    0.177853
  12 O :   -0.349176
  13 H :    0.150539
  14 H :    0.133778
  15 O :   -0.329784
  16 H :    0.157616
  17 H :    0.174325
  18 O :   -0.283821
  19 H :    0.155364
  20 H :    0.149293

-------------------------------
LOEWDIN REDUCED ORBITAL CHARGES
-------------------------------
  0 O s       :     3.464330  s :     3.464330
      pz      :     1.702166  p :     4.788062
      px      :     1.361787
      py      :     1.724109
      dz2     :     0.010278  d :     0.057738
      dxz     :     0.012067
      dyz     :     0.010969
      dx2y2   :     0.009648
      dxy     :     0.014777
      f0      :     0.000457  f :     0.004822
      f+1     :     0.000868
      f-1     :     0.000655
      f+2     :     0.000408
      f-2     :     0.001013
      f+3     :     0.000477
      f-3     :     0.000945
  1 H s       :     0.665849  s :     0.665849
      pz      :     0.067568  p :     0.166152
      px      :     0.044624
      py      :     0.053960
  2 H s       :     0.655113  s :     0.655113
      pz      :     0.034694  p :     0.151534
      px      :     0.071825
      py      :     0.045015
  3 O s       :     3.459188  s :     3.459188
      pz      :     1.660602  p :     4.823690
      px      :     1.393222
      py      :     1.769866
      dz2     :     0.010413  d :     0.057248
      dxz     :     0.012183
      dyz     :     0.011351
      dx2y2   :     0.008894
      dxy     :     0.014406
      f0      :     0.000471  f :     0.004801
      f+1     :     0.000855
      f-1     :     0.000646
      f+2     :     0.000412
      f-2     :     0.001031
      f+3     :     0.000477
      f-3     :     0.000909
  4 H s       :     0.678915  s :     0.678915
      pz      :     0.067107  p :     0.168279
      px      :     0.046355
      py      :     0.054817
  5 H s       :     0.657792  s :     0.657792
      pz      :     0.034861  p :     0.199798
      px      :     0.115722
      py      :     0.049214
  6 O s       :     3.465107  s :     3.465107
      pz      :     1.535795  p :     4.813849
      px      :     1.507433
      py      :     1.770621
      dz2     :     0.020229  d :     0.058527
      dxz     :     0.006965
      dyz     :     0.007692
      dx2y2   :     0.007879
      dxy     :     0.015761
      f0      :     0.000843  f :     0.004901
      f+1     :     0.000990
      f-1     :     0.000713
      f+2     :     0.000390
      f-2     :     0.000416
      f+3     :     0.000374
      f-3     :     0.001175
  7 H s       :     0.670970  s :     0.670970
      pz      :     0.095604  p :     0.174905
      px      :     0.036418
      py      :     0.042883
  8 H s       :     0.688429  s :     0.688429
      pz      :     0.033174  p :     0.161460
      px      :     0.071474
      py      :     0.056812
  9 O s       :     3.458562  s :     3.458562
      pz      :     1.528754  p :     4.751072
      px      :     1.770393
      py      :     1.451924
      dz2     :     0.020759  d :     0.059934
      dxz     :     0.007064
      dyz     :     0.009090
      dx2y2   :     0.010878
      dxy     :     0.012142
      f0      :     0.000786  f :     0.004893
      f+1     :     0.000601
      f-1     :     0.001180
      f+2     :     0.000415
      f-2     :     0.000415
      f+3     :     0.001040
      f-3     :     0.000456
 10 H s       :     0.662843  s :     0.662843
      pz      :     0.030449  p :     0.157227
      px      :     0.050892
      py      :     0.075887
 11 H s       :     0.660287  s :     0.660287
      pz      :     0.081616  p :     0.161860
      px      :     0.044291
      py      :     0.035953
 12 O s       :     3.453659  s :     3.453659
      pz      :     1.544666  p :     4.833905
      px      :     1.464398
      py      :     1.824840
      dz2     :     0.019044  d :     0.056843
      dxz     :     0.008891
      dyz     :     0.007154
      dx2y2   :     0.009671
      dxy     :     0.012083
      f0      :     0.000772  f :     0.004769
      f+1     :     0.001140
      f-1     :     0.000574
      f+2     :     0.000416
      f-2     :     0.000414
      f+3     :     0.000449
      f-3     :     0.001004
 13 H s       :     0.672543  s :     0.672543
      pz      :     0.095154  p :     0.176918
      px      :     0.037531
      py      :     0.044234
 14 H s       :     0.678914  s :     0.678914
      pz      :     0.032586  p :     0.187307
      px      :     0.100223
      py      :     0.054498
 15 O s       :     3.472021  s :     3.472021
      pz      :     1.494567  p :     4.793222
      px      :     1.524577
      py      :     1.774078
      dz2     :     0.021895  d :     0.059578
      dxz     :     0.007331
      dyz     :     0.007907
      dx2y2   :     0.007567
      dxy     :     0.014878
      f0      :     0.000920  f :     0.004963
      f+1     :     0.001021
      f-1     :     0.000718
      f+2     :     0.000390
      f-2     :     0.000418
      f+3     :     0.000376
      f-3     :     0.001121
 16 H s       :     0.680949  s :     0.680949
      pz      :     0.080567  p :     0.161435
      px      :     0.036548
      py      :     0.044320
 17 H s       :     0.665773  s :     0.665773
      pz      :     0.030237  p :     0.159902
      px      :     0.073493
      py      :     0.056172
 18 O s       :     3.443979  s :     3.443979
      pz      :     1.528803  p :     4.776419
      px      :     1.706006
      py      :     1.541610
      dz2     :     0.020620  d :     0.058555
      dxz     :     0.007411
      dyz     :     0.007211
      dx2y2   :     0.009217
      dxy     :     0.014096
      f0      :     0.000855  f :     0.004869
      f+1     :     0.000728
      f-1     :     0.000978
      f+2     :     0.000391
      f-2     :     0.000425
      f+3     :     0.001082
      f-3     :     0.000409
 19 H s       :     0.670449  s :     0.670449
      pz      :     0.092614  p :     0.174186
      px      :     0.043272
      py      :     0.038300
 20 H s       :     0.672493  s :     0.672493
      pz      :     0.032170  p :     0.178214
      px      :     0.059163
      py      :     0.086882


                      *****************************
                      * MAYER POPULATION ANALYSIS *
                      *****************************

  NA   - Mulliken gross atomic population
  ZA   - Total nuclear charge
  QA   - Mulliken gross atomic charge
  VA   - Mayer's total valence
  BVA  - Mayer's bonded valence
  FA   - Mayer's free valence

  ATOM       NA         ZA         QA         VA         BVA        FA
  0 O      8.7125     8.0000    -0.7125     2.0916     1.7070     0.3845
  1 H      0.6383     1.0000     0.3617     0.8887     0.8442     0.0446
  2 H      0.6262     1.0000     0.3738     0.8799     0.8334     0.0464
  3 O      8.7431     8.0000    -0.7431     2.0231     1.6342     0.3889
  4 H      0.6647     1.0000     0.3353     0.9083     0.8609     0.0474
  5 H      0.6308     1.0000     0.3692     0.9177     0.8724     0.0453
  6 O      8.6991     8.0000    -0.6991     2.0727     1.6896     0.3831
  7 H      0.6219     1.0000     0.3781     0.9003     0.8572     0.0431
  8 H      0.6910     1.0000     0.3090     0.9286     0.8782     0.0504
  9 O      8.7075     8.0000    -0.7075     2.1080     1.7228     0.3852
 10 H      0.6366     1.0000     0.3634     0.8962     0.8496     0.0466
 11 H      0.6277     1.0000     0.3723     0.8851     0.8405     0.0447
 12 O      8.7432     8.0000    -0.7432     2.0294     1.6404     0.3890
 13 H      0.6264     1.0000     0.3736     0.9087     0.8652     0.0434
 14 H      0.6679     1.0000     0.3321     0.9417     0.8933     0.0484
 15 O      8.6800     8.0000    -0.6800     2.0922     1.7113     0.3809
 16 H      0.6759     1.0000     0.3241     0.9152     0.8663     0.0489
 17 H      0.6415     1.0000     0.3585     0.8956     0.8499     0.0457
 18 O      8.7134     8.0000    -0.7134     2.0890     1.7050     0.3840
 19 H      0.6177     1.0000     0.3823     0.8837     0.8401     0.0436
 20 H      0.6347     1.0000     0.3653     0.9121     0.8676     0.0445

  Mayer bond orders larger than 0.100000
B(  0-O ,  1-H ) :   0.8366 B(  0-O ,  2-H ) :   0.8202 B(  3-O ,  4-H ) :   0.8513 
B(  3-O ,  5-H ) :   0.7546 B(  5-H , 18-O ) :   0.1072 B(  6-O ,  7-H ) :   0.8060 
B(  6-O ,  8-H ) :   0.8660 B(  9-O , 10-H ) :   0.8236 B(  9-O , 11-H ) :   0.8255 
B( 12-O , 13-H ) :   0.8045 B( 12-O , 14-H ) :   0.8087 B( 15-O , 16-H ) :   0.8590 
B( 15-O , 17-H ) :   0.8355 B( 18-O , 19-H ) :   0.8126 B( 18-O , 20-H ) :   0.8061 



----------------------------------
MP2 DERIVATIVE INTEGRAL GENERATION
----------------------------------


Input Wavefunction Amplitudes       ... 12h2o.su.etal.mol0,1,3,5,7,8,9-orca.engrad-mp2.def2tzvp.frozencore.mp2tsaa.tmp
Input Correlated Electron Density   ... 12h2o.su.etal.mol0,1,3,5,7,8,9-orca.engrad-mp2.def2tzvp.frozencore.pmp2re
Input Energy Weighted Density       ... 12h2o.su.etal.mol0,1,3,5,7,8,9-orca.engrad-mp2.def2tzvp.frozencore.wmp2.tmp
Input SCF Electron Density          ... 12h2o.su.etal.mol0,1,3,5,7,8,9-orca.engrad-mp2.def2tzvp.frozencore.scfp

One-Electron Terms    ...
                        ... One-Electron Terms done
Prescreening matrices              ... done

Batch handling in the gradient evaluation:
Memory available                      ... 8000.0 MB
Memory per occupied orbital in Q2     ...   19.4 MB
Memory per occupied orbital in Q3     ...    0.1 MB
Total memory requirement per |i>      ...   19.5 MB
Max. Number of orbitals possible      ...    410
Number of orbitals treated per batch  ...     28
Number of batches to be done          ...      1
Batch   0: i=    7 ...    34

---------------------------------------
MP2 TOTAL ENERGY:     -534.243456606 Eh
---------------------------------------

The final MP2 gradient
  0:   0.02759112  -0.00515215   0.00093259
  1:   0.00063246  -0.00222052  -0.00160787
  2:  -0.02586711   0.00793146   0.00124682
  3:  -0.00504120   0.00247416   0.00027274
  4:  -0.00106421   0.00045861  -0.00051989
  5:   0.01073302  -0.00300477  -0.00204012
  6:  -0.01081461   0.00726142   0.00210754
  7:  -0.00081895  -0.00355077  -0.00188543
  8:   0.01083938  -0.00637725   0.00027654
  9:  -0.01288830  -0.01397423   0.01050939
 10:   0.00614298   0.01428818  -0.00086868
 11:  -0.00130896   0.00015628  -0.00643066
 12:  -0.00810807   0.00746899   0.00239009
 13:  -0.00197914  -0.00355500  -0.00004783
 14:   0.01571427  -0.00596755  -0.00276546
 15:   0.00564667  -0.00378332  -0.01067466
 16:   0.00183773  -0.00124828   0.00969098
 17:  -0.00621088   0.00617843  -0.00007254
 18:  -0.00428612  -0.00086399   0.00343626
 19:   0.00001061   0.00129640  -0.00377963
 20:  -0.00076068   0.00218391  -0.00017018

-----------------------------------
NORM OF THE MP2 GRADIENT:  0.060171
-----------------------------------

-------------------------   --------------------
FINAL SINGLE POINT ENERGY      -534.243456606361
-------------------------   --------------------


                            ***************************************
                            *     ORCA property calculations      *
                            ***************************************

                                    ---------------------
                                    Active property flags
                                    ---------------------
   (+) Dipole Moment


------------------------------------------------------------------------------
                       ORCA ELECTRIC PROPERTIES CALCULATION
------------------------------------------------------------------------------

Dipole Moment Calculation                       ... on
Quadrupole Moment Calculation                   ... off
Polarizability Calculation                      ... off
GBWName                                         ... 12h2o.su.etal.mol0,1,3,5,7,8,9-orca.engrad-mp2.def2tzvp.frozencore.gbw
Electron density file                           ... 12h2o.su.etal.mol0,1,3,5,7,8,9-orca.engrad-mp2.def2tzvp.frozencore.scfp
The origin for moment calculation is the CENTER OF MASS  = (-0.003160, -1.172946  0.748221)

-------------
DIPOLE MOMENT
-------------
                                X             Y             Z
Electronic contribution:      0.28948       0.01501      -0.01281
Nuclear contribution   :      1.47399       0.45542       1.95129
                        -----------------------------------------
Total Dipole Moment    :      1.76347       0.47043       1.93848
                        -----------------------------------------
Magnitude (a.u.)       :      2.66249
Magnitude (Debye)      :      6.76751



--------------------
Rotational spectrum 
--------------------
 
Rotational constants in cm-1:     0.039479     0.020933     0.015978 
Rotational constants in MHz :  1183.549374   627.564612   478.998604 

 Dipole components along the rotational axes: 
x,y,z [a.u.] :     2.022582    -1.731120     0.035275 
x,y,z [Debye]:     5.140994    -4.400159     0.089663 

 

                         *** MP2 UNRELAXED DENSITY ***

------------------------------------------------------------------------------
                       ORCA ELECTRIC PROPERTIES CALCULATION
------------------------------------------------------------------------------

Dipole Moment Calculation                       ... on
Quadrupole Moment Calculation                   ... off
Polarizability Calculation                      ... off
GBWName                                         ... 12h2o.su.etal.mol0,1,3,5,7,8,9-orca.engrad-mp2.def2tzvp.frozencore.gbw
Electron density file                           ... 12h2o.su.etal.mol0,1,3,5,7,8,9-orca.engrad-mp2.def2tzvp.frozencore.pmp2ur
The origin for moment calculation is the CENTER OF MASS  = (-0.003160, -1.172946  0.748221)

-------------
DIPOLE MOMENT
-------------
                                X             Y             Z
Electronic contribution:      0.28039       0.01212      -0.02875
Nuclear contribution   :      1.47399       0.45542       1.95129
                        -----------------------------------------
Total Dipole Moment    :      1.75438       0.46754       1.92254
                        -----------------------------------------
Magnitude (a.u.)       :      2.64436
Magnitude (Debye)      :      6.72142



--------------------
Rotational spectrum 
--------------------
 
Rotational constants in cm-1:     0.039479     0.020933     0.015978 
Rotational constants in MHz :  1183.549374   627.564612   478.998604 

 Dipole components along the rotational axes: 
x,y,z [a.u.] :     2.006286    -1.722245     0.036169 
x,y,z [Debye]:     5.099574    -4.377599     0.091933 

 

                           *** MP2 RELAXED DENSITY ***

------------------------------------------------------------------------------
                       ORCA ELECTRIC PROPERTIES CALCULATION
------------------------------------------------------------------------------

Dipole Moment Calculation                       ... on
Quadrupole Moment Calculation                   ... off
Polarizability Calculation                      ... off
GBWName                                         ... 12h2o.su.etal.mol0,1,3,5,7,8,9-orca.engrad-mp2.def2tzvp.frozencore.gbw
Electron density file                           ... 12h2o.su.etal.mol0,1,3,5,7,8,9-orca.engrad-mp2.def2tzvp.frozencore.pmp2re
The origin for moment calculation is the CENTER OF MASS  = (-0.003160, -1.172946  0.748221)

-------------
DIPOLE MOMENT
-------------
                                X             Y             Z
Electronic contribution:      0.29795       0.02276      -0.03382
Nuclear contribution   :      1.47399       0.45542       1.95129
                        -----------------------------------------
Total Dipole Moment    :      1.77195       0.47818       1.91748
                        -----------------------------------------
Magnitude (a.u.)       :      2.65427
Magnitude (Debye)      :      6.74663



--------------------
Rotational spectrum 
--------------------
 
Rotational constants in cm-1:     0.039479     0.020933     0.015978 
Rotational constants in MHz :  1183.549374   627.564612   478.998604 

 Dipole components along the rotational axes: 
x,y,z [a.u.] :     2.001716    -1.742748     0.033711 
x,y,z [Debye]:     5.087958    -4.429713     0.085685 

 

Timings for individual modules:

Sum of individual times         ...      135.973 sec (=   2.266 min)
GTO integral calculation        ...        7.159 sec (=   0.119 min)   5.3 %
SCF iterations                  ...       27.331 sec (=   0.456 min)  20.1 %
MP2 module                      ...      101.483 sec (=   1.691 min)  74.6 %
                             ****ORCA TERMINATED NORMALLY****
TOTAL RUN TIME: 0 days 0 hours 2 minutes 20 seconds 623 msec
