29
Energy:   -771.22794869
O   -2.77230968   2.09778317   0.26372729
H   -2.89043627   1.88649146  -0.66235790
H   -2.16366508   1.43292845   0.58583257
O    0.83525276  -3.22688714   1.66873966
H    1.65605169  -2.82499288   1.95334813
H    0.58063866  -2.72853072   0.89218033
O   -0.65563038   3.31351427  -1.07471982
H   -0.03285723   2.58661690  -1.07709955
H   -1.31662031   3.06111934  -0.43003311
O    3.16843275   1.29436508   0.21661998
H    3.06848203   0.55927250   0.82150063
H    2.35072168   1.30878467  -0.28074561
O    2.46143794  -0.94555308   1.72041042
H    1.76809772  -0.65719815   2.31401182
H    2.01272786  -1.11649368   0.89235823
O   -0.04040371  -0.94105097   3.00689639
H   -0.41813895  -0.42353084   2.29575586
H    0.08404616  -1.81206122   2.62995446
O   -2.46776934   1.75903479  -2.47791302
H   -1.79071498   2.38742062  -2.22699374
H   -2.08535108   0.90351617  -2.28278227
O   -0.28206153  -2.82840449  -2.55470345
H   -0.81564730  -2.03572844  -2.49828745
H    0.34475063  -2.74743039  -1.83582824
S   -0.16556583  -0.13275962  -0.51433383
O    0.72220778   0.99430084  -0.91644417
O    0.65648387  -1.35306059  -0.27938739
O   -0.88918061   0.22721881   0.73742381
O   -1.15177437  -0.39949755  -1.59892758
