29
Energy:   -775.24133218
O    0.53069497   2.79330623  -0.39620518
H    0.75599082   1.89543249  -0.15269674
H   -0.03017986   2.69959194  -1.16618499
O    0.86123501  -3.20645294   1.68973246
H    1.22740688  -2.40747382   2.06891892
H    0.59055188  -2.95133576   0.80775870
O   -2.05674430   2.28266848   0.54773178
H   -1.98883993   1.32795473   0.53579440
H   -1.15250471   2.58848439   0.47660351
O    3.14640229   1.65006045  -0.58167582
H    2.56572963   0.91654092  -0.37919072
H    2.55856857   2.39651729  -0.69780315
O    1.19301902  -0.62238192   2.64590580
H    1.25486581  -0.28285076   1.75308699
H    0.26415116  -0.82165012   2.76307459
O   -1.34276353  -1.76567743   2.58185879
H   -1.53098655  -1.22937921   1.81167169
H   -0.74877939  -2.44476769   2.26209151
O   -1.53586919   2.33646309  -2.17339672
H   -1.17799451   1.45269745  -2.25775232
H   -1.96897958   2.33952989  -1.31979386
O   -0.24923025  -2.51233655  -3.30867075
H   -0.07725350  -2.78239754  -2.40660484
H   -0.40189028  -1.56909934  -3.25183478
S   -0.22225362  -0.58775914  -0.54175351
O    0.04967182  -2.05235057  -0.57534655
O    0.95796695   0.12365462   0.02487676
O   -0.47986890  -0.09857050  -1.92538239
O   -1.41678436  -0.32377010   0.30883812
