29
Energy:   -778.87319091
O    0.88275823   2.93027452  -0.46055531
H    1.05932652   1.99052445  -0.41667707
H    0.16673600   3.01076388  -1.09068662
O    0.80467258  -3.26304779   0.77762922
H    1.60949128  -2.74743070   0.82898793
H    0.30731312  -2.86128794   0.06527085
O   -1.51237541   2.61585739   0.97322388
H   -1.62146002   1.67284938   0.85047089
H   -0.59831119   2.78357162   0.74389794
O    2.86502490  -1.42581291   0.77507410
H    2.34702199  -0.96863349   0.11258499
H    2.56696026  -1.05950506   1.60766517
O    1.25981188   0.03650841   2.44095471
H    1.20113083   0.28195347   1.51762102
H    0.49302619  -0.51630267   2.59152519
O   -0.86814439  -1.70730806   2.38332847
H   -1.21730963  -1.10005196   1.73098231
H   -0.34959079  -2.33205338   1.87634987
O   -1.57583286   3.01904144  -1.75899235
H   -1.79740248   2.97031850  -0.82906502
H   -1.36753138   2.11737889  -2.00362881
O   -1.13830293  -1.68246131  -3.72628015
H   -0.87300560  -2.12023711  -2.91745289
H   -1.15938202  -0.75260745  -3.50009590
S   -0.42333961  -0.26574170  -0.75328905
O   -0.83836751   0.47202549  -1.97948292
O   -1.40879838  -0.01361841   0.33547395
O   -0.36965435  -1.72565460  -1.04632866
O    0.92346182   0.20428073  -0.32281855
