73
Energy:   -663.98644904
C    4.15835762  -0.82120947  -0.89096111
H    5.17699025  -1.06015486  -1.11499870
H    3.86525814   0.04596494  -1.44503722
H    3.53119052  -1.64527978  -1.16016111
C    4.01678377  -0.53934388   0.61639042
N    3.91137560  -0.32948214   1.73868215
C    2.94433571  -0.21727868  -5.01849714
H    2.40205551   0.09975996  -5.88470663
H    3.51993358  -1.08725277  -5.25668039
H    3.59871927   0.56727114  -4.70043610
C    1.95455825  -0.55063081  -3.88676531
N    1.21762395  -0.79882662  -3.04413952
C   -1.85140422   3.19340896   0.72957014
H   -1.28517917   2.65090571   1.45756711
H   -2.47137972   2.51478812   0.18184465
H   -2.46488309   3.91825880   1.22265785
C   -0.89109107   3.90767421  -0.23956546
N   -0.17609428   4.43947715  -0.96113097
C   -2.56465262  -0.57484789   3.24493668
H   -2.55261727   0.37471172   3.73798017
H   -1.90896292  -1.24963568   3.75447720
H   -3.55939696  -0.96892660   3.25414315
C   -2.09398848  -0.40313485   1.78871215
N   -1.74355762  -0.27528668   0.70448679
C    2.72133681   5.22031907  -2.64656943
H    1.70053827   5.53655411  -2.70010380
H    3.27729961   5.67375922  -3.44041859
H    3.13729469   5.51545029  -1.70594427
C    2.79168452   3.68779111  -2.78076792
N    2.84406158   2.54675437  -2.88068480
C    2.74877616   0.80806200   4.69992694
H    2.92553378  -0.22866558   4.89703818
H    2.66717034   1.33828343   5.62572650
H    3.56262328   1.20678182   4.13109088
C    1.44049492   0.96319403   3.90247210
N    0.46642006   1.07869688   3.30873072
C    1.31044516  -2.57365563   2.86966257
H    2.30842347  -2.29913370   3.14091372
H    1.14878702  -3.60557348   3.10185060
H    0.61414462  -1.97192041   3.41553744
C    1.10892122  -2.34962018   1.35943205
N    0.95887749  -2.18281560   0.23499679
C   -2.28952474  -4.91327337  -0.75661841
H   -1.55555502  -5.19632059  -0.03130958
H   -2.31392774  -5.63991819  -1.54166038
H   -3.25072537  -4.86045672  -0.28949653
C   -1.92735938  -3.53608565  -1.34295470
N   -1.65771081  -2.51070680  -1.77950873
C    2.51965444   2.98590313   1.00279923
H    2.60465648   3.84388096   0.36912039
H    3.49651850   2.61818200   1.23820713
H    2.01384508   3.25798363   1.90558834
C    1.71934698   1.88870545   0.27666891
N    1.12348171   1.07179191  -0.26396812
C   -4.22537140  -4.73570374   3.13120498
H   -4.54704077  -4.29505849   4.05167266
H   -4.19129579  -5.79982320   3.23791826
H   -4.91239971  -4.47713520   2.35272344
C   -2.82264169  -4.21051143   2.77326308
N   -1.77824566  -3.81948189   2.50675906
C   -4.63387482  -0.61350267  -1.43938612
H   -4.22172223  -1.07629121  -2.31165740
H   -4.03404454   0.22917613  -1.16553365
H   -5.63221355  -0.28862154  -1.64595605
C   -4.65351222  -1.62784841  -0.28080203
N   -4.66813316  -2.38307491   0.58181649
C   -0.54760028   2.88450218  -4.14273059
H   -1.22049632   2.94137788  -4.97271629
H    0.42064983   2.58783454  -4.48824341
H   -0.48008138   3.84300817  -3.67197954
C   -1.06986705   1.85008935  -3.12841923
N   -1.45871840   1.07992198  -2.37321832
Na  -0.27289873  -0.65373507  -1.16284139
