73
Energy:   -664.45042754
C    4.29035203   2.71348278   0.91674313
H    5.26104384   3.14131103   0.77666968
H    4.36422698   1.86658042   1.56651076
H    3.63908595   3.44188388   1.35284337
C    3.72429203   2.26828233  -0.44449625
N    3.30283463   1.93681036  -1.45800084
C   -1.26733953   5.01201263   3.28738034
H   -1.72023827   5.20902532   4.23657417
H   -1.55171501   5.77351518   2.59157609
H   -0.20272862   5.00628048   3.39447765
C   -1.73846053   3.64071478   2.76854778
N   -2.08923152   2.61972121   2.38225336
C   -2.75174990  -0.57838951   3.34392412
H   -1.79153675  -0.47656013   3.80492486
H   -3.24730025  -1.44063337   3.73872085
H   -3.33834040   0.29354088   3.54528964
C   -2.57626481  -0.73888932   1.82239700
N   -2.44560819  -0.85838873   0.68955089
C    2.69719549  -2.83972494   4.02044226
H    2.55443228  -3.29738646   4.97703244
H    3.32216431  -1.97779136   4.12713606
H    3.16295213  -3.53806182   3.35689463
C    1.33283605  -2.41649068   3.44511968
N    0.31700842  -2.10137353   3.01676587
C   -0.65901594  -4.55306834   0.78437406
H   -1.22312998  -4.20267780   1.62336273
H    0.20550516  -5.07985290   1.13078479
H   -1.26517376  -5.21008853   0.19632963
C   -0.21896260  -3.35357277  -0.07537209
N    0.10867711  -2.46049380  -0.71549218
C    0.09104887  -3.41725048  -4.27396522
H   -0.52671678  -2.61909663  -4.62923443
H    0.47376211  -3.96976370  -5.10652682
H    0.90528290  -3.01374337  -3.70907227
C   -0.74254119  -4.35153964  -3.37739877
N   -1.36318687  -5.04716038  -2.70986430
C    3.31433222  -1.50854663  -1.07157284
H    2.53347513  -0.91618787  -1.50084371
H    3.05242764  -2.54405426  -1.13504751
H    4.22592164  -1.33785165  -1.60520853
C    3.50312255  -1.11641600   0.40565151
N    3.64368554  -0.82445692   1.50551219
C   -4.56674185  -3.51728949  -2.39425293
H   -5.13700705  -3.40943106  -1.49532894
H   -4.10737246  -4.48351058  -2.41144757
H   -5.21277756  -3.41439047  -3.24098119
C   -3.47732435  -2.42998464  -2.44462843
N   -2.66620351  -1.62043676  -2.48213528
C   -4.33567135   2.76257708  -0.14186763
H   -4.14706887   3.79843894   0.04870908
H   -4.48797721   2.25124687   0.78562546
H   -5.21029591   2.66538398  -0.75054199
C   -3.12910364   2.14752790  -0.87501760
N   -2.23075913   1.68959583  -1.42088107
C    1.12444611   1.28090501   2.82140170
H    2.01133245   0.75032693   3.09856537
H    0.32162522   0.99658838   3.46912213
H    1.29678572   2.33339383   2.90780449
C    0.75541385   0.93894649   1.36590193
N    0.48065255   0.68434284   0.28221620
C    0.41373729   3.82818776  -1.66993017
H    1.11566823   4.33797147  -2.29627968
H   -0.57342665   4.18610026  -1.87561217
H    0.45977586   2.77704574  -1.86455799
C    0.75799907   4.09221308  -0.19230557
N    1.01431762   4.28879193   0.90785311
C    2.22880364   1.31018511  -4.60828548
H    1.83347267   1.46824005  -5.58993320
H    3.12553918   0.73015025  -4.67404285
H    2.44735956   2.25468572  -4.15545990
C    1.19259692   0.55814460  -3.75253395
N    0.42109391  -0.00178375  -3.11538804
Na  -1.02531441  -0.38781306  -1.23148158
