73
Energy:   -666.31573807
C    0.80039022   2.25108651   4.11668256
H    0.83999572   3.02257727   4.85704300
H    1.53255048   2.44430535   3.36070179
H    1.00233817   1.30576866   4.57547476
C   -0.60103211   2.22317682   3.47884520
N   -1.64445474   2.20239678   3.00394629
C   -0.39505916  -1.44943885  -3.38436315
H   -0.21715802  -0.73194626  -4.15796237
H   -0.19517468  -2.43242453  -3.75676674
H    0.24778251  -1.24516072  -2.55374644
C   -1.86400211  -1.36133489  -2.93044213
N   -2.95769691  -1.29573749  -2.59247730
C   -3.62352223  -4.22655203  -1.00786975
H   -4.29515298  -3.63240890  -1.59165589
H   -4.09765185  -5.15005584  -0.74856123
H   -2.73898323  -4.42685644  -1.57564435
C   -3.24755807  -3.46422889   0.27630874
N   -2.96763566  -2.89664466   1.23243799
C    3.11743239  -1.55697894   4.04338466
H    2.26991593  -2.18956026   4.20604043
H    3.31204062  -0.98700808   4.92778273
H    3.97172771  -2.15794930   3.81119243
C    2.82758501  -0.60191692   2.87059097
N    2.61178047   0.10917016   1.99739276
C   -1.22419882   4.39311029   0.29338458
H   -1.05864131   5.28503273   0.86080440
H   -2.03631706   3.84356227   0.72159018
H   -1.46241814   4.65226768  -0.71705497
C    0.04922532   3.52735260   0.31470590
N    0.99734747   2.88275665   0.33058059
C    0.52092794   3.31375220  -4.05526665
H   -0.13053181   2.90767668  -4.80065450
H    1.32983777   3.82823136  -4.53052990
H   -0.02438147   3.99815338  -3.43952988
C    1.07915642   2.17270385  -3.18464065
N    1.49478290   1.32314149  -2.53642001
C   -2.79344628   0.33430333   0.54292957
H   -3.02427187   0.01749203   1.53854512
H   -3.39439378  -0.21215217  -0.15359579
H   -2.99650495   1.38032037   0.44538664
C   -1.30405947   0.07127914   0.25285165
N   -0.19514329  -0.12455433   0.03687545
C   -2.94979243  -1.07340839   4.30806494
H   -3.17807963  -1.30146676   5.32824851
H   -3.41836279  -1.79194848   3.66850177
H   -3.31271774  -0.09503617   4.07148069
C   -1.42449460  -1.11913893   4.10076019
N   -0.28884104  -1.15318739   3.94641239
C    0.49031850  -3.30338311   1.45613773
H    0.71183655  -2.26267375   1.56907118
H    1.32442846  -3.88396219   1.79093260
H   -0.37256798  -3.54966541   2.03895076
C    0.21291432  -3.61116489  -0.02707409
N    0.00637429  -3.84032241  -1.13139270
C   -4.59736097   1.62929065  -3.12529161
H   -4.91719176   0.76782548  -2.57712538
H   -4.55071967   1.39177040  -4.16755252
H   -5.29285548   2.42789222  -2.97224909
C   -3.20317766   2.06161961  -2.63443057
N   -2.16514481   2.38350817  -2.26896221
C    6.59040356   2.98395133  -0.57373689
H    6.50333251   3.99219506  -0.22622662
H    6.96152243   2.98338934  -1.57731527
H    7.26718265   2.44645157   0.05710632
C    5.20752861   2.30723956  -0.53743184
N    4.17791535   1.80339689  -0.51040108
C    3.18612788  -3.45378758  -2.68629036
H    2.28410927  -4.02475280  -2.75882542
H    3.97359751  -4.07647216  -2.31608151
H    3.45104062  -3.08100775  -3.65363494
C    2.96971610  -2.27234635  -1.72246333
N    2.80858769  -1.39270965  -1.00485029
Na   2.02894322   0.76119582  -0.24262803
