91
Energy:   -557.09061968
C    3.44210759   1.07513069   0.05581184
H    4.03168360   0.27347786  -0.33744766
H    3.55008900   1.93707456  -0.56892160
H    2.41363052   0.78124190   0.08344122
C    3.91838536   1.41133745   1.48119758
N    4.27299580   1.66165867   2.54246205
C   -2.19718280   3.41393589   3.86489319
H   -3.21545195   3.34898462   3.54269844
H   -2.15233249   3.30898199   4.92878802
H   -1.62717436   2.63376975   3.40518649
C   -1.61657238   4.78133082   3.45903280
N   -1.18428152   5.79941849   3.15685129
C   -0.68648155  -0.25694482  -4.91807906
H   -0.89004439   0.78765519  -4.80729470
H   -0.64794012  -0.50444935  -5.95834593
H    0.25334791  -0.48755779  -4.46152969
C   -1.80162795  -1.07225761  -4.23740766
N   -2.63190513  -1.67929505  -3.73061686
C   -4.20073242   0.80800138   2.29957272
H   -3.24099180   1.15960798   1.98307480
H   -4.27225266   0.87682596   3.36495863
H   -4.96566107   1.40703941   1.85131311
C   -4.37818064  -0.65927480   1.86689184
N   -4.51029890  -1.75172860   1.54474125
C   -1.56255104   4.44037097  -0.27562331
H   -1.61093243   4.54795002  -1.33910165
H   -0.86977078   3.66380006  -0.02684183
H   -1.23798216   5.36143370   0.16163815
C   -2.95714277   4.07757672   0.26760248
N   -3.99547970   3.80745991   0.67205877
C   -1.40579511  -1.71677042   3.70416191
H   -0.69621954  -2.32498055   4.22520232
H   -0.94518119  -1.29707694   2.83433934
H   -2.24208505  -2.31630546   3.41077485
C   -1.88636175  -0.58256303   4.62840718
N   -2.24416545   0.26190592   5.31654979
C    0.61252101   1.87536342  -2.15484760
H   -0.00658213   2.56492347  -2.68974799
H    0.95419653   2.33125602  -1.24913304
H    0.04837791   0.99671993  -1.92112285
C    1.82375591   1.49135700  -3.02493328
N    2.72557535   1.20544677  -3.67275162
C    2.18027125  -1.83976512   1.73348483
H    1.58184290  -0.96766783   1.89544159
H    2.62969630  -1.78889364   0.76377956
H    2.94590664  -1.89048644   2.47922533
C    1.29278045  -3.09515165   1.82273017
N    0.63200320  -4.02984398   1.88917738
C    1.71903071   4.27494114   2.06862647
H    1.44428745   5.21691568   2.49535857
H    2.57742311   3.88941960   2.57797382
H    0.90572389   3.58697613   2.16930044
C    2.04956669   4.46422046   0.57647389
N    2.29566575   4.60514752  -0.53450152
C   -1.60972906  -2.19904616  -0.24018099
H   -1.52480141  -3.09666533   0.33598505
H   -2.49485040  -2.24252742  -0.83982146
H   -1.66555003  -1.35695328   0.41759001
C   -0.37770568  -2.05654905  -1.15309553
N    0.53959174  -1.95045347  -1.83280190
C   -0.57892153  -4.62249832  -3.96327066
H   -1.62318689  -4.38944082  -3.97297763
H   -0.16479045  -4.36473812  -3.01092922
H   -0.44551821  -5.66956924  -4.13861355
C    0.13600104  -3.82190805  -5.06759895
N    0.66829339  -3.22583221  -5.88982155
C   -3.45493517   0.85014171  -1.29419453
H   -3.73899909  -0.11606143  -1.65566285
H   -4.29072445   1.30927780  -0.80886019
H   -2.64979420   0.74757206  -0.59696675
C   -3.00198400   1.72756442  -2.47595788
N   -2.66474126   2.38084551  -3.35583442
C    3.30691640  -2.06709224  -3.91726981
H    3.90941219  -1.40995880  -4.50894086
H    2.30597620  -1.69137319  -3.87422321
H    3.30331942  -3.04185880  -4.35853650
C    3.88555646  -2.15069270  -2.49256400
N    4.31638029  -2.21293705  -1.43180577
C    2.50281228  -5.00039479  -0.83992424
H    3.50329490  -4.95583310  -0.46316310
H    1.92332910  -5.66635859  -0.23528339
H    2.06742613  -4.02337256  -0.81225586
C    2.52351842  -5.51222286  -2.29223388
N    2.53893508  -5.89330213  -3.37354442
C    1.38137269   1.29137226   4.47670955
H    1.61942984   1.42858050   3.44259017
H    1.99377277   1.93575253   5.07222555
H    0.35067385   1.52788806   4.63986366
C    1.64078636  -0.17393948   4.87315127
N    1.83393162  -1.26493068   5.16832016
Cl  -0.38600192   1.10987103   1.25492344
