91
Energy:   -561.95618441
C    0.95701868   1.80427858  -3.13456326
H    0.99869574   1.06645145  -3.90836836
H    0.77574653   2.76568778  -3.56784360
H    0.16594776   1.56434250  -2.45519843
C    2.29648441   1.82781616  -2.37503871
N    3.29377753   1.84534095  -1.80953816
C    2.92702455   1.14089684   1.59182139
H    1.96941949   1.21880577   1.12084057
H    3.67726176   0.96958473   0.84838654
H    3.14289153   2.04979038   2.11356183
C    2.91479212  -0.03280174   2.58875770
N    2.90568451  -0.90667368   3.33102210
C   -1.51438364  -0.92884382  -3.44048894
H   -1.34630035  -0.23603110  -4.23839791
H   -0.87141881  -1.77546324  -3.56185983
H   -1.30510170  -0.45322358  -2.50513577
C   -2.98289879  -1.39201559  -3.46362253
N   -4.07627507  -1.73686802  -3.48084654
C   -0.33251551   1.08961140   4.04515246
H    0.33217473   0.35234750   4.44456331
H   -0.75280477   0.73175280   3.12853190
H   -1.11736614   1.27991794   4.74707269
C    0.44532938   2.39187231   3.77930693
N    1.02447026   3.36146475   3.58137285
C   -2.26175512   4.01454500   1.87269781
H   -1.24069748   4.33161559   1.83018059
H   -2.88708878   4.76645529   1.43854597
H   -2.37407754   3.09974594   1.32916726
C   -2.66964225   3.79263802   3.34102522
N   -2.97333276   3.62741819   4.43426172
C   -3.96454767   0.50143099   2.87199189
H   -4.37724634   1.47799248   3.01658670
H   -3.12127276   0.56408565   2.21635409
H   -3.65428835   0.10213243   3.81496533
C   -5.03079895  -0.41957359   2.25033381
N   -5.82467149  -1.10530337   1.78748112
C   -2.25641940   3.84886047  -1.89704936
H   -1.75996832   4.74818876  -2.19645732
H   -1.66148041   3.33858715  -1.16864850
H   -3.20865488   4.09118505  -1.47346291
C   -2.45669836   2.94014427  -3.12412850
N   -2.60581515   2.26356375  -4.03774469
C   -3.12573366  -2.45310302   0.11332466
H   -4.00811638  -2.32490920  -0.47817113
H   -2.74950609  -1.49482387   0.40496308
H   -3.36167955  -3.02450633   0.98666702
C   -2.05766103  -3.19441962  -0.71206649
N   -1.26243241  -3.74636353  -1.32660772
C    1.42984943   4.13568756   0.28835825
H    1.29663329   4.82469639   1.09608375
H    2.44171815   3.78792212   0.27941533
H    0.76815856   3.30452244   0.41575063
C    1.11758620   4.84080990  -1.04464369
N    0.88509203   5.36580552  -2.03712422
C    0.02959116  -2.42179237   2.27222239
H    0.87151773  -2.73088200   2.85576625
H    0.23162376  -1.46764315   1.83213015
H   -0.15183962  -3.13963484   1.49976905
C   -1.21180715  -2.31703926   3.17751627
N   -2.13608463  -2.23904581   3.85154871
C    1.70866605  -5.28504668  -2.06876624
H    1.50352003  -6.29089824  -2.37055744
H    2.68663125  -5.00544290  -2.40088804
H    0.98357765  -4.62789845  -2.50155035
C    1.63996932  -5.18559483  -0.53351704
N    1.58882148  -5.11154841   0.60954577
C   -4.59184959   0.75466650  -1.14852570
H   -5.23964080  -0.03704917  -0.83475344
H   -3.57335194   0.46206671  -1.00038053
H   -4.75658088   0.96049756  -2.18553885
C   -4.88830035   2.01902961  -0.32081628
N   -5.10902142   2.96040542   0.29545100
C    5.40367109  -0.90413125  -2.53442387
H    4.67757107  -0.20746012  -2.89819341
H    5.06922182  -1.90182411  -2.72846442
H    6.33710397  -0.73805587  -3.03042904
C    5.58662404  -0.70990903  -1.01771495
N    5.72284083  -0.56530177   0.11154379
C    4.48977748  -3.47299482   1.73859164
H    4.94222157  -4.23512818   2.33804745
H    3.44189600  -3.42784038   1.95026254
H    4.93997322  -2.52857965   1.96287469
C    4.69881727  -3.80033357   0.24837297
N    4.85445689  -4.04405215  -0.86116258
C    1.67076475  -1.55045382  -0.84530952
H    0.65555830  -1.81112790  -0.63012341
H    1.85091391  -0.53957971  -0.54434622
H    2.32785109  -2.20422461  -0.31078133
C    1.92691036  -1.68924008  -2.35750257
N    2.11762240  -1.79257276  -3.48339903
Cl  -0.87234481   0.82258859   0.19196364
