91
Energy:   -557.73024574
C    2.37787816   3.39588979  -1.15305345
H    3.18116056   3.02896746  -1.75721036
H    2.04718283   4.33946106  -1.53412163
H    1.56702297   2.69810740  -1.17569595
C    2.86473227   3.57023173   0.29752504
N    3.22721728   3.70003723   1.37754667
C    1.48100392   1.77384280   3.62906778
H    1.87798325   2.74521508   3.83821724
H    1.01951831   1.77741543   2.66370911
H    2.27282536   1.05431656   3.64320579
C    0.43421191   1.40623020   4.69709750
N   -0.34517232   1.13252591   5.49229416
C    0.84982830   0.11216012  -3.47563964
H    0.25611644   0.60112975  -2.73178810
H    0.54600174  -0.91040409  -3.55901208
H    0.71595862   0.60193973  -4.41749628
C    2.33428757   0.17522101  -3.07066560
N    3.43953498   0.22217271  -2.76914402
C   -3.05406050   1.26611093   3.35728437
H   -4.02435155   0.93185428   3.05445115
H   -2.77434201   0.77348110   4.26501368
H   -2.34245346   1.03525398   2.59228791
C   -3.08433449   2.78847346   3.58770961
N   -3.10687484   3.92194157   3.75927168
C   -3.56781704   3.68560184   0.11788694
H   -3.53160752   4.38061538   0.93062627
H   -3.83973140   4.20044480  -0.77983150
H   -2.60631089   3.23322981  -0.00767007
C   -4.61243020   2.59538849   0.42090210
N   -5.39019219   1.78367510   0.64651066
C   -3.77032002  -1.24184761   0.27164486
H   -2.92666435  -0.58412344   0.24831649
H   -4.64210319  -0.71550335  -0.05676784
H   -3.59136686  -2.07459315  -0.37597364
C   -3.98739659  -1.74749086   1.70997816
N   -4.14901996  -2.12396524   2.78088268
C   -1.05359061   4.05342781  -2.64885752
H   -0.40644109   4.89983232  -2.55038370
H   -0.86149137   3.36320170  -1.85413437
H   -2.07265607   4.37628981  -2.60233008
C   -0.79478851   3.36396652  -4.00136061
N   -0.60209858   2.85063125  -5.00836063
C    0.47953616  -2.24769904  -0.63681052
H    1.23575569  -2.98370897  -0.81378958
H    0.19840300  -2.26624378   0.39542944
H    0.85955770  -1.27889721  -0.88561916
C   -0.75118219  -2.55605535  -1.50964998
N   -1.66750795  -2.78564063  -2.15951863
C   -0.24347643   4.63947902   2.00535255
H   -0.65752672   3.69024119   1.73626133
H   -0.91107229   5.14359993   2.67249344
H    0.70010668   4.49306790   2.48817114
C   -0.04476851   5.49083870   0.73755846
N    0.10317857   6.12471468  -0.20637186
C   -0.72116044  -1.69047573   3.07161067
H   -0.89804235  -0.97324418   2.29753582
H   -1.22156206  -1.38131621   3.96543263
H   -1.09507826  -2.64514218   2.76551178
C    0.79178641  -1.79370577   3.33981842
N    1.91824411  -1.87056522   3.53951127
C    0.11274632  -5.91847703  -1.97320090
H    0.01156451  -5.20427858  -2.76350653
H   -0.42754273  -5.57894824  -1.11430217
H   -0.28018328  -6.86127532  -2.29200618
C    1.60151241  -6.07813208  -1.61308176
N    2.70996644  -6.19700252  -1.34495668
C   -2.88161717   0.34697821  -2.92004003
H   -3.55530499  -0.48176804  -2.85504347
H   -2.26671986   0.37626233  -2.04485843
H   -2.26364297   0.23715962  -3.78661192
C   -3.68642510   1.65566507  -3.02597821
N   -4.28564118   2.63004192  -3.10485400
C    4.43985650  -3.30763282  -2.76761768
H    4.51674445  -3.96198312  -1.92451976
H    4.71223366  -2.31516690  -2.47483589
H    5.09752022  -3.64433468  -3.54157465
C    2.99062914  -3.30966759  -3.28851681
N    1.91161349  -3.31118257  -3.67634988
C    3.02877187  -4.91037354   1.99502439
H    3.56763308  -4.98091702   1.07331272
H    3.26306161  -5.75363575   2.61058613
H    3.30641910  -4.01021897   2.50250134
C    1.51640532  -4.89072610   1.70526347
N    0.39037968  -4.87609769   1.48952329
C    3.02041055   0.06431775   0.80383376
H    3.63073337   0.66643682   1.44403597
H    2.07366882  -0.10749893   1.27187033
H    2.87150030   0.57092844  -0.12679529
C    3.71892297  -1.28413912   0.54820809
N    4.23899721  -2.28812655   0.35788315
Cl  -0.51425374   1.17418947   0.18174757
