91
Energy:   -557.94792156
C    3.07420225   4.70113482   1.54666445
H    2.26228643   4.17045563   1.09492062
H    3.12249615   5.69060759   1.14230021
H    2.92055520   4.75511906   2.60419808
C    4.39438622   3.96311675   1.25676168
N    5.37732320   3.41362876   1.04091590
C   -0.15893833   0.13924252  -2.08314582
H    0.89025022   0.28068460  -1.92791143
H   -0.70179007   0.90638204  -1.57157174
H   -0.37428711   0.18757456  -3.13013579
C   -0.57774429  -1.23800024  -1.53596766
N   -0.88956437  -2.26342008  -1.12856865
C   -2.07486161  -4.51246114  -3.61276540
H   -1.87335525  -4.47345363  -2.56263504
H   -1.60431987  -5.37601067  -4.03439531
H   -3.13154270  -4.56888790  -3.77132200
C   -1.52127666  -3.24452241  -4.28913444
N   -1.10910750  -2.30048440  -4.79272194
C    1.23623456  -1.94332287   1.80568269
H    1.17584362  -1.79326829   0.74797917
H    2.01950993  -2.63911320   2.02306391
H    1.44403774  -1.01053938   2.28696420
C   -0.10326230  -2.50038328   2.32243396
N   -1.10057860  -2.91514008   2.70717877
C   -0.40847876   4.53244522   2.77957021
H   -0.32525078   4.65528476   1.71990813
H    0.40660138   3.93712206   3.13472341
H   -0.38236046   5.49167098   3.25296525
C   -1.73896411   3.83189913   3.11220199
N   -2.72957094   3.31031072   3.35986146
C   -3.83136375  -3.25446941   0.32213402
H   -3.46948047  -2.55554499  -0.40274207
H   -3.46988368  -2.98210294   1.29169462
H   -4.90131004  -3.24405697   0.32450128
C   -3.33254249  -4.66739083  -0.03343650
N   -2.96114739  -5.71937506  -0.29817492
C   -2.34693334   3.60407504  -0.39983894
H   -3.34495490   3.42380037  -0.05873163
H   -2.10171290   4.63561685  -0.25600734
H   -1.66475566   2.99455736   0.15515737
C   -2.24528821   3.25613592  -1.89657092
N   -2.16960879   2.99707943  -3.01095592
C   -2.41111641   0.11441962   1.53081551
H   -2.11074073   1.03651914   1.98292957
H   -1.56680611  -0.34310207   1.05889061
H   -2.79867374  -0.54155796   2.28207566
C   -3.50081760   0.38989270   0.47807343
N   -4.31214967   0.59499492  -0.30574090
C    1.47856278   3.49936327  -2.20992950
H    0.69613976   3.12569964  -2.83689832
H    1.77141211   2.74069866  -1.51454014
H    2.31864185   3.77376623  -2.81314526
C    0.97409614   4.73413653  -1.44022280
N    0.59849779   5.65348135  -0.86714118
C   -0.42564831   0.60405642   4.59329035
H   -0.16047906  -0.27753524   5.13861740
H   -0.11782651   0.49898695   3.57392523
H   -1.48586964   0.74274875   4.63321862
C    0.27560031   1.82449976   5.21808505
N    0.79771179   2.73317530   5.68327310
C    0.43480757  -5.30404410   0.03631975
H    0.13690750  -6.18957156   0.55785291
H   -0.33347783  -4.56423438   0.12186638
H    1.34149737  -4.92750794   0.46179974
C    0.66436251  -5.63625064  -1.44979712
N    0.83527660  -5.88359351  -2.55627868
C   -3.63694718  -0.07939403  -3.55028354
H   -4.39977620   0.62880470  -3.79816786
H   -2.98470153  -0.20911591  -4.38852391
H   -3.07515463   0.27976483  -2.71344835
C   -4.28635229  -1.42889094  -3.19149236
N   -4.76986392  -2.43365272  -2.92435602
C    2.15729464  -2.68456693  -3.54842876
H    1.47286687  -3.46742859  -3.80059226
H    3.00051853  -2.72246543  -4.20602762
H    1.66896113  -1.73780954  -3.64882753
C    2.63158299  -2.86590908  -2.09454926
N    2.98471222  -3.00092656  -1.01206989
C    3.53228535   1.35847410   3.51407751
H    4.49359494   1.70076078   3.83598415
H    2.80145928   2.11626938   3.70522841
H    3.56152423   1.14756806   2.46547710
C    3.15847858   0.07872319   4.28486029
N    2.88016244  -0.87410954   4.85874311
C    3.95076549   0.38658064  -0.38397942
H    4.97296510   0.12603103  -0.20475320
H    3.31247345  -0.35513799   0.04884369
H    3.74249125   1.33839692   0.05824981
C    3.69798434   0.45919384  -1.90135511
N    3.50977728   0.51325768  -3.03111029
Cl   0.84349756   1.65054385   1.03411400
