91
Energy:   -557.65062545
C    1.93845157   2.66811706  -1.43503342
H    1.02682672   2.19534548  -1.13448833
H    2.48045295   2.01561353  -2.08723948
H    1.71497681   3.58013725  -1.94804151
C    2.79207118   2.97504526  -0.19055416
N    3.42762978   3.20356726   0.73601722
C    1.76407284   0.65566968   2.36645626
H    1.67356100  -0.40458543   2.47855838
H    2.79831235   0.92932769   2.38540403
H    1.33329749   0.95374267   1.43345884
C    1.02580362   1.35878045   3.52066326
N    0.47612864   1.88227838   4.38002284
C    0.84137345  -0.64577230  -2.49943122
H    0.21176665   0.18249558  -2.24949567
H    0.23602146  -1.48009830  -2.78639495
H    1.48245146  -0.37405465  -3.31188896
C    1.69611934  -1.02812413  -1.27680431
N    2.33251651  -1.31280244  -0.36650301
C   -2.72902305   2.54943687   3.51480985
H   -2.32831708   2.38866282   4.49383315
H   -2.90086740   3.59516094   3.36706078
H   -2.03405771   2.19521121   2.78238480
C   -4.05864562   1.78558919   3.37254068
N   -5.04861007   1.21686987   3.26661482
C   -4.66933074   2.77489751  -0.09816810
H   -5.29733263   2.29591267   0.62369569
H   -3.90148992   2.09735610  -0.40842154
H   -5.25538415   3.06224493  -0.94603127
C   -4.02711433   4.02586753   0.52971095
N   -3.54895501   4.95727156   0.99719544
C   -4.38878134  -1.03974879   0.48699495
H   -4.13756469  -0.13284598   0.99622739
H   -5.42468311  -1.02342298   0.21952517
H   -3.79338145  -1.12879400  -0.39757783
C   -4.11635162  -2.24035146   1.41216266
N   -3.91351532  -3.13425471   2.10099207
C   -1.80938076   3.67588380  -2.36408667
H   -1.59317643   3.31816779  -1.37910184
H   -2.86024719   3.59710201  -2.54948422
H   -1.50853220   4.69945839  -2.44584416
C   -1.04108691   2.83093056  -3.39722683
N   -0.46905722   2.20182447  -4.16644664
C   -0.60711484  -2.91945361   0.65717221
H   -0.49174683  -1.87310116   0.84884107
H    0.35725395  -3.37777333   0.58763828
H   -1.15919653  -3.36956698   1.45560997
C   -1.36654510  -3.11795476  -0.66776664
N   -1.93197545  -3.26574789  -1.65424385
C   -0.13093627   4.40633082   1.60356682
H   -0.46770965   3.42419187   1.34494169
H   -0.88632293   4.90326439   2.17570938
H    0.76592862   4.33486323   2.18272556
C    0.15014327   5.20752516   0.31877816
N    0.35941976   5.80405077  -0.63780540
C   -1.71632799  -0.96800809   3.82705887
H   -1.75943310  -0.59066922   2.82673016
H   -1.68225583  -0.14980350   4.51573835
H   -2.58458569  -1.56222165   4.02183544
C   -0.45368304  -1.83347517   3.99526841
N    0.48641352  -2.47785475   4.12050806
C    0.57609907  -4.76883265  -3.30330323
H    1.06871606  -5.26817215  -4.11131855
H    0.46429907  -3.73140810  -3.54026346
H   -0.38853493  -5.20546890  -3.14926066
C    1.41636065  -4.91484337  -2.02102348
N    2.04197358  -5.02355498  -1.06630792
C   -2.77759825  -0.36191705  -3.18825667
H   -3.19010575  -1.33501330  -3.35505421
H   -2.29546577  -0.33779492  -2.23334018
H   -2.06358074  -0.14115922  -3.95398774
C   -3.90545962   0.68617192  -3.22047853
N   -4.74520367   1.46652180  -3.24446917
C    4.93995311  -2.95827478  -2.15192830
H    5.32969220  -3.95232116  -2.08210418
H    4.45646309  -2.69938297  -1.23317288
H    5.74064434  -2.27355804  -2.33889252
C    3.92248570  -2.88568188  -3.30565720
N    3.16493497  -2.83163316  -4.16466080
C    2.98210460  -3.58652475   2.10158675
H    2.36434957  -2.72924846   1.93319356
H    2.96088525  -3.84297654   3.14018258
H    2.61591233  -4.40911925   1.52353779
C    4.42879577  -3.26734116   1.68110308
N    5.50592310  -3.02969448   1.36803388
C    5.30843970   0.28505302   0.53980834
H    6.18841512  -0.29456520   0.72578188
H    4.45926851  -0.21014059   0.96240823
H    5.41675227   1.25126455   0.98657760
C    5.10821514   0.44135656  -0.97909894
N    4.95913885   0.55773166  -2.10999446
Cl  -1.33214706   0.87281807   0.24198778
