36
Energy:   -480.69847758
O   -2.73642910   1.74203968   0.90428840
H   -2.04184044   1.29378527   1.38683003
H   -3.31530895   2.08849286   1.58333197
O   -0.97622847   3.04304429  -0.79254058
H   -1.63842501   2.73916728  -0.17174564
H   -0.14172814   2.80165163  -0.39058209
O    1.20295260   1.59311211   0.25127937
H    1.04168094   1.04455344  -0.51638377
H    2.02447890   1.26222576   0.61437798
O    3.29181785  -0.01384558   1.14537903
H    4.24261002   0.03943102   1.24226916
H    3.15817705  -0.62858335   0.42394335
O   -3.15897048  -0.07288655  -1.20376099
H   -3.19870772   0.56211283  -0.48861863
H   -2.69819191   0.38554945  -1.90643544
O    0.57395717  -0.12917078  -1.76193976
H   -0.00639393  -0.63309371  -1.19142584
H   -0.01717202   0.35076856  -2.34198834
O   -1.45523425   1.39723547  -2.87023609
H   -1.61694426   1.89336229  -3.67269474
H   -1.29678691   2.06503692  -2.20302733
O    2.63638760  -1.74425968  -0.81199403
H    2.08899742  -2.41275209  -0.40003076
H    2.03216581  -1.24377546  -1.36032187
O   -1.08416073  -1.38036015  -0.03531484
H   -1.91884436  -1.20891516  -0.47136724
H   -0.99726291  -2.33350056  -0.04959657
O   -0.60460809   0.40642383   1.91975534
H   -0.82451731  -0.30268900   1.31557757
H    0.05763055   0.91951821   1.45671541
O    1.36297996  -1.44351595   2.54008864
H    0.64889152  -0.80641274   2.56031376
H    2.11536233  -0.95039773   2.21299990
O    0.95907500  -3.37759778   0.67077313
H    1.23371794  -4.21131203   1.05251081
H    1.05057128  -2.74548334   1.38371885
