
                                 *****************
                                 * O   R   C   A *
                                 *****************

           --- An Ab Initio, DFT and Semiempirical electronic structure package ---

                  #######################################################
                  #                        -***-                        #
                  #          Department of theory and spectroscopy      #
                  #               Directorship: Frank Neese             #
                  #        Max Planck Institute fuer Kohlenforschung    #
                  #                Kaiser Wilhelm Platz 1               #
                  #                 D-45470 Muelheim/Ruhr               #
                  #                      Germany                        #
                  #                                                     #
                  #                  All rights reserved                #
                  #                        -***-                        #
                  #######################################################


                         Program Version 4.2.0 -  RELEASE  -


 With contributions from (in alphabetic order):
   Daniel Aravena         : Magnetic Suceptibility
   Michael Atanasov       : Ab Initio Ligand Field Theory (pilot matlab implementation)
   Alexander A. Auer      : GIAO ZORA, VPT2
   Ute Becker             : Parallelization
   Giovanni Bistoni       : ED, misc. LED, open-shell LED, HFLED
   Martin Brehm           : Molecular dynamics
   Dmytro Bykov           : SCF Hessian
   Vijay G. Chilkuri      : MRCI spin determinant printing, contributions to CSF-ICE
   Dipayan Datta          : RHF DLPNO-CCSD density
   Achintya Kumar Dutta   : EOM-CC, STEOM-CC
   Dmitry Ganyushin       : Spin-Orbit,Spin-Spin,Magnetic field MRCI
   Miquel Garcia          : C-PCM Hessian, Gaussian charge scheme
   Yang Guo               : DLPNO-NEVPT2, CIM, IAO-localization
   Andreas Hansen         : Spin unrestricted coupled pair/coupled cluster methods
   Benjamin Helmich-Paris : CASSCF linear response (MC-RPA)
   Lee Huntington         : MR-EOM, pCC
   Robert Izsak           : Overlap fitted RIJCOSX, COSX-SCS-MP3, EOM
   Christian Kollmar      : KDIIS, OOCD, Brueckner-CCSD(T), CCSD density
   Simone Kossmann        : Meta GGA functionals, TD-DFT gradient, OOMP2, MP2 Hessian
   Martin Krupicka        : AUTO-CI
   Lucas Lang             : DCDCAS
   Dagmar Lenk            : GEPOL surface, SMD
   Dimitrios Liakos       : Extrapolation schemes; Compound Job, initial MDCI parallelization
   Dimitrios Manganas     : Further ROCIS development; embedding schemes
   Dimitrios Pantazis     : SARC Basis sets
   Taras Petrenko         : DFT Hessian,TD-DFT gradient, ASA, ECA, R-Raman, ABS, FL, XAS/XES, NRVS
   Peter Pinski           : DLPNO-MP2, DLPNO-MP2 Gradient
   Christoph Reimann      : Effective Core Potentials
   Marius Retegan         : Local ZFS, SOC
   Christoph Riplinger    : Optimizer, TS searches, QM/MM, DLPNO-CCSD(T), (RO)-DLPNO pert. Triples
   Tobias Risthaus        : Range-separated hybrids, TD-DFT gradient, RPA, STAB
   Michael Roemelt        : Original ROCIS implementation
   Masaaki Saitow         : Open-shell DLPNO-CCSD energy and density
   Barbara Sandhoefer     : DKH picture change effects
   Avijit Sen             : IP-ROCIS
   Kantharuban Sivalingam : CASSCF convergence, NEVPT2, FIC-MRCI
   Bernardo de Souza      : ESD, SOC TD-DFT
   Georgi Stoychev        : AutoAux, RI-MP2 NMR
   Willem Van den Heuvel  : Paramagnetic NMR
   Boris Wezisla          : Elementary symmetry handling
   Frank Wennmohs         : Technical directorship


 We gratefully acknowledge several colleagues who have allowed us to
 interface, adapt or use parts of their codes:
   Stefan Grimme, W. Hujo, H. Kruse,             : VdW corrections, initial TS optimization,
                  C. Bannwarth                     DFT functionals, gCP, sTDA/sTD-DF
   Ed Valeev, F. Pavosevic, A. Kumar             : LibInt (2-el integral package), F12 methods
   Garnet Chan, S. Sharma, J. Yang, R. Olivares  : DMRG
   Ulf Ekstrom                                   : XCFun DFT Library
   Mihaly Kallay                                 : mrcc  (arbitrary order and MRCC methods)
   Andreas Klamt, Michael Diedenhofen            : otool_cosmo (COSMO solvation model)
   Jiri Pittner, Ondrej Demel                    : Mk-CCSD
   Frank Weinhold                                : gennbo (NPA and NBO analysis)
   Christopher J. Cramer and Donald G. Truhlar   : smd solvation model
   Lars Goerigk                                  : TD-DFT with DH, B97 family of functionals
   V. Asgeirsson, H. Jonsson                     : NEB implementation
   FAccTs GmbH                                   : IRC, NEB, NEB-TS, Multilevel, MM, QM/MM, CI optimization
   S Lehtola, MJT Oliveira, MAL Marques          : LibXC Library


 Your calculation uses the libint2 library for the computation of 2-el integrals
 For citations please refer to: http://libint.valeyev.net

 Your ORCA version has been built with support for libXC version: 4.2.3
 For citations please refer to: https://tddft.org/programs/libxc/

 This ORCA versions uses:
   CBLAS   interface :  Fast vector & matrix operations
   LAPACKE interface :  Fast linear algebra routines
   SCALAPACK package :  Parallel linear algebra routines


----- Orbital basis set information -----
Your calculation utilizes the basis: def2-TZVP
   F. Weigend and R. Ahlrichs, Phys. Chem. Chem. Phys. 7, 3297 (2005).

================================================================================
                                        WARNINGS
                       Please study these warnings very carefully!
================================================================================


WARNING: The frozen-core approximation for MP2-gradient calculations is turned on by default.

INFO   : the flag for use of LIBINT has been found!

================================================================================
                                       INPUT FILE
================================================================================
NAME = 12mecn.remya.etal.2.mol3,4,7-orca.engrad-mp2.def2tzvp.frozencore.inp
|  1> # 12mecn.remya.etal.2.mol3,4,7
|  2> ! MP2 def2-TZVP EnGrad TightSCF
|  3> 
|  4> %pal
|  5>     nprocs 6
|  6> end
|  7> 
|  8> %maxcore 8000
|  9> 
| 10> %scf
| 11>     ConvForced true
| 12> end
| 13> 
| 14> *xyz 0 1
| 15> C  -5.181310000   2.853865000  -1.626100000
| 16> H  -5.488260000   3.811434000  -2.053310000
| 17> H  -5.857590000   2.068112000  -1.968630000
| 18> H  -4.170750000   2.611402000  -1.966640000
| 19> C  -5.187260000   2.919160000  -0.181450000
| 20> N  -5.181700000   2.970641000   0.983640000
| 21> C  -1.509690000  -0.693960000  -1.610140000
| 22> H  -1.327010000  -1.692700000  -2.017370000
| 23> H  -0.742170000  -0.000650000  -1.964400000
| 24> H  -2.491920000  -0.334310000  -1.929350000
| 25> C  -1.473570000  -0.748120000  -0.167200000
| 26> N  -1.447490000  -0.793720000   0.998938000
| 27> C   1.502241000   0.651296000   1.710523000
| 28> H   1.309219000   1.637164000   2.143202000
| 29> H   2.493408000   0.297996000   2.009069000
| 30> H   0.746597000  -0.059850000   2.055508000
| 31> C   1.447974000   0.738517000   0.269805000
| 32> N   1.405612000   0.808047000  -0.894380000
| 33> *
| 34> 
| 35>                          ****END OF INPUT****
================================================================================

                     *******************************
                     * Energy+Gradient Calculation *
                     *******************************

---------------------------------
CARTESIAN COORDINATES (ANGSTROEM)
---------------------------------
  C     -5.181310    2.853865   -1.626100
  H     -5.488260    3.811434   -2.053310
  H     -5.857590    2.068112   -1.968630
  H     -4.170750    2.611402   -1.966640
  C     -5.187260    2.919160   -0.181450
  N     -5.181700    2.970641    0.983640
  C     -1.509690   -0.693960   -1.610140
  H     -1.327010   -1.692700   -2.017370
  H     -0.742170   -0.000650   -1.964400
  H     -2.491920   -0.334310   -1.929350
  C     -1.473570   -0.748120   -0.167200
  N     -1.447490   -0.793720    0.998938
  C      1.502241    0.651296    1.710523
  H      1.309219    1.637164    2.143202
  H      2.493408    0.297996    2.009069
  H      0.746597   -0.059850    2.055508
  C      1.447974    0.738517    0.269805
  N      1.405612    0.808047   -0.894380

----------------------------
CARTESIAN COORDINATES (A.U.)
----------------------------
  NO LB      ZA    FRAG     MASS         X           Y           Z
   0 C     6.0000    0    12.011   -9.791257    5.393023   -3.072884
   1 H     1.0000    0     1.008  -10.371308    7.202566   -3.880194
   2 H     1.0000    0     1.008  -11.069241    3.908165   -3.720172
   3 H     1.0000    0     1.008   -7.881575    4.934835   -3.716411
   4 C     6.0000    0    12.011   -9.802501    5.516413   -0.342891
   5 N     7.0000    0    14.007   -9.791994    5.613698    1.858810
   6 C     6.0000    0    12.011   -2.852901   -1.311394   -3.042724
   7 H     1.0000    0     1.008   -2.507685   -3.198739   -3.812277
   8 H     1.0000    0     1.008   -1.402498   -0.001228   -3.712178
   9 H     1.0000    0     1.008   -4.709046   -0.631754   -3.645943
  10 C     6.0000    0    12.011   -2.784644   -1.413742   -0.315962
  11 N     7.0000    0    14.007   -2.735360   -1.499913    1.887719
  12 C     6.0000    0    12.011    2.838824    1.230771    3.232420
  13 H     1.0000    0     1.008    2.474065    3.093792    4.050065
  14 H     1.0000    0     1.008    4.711858    0.563131    3.796590
  15 H     1.0000    0     1.008    1.410864   -0.113100    3.884347
  16 C     6.0000    0    12.011    2.736274    1.395595    0.509858
  17 N     7.0000    0    14.007    2.656222    1.526988   -1.690133

--------------------------------
INTERNAL COORDINATES (ANGSTROEM)
--------------------------------
 C      0   0   0     0.000000000000     0.00000000     0.00000000
 H      1   0   0     1.092549804980     0.00000000     0.00000000
 H      1   2   0     1.091828382260   109.51558462     0.00000000
 H      1   2   3     1.093612048017   109.40049403   118.63738183
 C      1   2   3     1.446137082722   110.48058825   238.58537286
 N      5   1   2     1.166240076083   179.48782841   245.97133151
 C      4   1   2     4.258374164472   136.34135751   185.38048285
 H      7   4   1     1.093933198555   141.43008047    77.52257360
 H      7   4   1     1.093282147526    85.37354099   194.10121866
 H      7   4   1     1.093626499085    32.75985702    56.98172023
 C      7   4   1     1.444407769157    97.37505519   302.96338107
 N     11   7   4     1.167320590688   179.82285150    81.60201053
 C     12  11   7     3.360853675012   102.37599048   176.20143007
 H     13  12  11     1.093802689222   108.44532641   108.12217721
 H     13  12  11     1.093783628514   135.58124102   257.11437053
 H     13  12  11     1.093499491667    34.98317750   206.60063568
 C     13  12  11     1.444375562537    77.39648930     1.52261537
 N     17  13  12     1.167028566132   179.91347457   239.46838652

---------------------------
INTERNAL COORDINATES (A.U.)
---------------------------
 C      0   0   0     0.000000000000     0.00000000     0.00000000
 H      1   0   0     2.064619919081     0.00000000     0.00000000
 H      1   2   0     2.063256627714   109.51558462     0.00000000
 H      1   2   3     2.066627267510   109.40049403   118.63738183
 C      1   2   3     2.732803038453   110.48058825   238.58537286
 N      5   1   2     2.203874350199   179.48782841   245.97133151
 C      4   1   2     8.047160946618   136.34135751   185.38048285
 H      7   4   1     2.067234154073   141.43008047    77.52257360
 H      7   4   1     2.066003845930    85.37354099   194.10121866
 H      7   4   1     2.066654576069    32.75985702    56.98172023
 C      7   4   1     2.729535109414    97.37505519   302.96338107
 N     11   7   4     2.205916226887   179.82285150    81.60201053
 C     12  11   7     6.351093021956   102.37599048   176.20143007
 H     13  12  11     2.066987527176   108.44532641   108.12217721
 H     13  12  11     2.066951507658   135.58124102   257.11437053
 H     13  12  11     2.066414566834    34.98317750   206.60063568
 C     13  12  11     2.729474247723    77.39648930     1.52261537
 N     17  13  12     2.205364380453   179.91347457   239.46838652

---------------------
BASIS SET INFORMATION
---------------------
There are 3 groups of distinct atoms

 Group   1 Type C   : 11s6p2d1f contracted to 5s3p2d1f pattern {62111/411/11/1}
 Group   2 Type H   : 5s1p contracted to 3s1p pattern {311/1}
 Group   3 Type N   : 11s6p2d1f contracted to 5s3p2d1f pattern {62111/411/11/1}

Atom   0C    basis set group =>   1
Atom   1H    basis set group =>   2
Atom   2H    basis set group =>   2
Atom   3H    basis set group =>   2
Atom   4C    basis set group =>   1
Atom   5N    basis set group =>   3
Atom   6C    basis set group =>   1
Atom   7H    basis set group =>   2
Atom   8H    basis set group =>   2
Atom   9H    basis set group =>   2
Atom  10C    basis set group =>   1
Atom  11N    basis set group =>   3
Atom  12C    basis set group =>   1
Atom  13H    basis set group =>   2
Atom  14H    basis set group =>   2
Atom  15H    basis set group =>   2
Atom  16C    basis set group =>   1
Atom  17N    basis set group =>   3


           ************************************************************
           *        Program running with 6 parallel MPI-processes     *
           *              working on a common directory               *
           ************************************************************
------------------------------------------------------------------------------
                           ORCA GTO INTEGRAL CALCULATION
------------------------------------------------------------------------------

                         BASIS SET STATISTICS AND STARTUP INFO

 # of primitive gaussian shells          ...  234
 # of primitive gaussian functions       ...  486
 # of contracted shells                  ...  135
 # of contracted basis functions         ...  333
 Highest angular momentum                ...    3
 Maximum contraction depth               ...    6
 Integral package used                   ... LIBINT
 Integral threshhold            Thresh   ...  2.500e-11
 Primitive cut-off              TCut     ...  2.500e-12


------------------------------ INTEGRAL EVALUATION ----------------------------


 * One electron integrals 
 Pre-screening matrix                    ... done
 Shell pair data                         ... done (   0.002 sec)



           ************************************************************
           *        Program running with 6 parallel MPI-processes     *
           *              working on a common directory               *
           ************************************************************
-------------------------------------------------------------------------------
                                 ORCA SCF
-------------------------------------------------------------------------------

------------
SCF SETTINGS
------------
Hamiltonian:
 Ab initio Hamiltonian  Method          .... Hartree-Fock(GTOs)


General Settings:
 Integral files         IntName         .... 12mecn.remya.etal.2.mol3,4,7-orca.engrad-mp2.def2tzvp.frozencore
 Hartree-Fock type      HFTyp           .... RHF
 Total Charge           Charge          ....    0
 Multiplicity           Mult            ....    1
 Number of Electrons    NEL             ....   66
 Basis Dimension        Dim             ....  333
 Nuclear Repulsion      ENuc            ....    327.4119891084 Eh

Convergence Acceleration:
 DIIS                   CNVDIIS         .... on
   Start iteration      DIISMaxIt       ....    12
   Startup error        DIISStart       ....  0.200000
   # of expansion vecs  DIISMaxEq       ....     5
   Bias factor          DIISBfac        ....   1.050
   Max. coefficient     DIISMaxC        ....  10.000
 Newton-Raphson         CNVNR           .... off
 SOSCF                  CNVSOSCF        .... on
   Start iteration      SOSCFMaxIt      ....   150
   Startup grad/error   SOSCFStart      ....  0.003300
 Level Shifting         CNVShift        .... on
   Level shift para.    LevelShift      ....    0.2500
   Turn off err/grad.   ShiftErr        ....    0.0010
 Zerner damping         CNVZerner       .... off
 Static damping         CNVDamp         .... on
   Fraction old density DampFac         ....    0.7000
   Max. Damping (<1)    DampMax         ....    0.9800
   Min. Damping (>=0)   DampMin         ....    0.0000
   Turn off err/grad.   DampErr         ....    0.1000
 Fernandez-Rico         CNVRico         .... off

SCF Procedure:
 Maximum # iterations   MaxIter         ....   125
 SCF integral mode      SCFMode         .... Direct
   Integral package                     .... LIBINT
 Reset frequency        DirectResetFreq ....    20
 Integral Threshold     Thresh          ....  2.500e-11 Eh
 Primitive CutOff       TCut            ....  2.500e-12 Eh

Convergence Tolerance:
 Convergence Check Mode ConvCheckMode   .... Total+1el-Energy
 Convergence forced     ConvForced      .... 1
 Energy Change          TolE            ....  1.000e-08 Eh
 1-El. energy change                    ....  1.000e-05 Eh
 Orbital Gradient       TolG            ....  1.000e-05
 Orbital Rotation angle TolX            ....  1.000e-05
 DIIS Error             TolErr          ....  5.000e-07


Diagonalization of the overlap matrix:
Smallest eigenvalue                        ... 1.484e-04
Time for diagonalization                   ...    0.234 sec
Threshold for overlap eigenvalues          ... 1.000e-08
Number of eigenvalues below threshold      ... 0
Time for construction of square roots      ...    0.009 sec
Total time needed                          ...    0.244 sec

-------------------
DFT GRID GENERATION
-------------------

General Integration Accuracy     IntAcc      ...  4.340
Radial Grid Type                 RadialGrid  ... Gauss-Chebyshev
Angular Grid (max. acc.)         AngularGrid ... Lebedev-110
Angular grid pruning method      GridPruning ... 3 (G Style)
Weight generation scheme         WeightScheme... Becke
Basis function cutoff            BFCut       ...    1.0000e-11
Integration weight cutoff        WCut        ...    1.0000e-14
Grids for H and He will be reduced by one unit

# of grid points (after initial pruning)     ...  22188 (   0.0 sec)
# of grid points (after weights+screening)   ...  20910 (   0.0 sec)
nearest neighbour list constructed           ...    0.0 sec
Grid point re-assignment to atoms done       ...    0.0 sec
Grid point division into batches done        ...    0.0 sec
Reduced shell lists constructed in    0.0 sec

Total number of grid points                  ...    20910
Total number of batches                      ...      337
Average number of points per batch           ...       62
Average number of grid points per atom       ...     1162
Average number of shells per batch           ...    56.41 (41.79%)
Average number of basis functions per batch  ...   129.86 (39.00%)
Average number of large shells per batch     ...    39.67 (70.32%)
Average number of large basis fcns per batch ...    93.19 (71.76%)
Maximum spatial batch extension              ...  16.91, 15.70, 19.63 au
Average spatial batch extension              ...   0.74,  0.72,  0.83 au

Time for grid setup =    0.093 sec

------------------------------
INITIAL GUESS: MODEL POTENTIAL
------------------------------
Loading Hartree-Fock densities                     ... done
Calculating cut-offs                               ... done
Setting up the integral package                    ... done
Initializing the effective Hamiltonian             ... done
Starting the Coulomb interaction                   ... done (   0.0 sec)
Reading the grid                                   ... done
Mapping shells                                     ... done
Starting the XC term evaluation                    ... done (   0.0 sec)
Transforming the Hamiltonian                       ... done (   0.0 sec)
Diagonalizing the Hamiltonian                      ... done (   0.0 sec)
Back transforming the eigenvectors                 ... done (   0.0 sec)
Now organizing SCF variables                       ... done
                      ------------------
                      INITIAL GUESS DONE (   0.3 sec)
                      ------------------
--------------
SCF ITERATIONS
--------------
ITER       Energy         Delta-E        Max-DP      RMS-DP      [F,P]     Damp
               ***  Starting incremental Fock matrix formation  ***
  0   -395.4410914106   0.000000000000 0.03799968  0.00085088  0.2839273 0.7000
  1   -395.6148918590  -0.173800448393 0.02719796  0.00067111  0.1879190 0.7000
                               ***Turning on DIIS***
  2   -395.7169084551  -0.102016596020 0.01617416  0.00044435  0.1421793 0.7000
  3   -396.6723698047  -0.955461349617 0.01072207  0.00029208  0.1056493 0.7000
  4   -396.6188207941   0.053549010533 0.02899637  0.00071271  0.0744177 0.0000
  5   -395.9553287809   0.663492013262 0.00629645  0.00011477  0.0062345 0.0000
                      *** Initiating the SOSCF procedure ***
                           *** Shutting down DIIS ***
                      *** Re-Reading the Fockian *** 
                      *** Removing any level shift *** 
ITER      Energy       Delta-E        Grad      Rot      Max-DP    RMS-DP
  6   -395.93694778   0.0183809964  0.001232  0.001232  0.004359  0.000071
               *** Restarting incremental Fock matrix formation ***
  7   -395.92732041   0.0096273783  0.000465  0.000739  0.002958  0.000050
  8   -395.92733972  -0.0000193090  0.000324  0.000536  0.002531  0.000042
  9   -395.92734424  -0.0000045240  0.000113  0.000136  0.000785  0.000012
 10   -395.92734491  -0.0000006752  0.000021  0.000036  0.000093  0.000002
 11   -395.92734494  -0.0000000282  0.000017  0.000049  0.000056  0.000001
 12   -395.92734496  -0.0000000139  0.000005  0.000011  0.000040  0.000001
 13   -395.92734496  -0.0000000024  0.000004  0.000006  0.000015  0.000000
                 **** Energy Check signals convergence ****
              ***Rediagonalizing the Fockian in SOSCF/NRSCF***

               *****************************************************
               *                     SUCCESS                       *
               *           SCF CONVERGED AFTER  14 CYCLES          *
               *****************************************************


----------------
TOTAL SCF ENERGY
----------------

Total Energy       :         -395.92734496 Eh          -10773.73078 eV

Components:
Nuclear Repulsion  :          327.41198911 Eh            8909.33317 eV
Electronic Energy  :         -723.33933407 Eh          -19683.06395 eV
One Electron Energy:        -1183.81778889 Eh          -32213.31973 eV
Two Electron Energy:          460.47845482 Eh           12530.25578 eV

Virial components:
Potential Energy   :         -791.08055929 Eh          -21526.39640 eV
Kinetic Energy     :          395.15321433 Eh           10752.66562 eV
Virial Ratio       :            2.00195906


---------------
SCF CONVERGENCE
---------------

  Last Energy change         ...   -1.7261e-09  Tolerance :   1.0000e-08
  Last MAX-Density change    ...    3.3325e-06  Tolerance :   1.0000e-07
  Last RMS-Density change    ...    5.4562e-08  Tolerance :   5.0000e-09
  Last Orbital Gradient      ...    1.3905e-06  Tolerance :   1.0000e-05
  Last Orbital Rotation      ...    4.2505e-06  Tolerance :   1.0000e-05

             **** THE GBW FILE WAS UPDATED (12mecn.remya.etal.2.mol3,4,7-orca.engrad-mp2.def2tzvp.frozencore.gbw) ****
             **** DENSITY FILE WAS UPDATED (12mecn.remya.etal.2.mol3,4,7-orca.engrad-mp2.def2tzvp.frozencore.scfp) ****
             **** ENERGY FILE WAS UPDATED (12mecn.remya.etal.2.mol3,4,7-orca.engrad-mp2.def2tzvp.frozencore.en.tmp) ****
             **** THE GBW FILE WAS UPDATED (12mecn.remya.etal.2.mol3,4,7-orca.engrad-mp2.def2tzvp.frozencore.gbw) ****
             **** DENSITY FILE WAS UPDATED (12mecn.remya.etal.2.mol3,4,7-orca.engrad-mp2.def2tzvp.frozencore.scfp) ****
----------------
ORBITAL ENERGIES
----------------

  NO   OCC          E(Eh)            E(eV) 
   0   2.0000     -15.573546      -423.7777 
   1   2.0000     -15.571487      -423.7217 
   2   2.0000     -15.570890      -423.7054 
   3   2.0000     -11.287112      -307.1379 
   4   2.0000     -11.283136      -307.0298 
   5   2.0000     -11.282531      -307.0133 
   6   2.0000     -11.279993      -306.9442 
   7   2.0000     -11.275801      -306.8302 
   8   2.0000     -11.271246      -306.7062 
   9   2.0000      -1.217754       -33.1368 
  10   2.0000      -1.214805       -33.0565 
  11   2.0000      -1.213553       -33.0224 
  12   2.0000      -1.045473       -28.4488 
  13   2.0000      -1.038775       -28.2665 
  14   2.0000      -1.034409       -28.1477 
  15   2.0000      -0.702721       -19.1220 
  16   2.0000      -0.695359       -18.9217 
  17   2.0000      -0.690089       -18.7783 
  18   2.0000      -0.634702       -17.2711 
  19   2.0000      -0.632496       -17.2111 
  20   2.0000      -0.631374       -17.1806 
  21   2.0000      -0.627219       -17.0675 
  22   2.0000      -0.622728       -16.9453 
  23   2.0000      -0.615676       -16.7534 
  24   2.0000      -0.558899       -15.2084 
  25   2.0000      -0.555878       -15.1262 
  26   2.0000      -0.555772       -15.1233 
  27   2.0000      -0.460351       -12.5268 
  28   2.0000      -0.459857       -12.5133 
  29   2.0000      -0.458169       -12.4674 
  30   2.0000      -0.457783       -12.4569 
  31   2.0000      -0.456492       -12.4218 
  32   2.0000      -0.454367       -12.3640 
  33   0.0000       0.098123         2.6701 
  34   0.0000       0.133593         3.6353 
  35   0.0000       0.147140         4.0039 
  36   0.0000       0.168268         4.5788 
  37   0.0000       0.169309         4.6071 
  38   0.0000       0.172809         4.7024 
  39   0.0000       0.172926         4.7055 
  40   0.0000       0.178007         4.8438 
  41   0.0000       0.188803         5.1376 
  42   0.0000       0.192556         5.2397 
  43   0.0000       0.208129         5.6635 
  44   0.0000       0.214272         5.8306 
  45   0.0000       0.221191         6.0189 
  46   0.0000       0.223212         6.0739 
  47   0.0000       0.228493         6.2176 
  48   0.0000       0.238055         6.4778 
  49   0.0000       0.252898         6.8817 
  50   0.0000       0.259954         7.0737 
  51   0.0000       0.269921         7.3449 
  52   0.0000       0.278073         7.5667 
  53   0.0000       0.314639         8.5618 
  54   0.0000       0.318226         8.6594 
  55   0.0000       0.319731         8.7003 
  56   0.0000       0.326238         8.8774 
  57   0.0000       0.332867         9.0578 
  58   0.0000       0.350863         9.5475 
  59   0.0000       0.367335         9.9957 
  60   0.0000       0.380579        10.3561 
  61   0.0000       0.382307        10.4031 
  62   0.0000       0.392426        10.6784 
  63   0.0000       0.405927        11.0458 
  64   0.0000       0.415789        11.3142 
  65   0.0000       0.443444        12.0667 
  66   0.0000       0.457366        12.4456 
  67   0.0000       0.473303        12.8792 
  68   0.0000       0.484797        13.1920 
  69   0.0000       0.495688        13.4884 
  70   0.0000       0.502153        13.6643 
  71   0.0000       0.531058        14.4508 
  72   0.0000       0.533433        14.5155 
  73   0.0000       0.553186        15.0530 
  74   0.0000       0.562930        15.3181 
  75   0.0000       0.582788        15.8585 
  76   0.0000       0.597258        16.2522 
  77   0.0000       0.599993        16.3266 
  78   0.0000       0.603599        16.4248 
  79   0.0000       0.610323        16.6077 
  80   0.0000       0.616943        16.7879 
  81   0.0000       0.621036        16.8992 
  82   0.0000       0.637679        17.3521 
  83   0.0000       0.659434        17.9441 
  84   0.0000       0.660137        17.9632 
  85   0.0000       0.667994        18.1771 
  86   0.0000       0.672815        18.3082 
  87   0.0000       0.679569        18.4920 
  88   0.0000       0.707577        19.2541 
  89   0.0000       0.729887        19.8612 
  90   0.0000       0.735884        20.0244 
  91   0.0000       0.746932        20.3251 
  92   0.0000       0.749784        20.4027 
  93   0.0000       0.782135        21.2830 
  94   0.0000       0.806836        21.9551 
  95   0.0000       0.810911        22.0660 
  96   0.0000       0.815037        22.1783 
  97   0.0000       0.815823        22.1997 
  98   0.0000       0.836483        22.7619 
  99   0.0000       0.853479        23.2244 
 100   0.0000       0.864375        23.5209 
 101   0.0000       0.912008        24.8170 
 102   0.0000       0.916786        24.9470 
 103   0.0000       0.922789        25.1104 
 104   0.0000       0.934404        25.4264 
 105   0.0000       0.941573        25.6215 
 106   0.0000       0.963909        26.2293 
 107   0.0000       1.026013        27.9192 
 108   0.0000       1.041317        28.3357 
 109   0.0000       1.058466        28.8023 
 110   0.0000       1.085914        29.5492 
 111   0.0000       1.122325        30.5400 
 112   0.0000       1.132531        30.8177 
 113   0.0000       1.144710        31.1491 
 114   0.0000       1.149528        31.2802 
 115   0.0000       1.158012        31.5111 
 116   0.0000       1.183421        32.2025 
 117   0.0000       1.321591        35.9623 
 118   0.0000       1.334357        36.3097 
 119   0.0000       1.336857        36.3777 
 120   0.0000       1.389266        37.8038 
 121   0.0000       1.418365        38.5957 
 122   0.0000       1.421169        38.6720 
 123   0.0000       1.425181        38.7812 
 124   0.0000       1.432369        38.9767 
 125   0.0000       1.449064        39.4310 
 126   0.0000       1.451141        39.4876 
 127   0.0000       1.455233        39.5989 
 128   0.0000       1.466858        39.9152 
 129   0.0000       1.467759        39.9398 
 130   0.0000       1.473224        40.0885 
 131   0.0000       1.477116        40.1944 
 132   0.0000       1.489472        40.5306 
 133   0.0000       1.503739        40.9188 
 134   0.0000       1.509917        41.0869 
 135   0.0000       1.516605        41.2689 
 136   0.0000       1.531282        41.6683 
 137   0.0000       1.566595        42.6292 
 138   0.0000       1.681576        45.7580 
 139   0.0000       1.698433        46.2167 
 140   0.0000       1.706776        46.4437 
 141   0.0000       1.734235        47.1909 
 142   0.0000       1.739426        47.3322 
 143   0.0000       1.745831        47.5065 
 144   0.0000       1.750112        47.6230 
 145   0.0000       1.761354        47.9289 
 146   0.0000       1.763317        47.9823 
 147   0.0000       1.768690        48.1285 
 148   0.0000       1.783876        48.5417 
 149   0.0000       1.788358        48.6637 
 150   0.0000       1.804158        49.0936 
 151   0.0000       1.807732        49.1909 
 152   0.0000       1.828082        49.7447 
 153   0.0000       1.835846        49.9559 
 154   0.0000       1.839077        50.0438 
 155   0.0000       1.866670        50.7947 
 156   0.0000       1.933953        52.6255 
 157   0.0000       1.936707        52.7005 
 158   0.0000       1.941435        52.8291 
 159   0.0000       1.947975        53.0071 
 160   0.0000       1.972057        53.6624 
 161   0.0000       1.973347        53.6975 
 162   0.0000       1.978247        53.8308 
 163   0.0000       2.010171        54.6995 
 164   0.0000       2.030492        55.2525 
 165   0.0000       2.221541        60.4512 
 166   0.0000       2.226402        60.5835 
 167   0.0000       2.237259        60.8789 
 168   0.0000       2.241279        60.9883 
 169   0.0000       2.246929        61.1420 
 170   0.0000       2.256024        61.3895 
 171   0.0000       2.261105        61.5278 
 172   0.0000       2.273035        61.8524 
 173   0.0000       2.298396        62.5425 
 174   0.0000       2.351677        63.9924 
 175   0.0000       2.367774        64.4304 
 176   0.0000       2.373594        64.5888 
 177   0.0000       2.543550        69.2135 
 178   0.0000       2.547897        69.3318 
 179   0.0000       2.557951        69.6054 
 180   0.0000       2.564550        69.7849 
 181   0.0000       2.573858        70.0382 
 182   0.0000       2.575763        70.0901 
 183   0.0000       2.585948        70.3672 
 184   0.0000       2.602045        70.8052 
 185   0.0000       2.619476        71.2796 
 186   0.0000       2.620961        71.3200 
 187   0.0000       2.624279        71.4103 
 188   0.0000       2.631203        71.5987 
 189   0.0000       2.648423        72.0673 
 190   0.0000       2.657445        72.3127 
 191   0.0000       2.684331        73.0444 
 192   0.0000       2.710001        73.7429 
 193   0.0000       2.711732        73.7900 
 194   0.0000       2.739400        74.5429 
 195   0.0000       2.743484        74.6540 
 196   0.0000       2.748102        74.7797 
 197   0.0000       2.752444        74.8978 
 198   0.0000       2.757461        75.0343 
 199   0.0000       2.764230        75.2185 
 200   0.0000       2.811360        76.5010 
 201   0.0000       2.910506        79.1989 
 202   0.0000       2.913109        79.2697 
 203   0.0000       2.913338        79.2760 
 204   0.0000       2.914948        79.3198 
 205   0.0000       2.915703        79.3403 
 206   0.0000       2.922274        79.5191 
 207   0.0000       2.944638        80.1277 
 208   0.0000       2.953057        80.3568 
 209   0.0000       2.955102        80.4124 
 210   0.0000       2.956390        80.4474 
 211   0.0000       2.968326        80.7723 
 212   0.0000       2.993533        81.4582 
 213   0.0000       3.023027        82.2607 
 214   0.0000       3.032584        82.5208 
 215   0.0000       3.048014        82.9407 
 216   0.0000       3.086837        83.9971 
 217   0.0000       3.091679        84.1289 
 218   0.0000       3.098510        84.3147 
 219   0.0000       3.101876        84.4063 
 220   0.0000       3.106994        84.5456 
 221   0.0000       3.139657        85.4344 
 222   0.0000       3.219653        87.6112 
 223   0.0000       3.235472        88.0417 
 224   0.0000       3.239794        88.1593 
 225   0.0000       3.244260        88.2808 
 226   0.0000       3.247629        88.3725 
 227   0.0000       3.255455        88.5854 
 228   0.0000       3.262307        88.7719 
 229   0.0000       3.271840        89.0313 
 230   0.0000       3.306349        89.9703 
 231   0.0000       3.327700        90.5513 
 232   0.0000       3.334848        90.7458 
 233   0.0000       3.334919        90.7478 
 234   0.0000       3.350607        91.1747 
 235   0.0000       3.364877        91.5630 
 236   0.0000       3.405173        92.6595 
 237   0.0000       3.440228        93.6134 
 238   0.0000       3.442768        93.6825 
 239   0.0000       3.447998        93.8248 
 240   0.0000       3.458167        94.1015 
 241   0.0000       3.472078        94.4801 
 242   0.0000       3.484694        94.8233 
 243   0.0000       3.489817        94.9627 
 244   0.0000       3.546479        96.5046 
 245   0.0000       3.552803        96.6767 
 246   0.0000       3.634168        98.8907 
 247   0.0000       3.647039        99.2410 
 248   0.0000       3.660203        99.5992 
 249   0.0000       3.669062        99.8402 
 250   0.0000       3.670481        99.8789 
 251   0.0000       3.675450       100.0141 
 252   0.0000       3.799377       103.3863 
 253   0.0000       3.801807       103.4524 
 254   0.0000       3.802127       103.4611 
 255   0.0000       3.807402       103.6047 
 256   0.0000       3.810738       103.6955 
 257   0.0000       3.852995       104.8453 
 258   0.0000       3.923098       106.7529 
 259   0.0000       3.939422       107.1971 
 260   0.0000       3.946512       107.3901 
 261   0.0000       3.949540       107.4725 
 262   0.0000       3.956838       107.6710 
 263   0.0000       3.960361       107.7669 
 264   0.0000       3.963066       107.8405 
 265   0.0000       3.972648       108.1012 
 266   0.0000       3.974869       108.1617 
 267   0.0000       4.244926       115.5103 
 268   0.0000       4.251346       115.6850 
 269   0.0000       4.251909       115.7003 
 270   0.0000       4.254563       115.7725 
 271   0.0000       4.257177       115.8437 
 272   0.0000       4.299629       116.9988 
 273   0.0000       4.340484       118.1106 
 274   0.0000       4.342117       118.1550 
 275   0.0000       4.342486       118.1650 
 276   0.0000       4.347021       118.2884 
 277   0.0000       4.348704       118.3342 
 278   0.0000       4.351241       118.4033 
 279   0.0000       4.558117       124.0327 
 280   0.0000       4.584853       124.7602 
 281   0.0000       4.587500       124.8322 
 282   0.0000       4.740999       129.0091 
 283   0.0000       4.747491       129.1858 
 284   0.0000       4.752514       129.3225 
 285   0.0000       4.760760       129.5469 
 286   0.0000       4.766773       129.7105 
 287   0.0000       4.789118       130.3185 
 288   0.0000       4.835736       131.5871 
 289   0.0000       4.860714       132.2667 
 290   0.0000       4.868685       132.4836 
 291   0.0000       4.960705       134.9876 
 292   0.0000       4.962285       135.0306 
 293   0.0000       4.963266       135.0573 
 294   0.0000       4.972157       135.2993 
 295   0.0000       4.981060       135.5415 
 296   0.0000       5.001985       136.1109 
 297   0.0000       5.062841       137.7669 
 298   0.0000       5.068898       137.9317 
 299   0.0000       5.069699       137.9535 
 300   0.0000       5.074369       138.0806 
 301   0.0000       5.076019       138.1255 
 302   0.0000       5.094654       138.6326 
 303   0.0000       5.202927       141.5788 
 304   0.0000       5.213304       141.8612 
 305   0.0000       5.222368       142.1078 
 306   0.0000       5.556734       151.2064 
 307   0.0000       5.557587       151.2296 
 308   0.0000       5.559719       151.2876 
 309   0.0000       5.563842       151.3998 
 310   0.0000       5.586823       152.0252 
 311   0.0000       5.589522       152.0986 
 312   0.0000       6.021313       163.8482 
 313   0.0000       6.023547       163.9090 
 314   0.0000       6.026830       163.9984 
 315   0.0000       6.079546       165.4329 
 316   0.0000       6.083583       165.5427 
 317   0.0000       6.088264       165.6701 
 318   0.0000       6.091394       165.7552 
 319   0.0000       6.105957       166.1515 
 320   0.0000       6.171550       167.9364 
 321   0.0000       6.466900       175.9733 
 322   0.0000       6.468214       176.0090 
 323   0.0000       6.482459       176.3967 
 324   0.0000      23.469335       638.6331 
 325   0.0000      23.488023       639.1416 
 326   0.0000      23.492913       639.2747 
 327   0.0000      24.380593       663.4297 
 328   0.0000      24.384251       663.5292 
 329   0.0000      24.404833       664.0893 
 330   0.0000      33.392067       908.6444 
 331   0.0000      33.434585       909.8013 
 332   0.0000      33.479205       911.0155 

                    ********************************
                    * MULLIKEN POPULATION ANALYSIS *
                    ********************************

-----------------------
MULLIKEN ATOMIC CHARGES
-----------------------
   0 C :   -0.172509
   1 H :    0.160055
   2 H :    0.155864
   3 H :    0.151244
   4 C :   -0.105870
   5 N :   -0.188799
   6 C :   -0.177272
   7 H :    0.152914
   8 H :    0.196973
   9 H :    0.138301
  10 C :   -0.057571
  11 N :   -0.253890
  12 C :   -0.173452
  13 H :    0.152012
  14 H :    0.149731
  15 H :    0.195841
  16 C :   -0.055207
  17 N :   -0.268365
Sum of atomic charges:    0.0000000

--------------------------------
MULLIKEN REDUCED ORBITAL CHARGES
--------------------------------
  0 C s       :     3.149490  s :     3.149490
      pz      :     0.797513  p :     2.956840
      px      :     1.074555
      py      :     1.084772
      dz2     :     0.017722  d :     0.062699
      dxz     :     0.010962
      dyz     :     0.012557
      dx2y2   :     0.010468
      dxy     :     0.010990
      f0      :     0.001715  f :     0.003480
      f+1     :     0.000203
      f-1     :     0.000221
      f+2     :     0.000072
      f-2     :     0.000073
      f+3     :     0.000774
      f-3     :     0.000422
  1 H s       :     0.817531  s :     0.817531
      pz      :     0.005344  p :     0.022414
      px      :     0.004595
      py      :     0.012475
  2 H s       :     0.821753  s :     0.821753
      pz      :     0.004691  p :     0.022383
      px      :     0.008073
      py      :     0.009618
  3 H s       :     0.826440  s :     0.826440
      pz      :     0.004673  p :     0.022317
      px      :     0.013378
      py      :     0.004266
  4 C s       :     3.232234  s :     3.232234
      pz      :     0.963915  p :     2.742738
      px      :     0.888437
      py      :     0.890385
      dz2     :     0.027103  d :     0.113544
      dxz     :     0.043111
      dyz     :     0.042624
      dx2y2   :     0.000222
      dxy     :     0.000485
      f0      :     0.004146  f :     0.017355
      f+1     :     0.006551
      f-1     :     0.006533
      f+2     :     0.000053
      f-2     :     0.000071
      f+3     :     0.000000
      f-3     :     0.000000
  5 N s       :     3.718931  s :     3.718931
      pz      :     1.284907  p :     3.411739
      px      :     1.064843
      py      :     1.061988
      dz2     :     0.011716  d :     0.055163
      dxz     :     0.021702
      dyz     :     0.021669
      dx2y2   :     0.000040
      dxy     :     0.000035
      f0      :     0.000626  f :     0.002967
      f+1     :     0.001167
      f-1     :     0.001162
      f+2     :     0.000006
      f-2     :     0.000006
      f+3     :     0.000000
      f-3     :     0.000000
  6 C s       :     3.156802  s :     3.156802
      pz      :     0.782197  p :     2.955202
      px      :     1.077277
      py      :     1.095729
      dz2     :     0.017969  d :     0.061782
      dxz     :     0.010154
      dyz     :     0.011667
      dx2y2   :     0.010945
      dxy     :     0.011046
      f0      :     0.001712  f :     0.003486
      f+1     :     0.000203
      f-1     :     0.000209
      f+2     :     0.000064
      f-2     :     0.000063
      f+3     :     0.000356
      f-3     :     0.000879
  7 H s       :     0.824673  s :     0.824673
      pz      :     0.005189  p :     0.022413
      px      :     0.004045
      py      :     0.013178
  8 H s       :     0.779894  s :     0.779894
      pz      :     0.004585  p :     0.023133
      px      :     0.010122
      py      :     0.008426
  9 H s       :     0.839561  s :     0.839561
      pz      :     0.004536  p :     0.022138
      px      :     0.012660
      py      :     0.004942
 10 C s       :     3.244511  s :     3.244511
      pz      :     0.951305  p :     2.679642
      px      :     0.859148
      py      :     0.869189
      dz2     :     0.025599  d :     0.116004
      dxz     :     0.044765
      dyz     :     0.044611
      dx2y2   :     0.000384
      dxy     :     0.000646
      f0      :     0.004101  f :     0.017414
      f+1     :     0.006590
      f-1     :     0.006591
      f+2     :     0.000057
      f-2     :     0.000070
      f+3     :     0.000001
      f-3     :     0.000004
 11 N s       :     3.743432  s :     3.743432
      pz      :     1.275069  p :     3.453908
      px      :     1.094153
      py      :     1.084686
      dz2     :     0.011230  d :     0.053613
      dxz     :     0.021153
      dyz     :     0.021091
      dx2y2   :     0.000073
      dxy     :     0.000065
      f0      :     0.000623  f :     0.002937
      f+1     :     0.001148
      f-1     :     0.001152
      f+2     :     0.000007
      f-2     :     0.000006
      f+3     :     0.000000
      f-3     :     0.000001
 12 C s       :     3.156577  s :     3.156577
      pz      :     0.776908  p :     2.952651
      px      :     1.082481
      py      :     1.093262
      dz2     :     0.017987  d :     0.060756
      dxz     :     0.009326
      dyz     :     0.011414
      dx2y2   :     0.010794
      dxy     :     0.011235
      f0      :     0.001686  f :     0.003468
      f+1     :     0.000202
      f-1     :     0.000221
      f+2     :     0.000064
      f-2     :     0.000060
      f+3     :     0.000403
      f-3     :     0.000833
 13 H s       :     0.825526  s :     0.825526
      pz      :     0.005447  p :     0.022462
      px      :     0.004100
      py      :     0.012915
 14 H s       :     0.828009  s :     0.828009
      pz      :     0.004409  p :     0.022260
      px      :     0.012929
      py      :     0.004922
 15 H s       :     0.780987  s :     0.780987
      pz      :     0.004553  p :     0.023172
      px      :     0.009943
      py      :     0.008676
 16 C s       :     3.248484  s :     3.248484
      pz      :     0.958427  p :     2.672888
      px      :     0.851190
      py      :     0.863271
      dz2     :     0.025257  d :     0.116450
      dxz     :     0.044928
      dyz     :     0.044962
      dx2y2   :     0.000472
      dxy     :     0.000831
      f0      :     0.004128  f :     0.017385
      f+1     :     0.006511
      f-1     :     0.006519
      f+2     :     0.000100
      f-2     :     0.000122
      f+3     :     0.000001
      f-3     :     0.000005
 17 N s       :     3.736974  s :     3.736974
      pz      :     1.278561  p :     3.475180
      px      :     1.102944
      py      :     1.093674
      dz2     :     0.011261  d :     0.053269
      dxz     :     0.020888
      dyz     :     0.020860
      dx2y2   :     0.000130
      dxy     :     0.000131
      f0      :     0.000636  f :     0.002942
      f+1     :     0.001136
      f-1     :     0.001139
      f+2     :     0.000015
      f-2     :     0.000015
      f+3     :     0.000000
      f-3     :     0.000001


                     *******************************
                     * LOEWDIN POPULATION ANALYSIS *
                     *******************************

----------------------
LOEWDIN ATOMIC CHARGES
----------------------
   0 C :   -0.246352
   1 H :    0.143658
   2 H :    0.142654
   3 H :    0.142384
   4 C :   -0.199986
   5 N :    0.017598
   6 C :   -0.244644
   7 H :    0.144650
   8 H :    0.150572
   9 H :    0.138334
  10 C :   -0.185797
  11 N :   -0.003623
  12 C :   -0.242062
  13 H :    0.145403
  14 H :    0.142535
  15 H :    0.151525
  16 C :   -0.182766
  17 N :   -0.014082

-------------------------------
LOEWDIN REDUCED ORBITAL CHARGES
-------------------------------
  0 C s       :     2.813547  s :     2.813547
      pz      :     1.025553  p :     3.144363
      px      :     1.058527
      py      :     1.060283
      dz2     :     0.077004  d :     0.263076
      dxz     :     0.059398
      dyz     :     0.065237
      dx2y2   :     0.029451
      dxy     :     0.031987
      f0      :     0.007307  f :     0.025367
      f+1     :     0.005331
      f-1     :     0.004915
      f+2     :     0.002368
      f-2     :     0.002184
      f+3     :     0.002103
      f-3     :     0.001158
  1 H s       :     0.795415  s :     0.795415
      pz      :     0.013706  p :     0.060927
      px      :     0.014353
      py      :     0.032868
  2 H s       :     0.796373  s :     0.796373
      pz      :     0.012403  p :     0.060973
      px      :     0.022578
      py      :     0.025992
  3 H s       :     0.797079  s :     0.797079
      pz      :     0.012348  p :     0.060537
      px      :     0.034661
      py      :     0.013529
  4 C s       :     2.838382  s :     2.838382
      pz      :     1.190679  p :     2.856043
      px      :     0.831612
      py      :     0.833752
      dz2     :     0.154430  d :     0.446835
      dxz     :     0.145936
      dyz     :     0.145276
      dx2y2   :     0.000329
      dxy     :     0.000864
      f0      :     0.023075  f :     0.058725
      f+1     :     0.017650
      f-1     :     0.017714
      f+2     :     0.000121
      f-2     :     0.000164
      f+3     :     0.000001
      f-3     :     0.000001
  5 N s       :     3.314362  s :     3.314362
      pz      :     1.494604  p :     3.541605
      px      :     1.024306
      py      :     1.022694
      dz2     :     0.045889  d :     0.111987
      dxz     :     0.032883
      dyz     :     0.033089
      dx2y2   :     0.000066
      dxy     :     0.000059
      f0      :     0.006231  f :     0.014449
      f+1     :     0.004069
      f-1     :     0.004108
      f+2     :     0.000021
      f-2     :     0.000019
      f+3     :     0.000000
      f-3     :     0.000000
  6 C s       :     2.813649  s :     2.813649
      pz      :     1.023109  p :     3.147048
      px      :     1.060936
      py      :     1.063003
      dz2     :     0.079160  d :     0.258665
      dxz     :     0.055929
      dyz     :     0.062249
      dx2y2   :     0.030635
      dxy     :     0.030693
      f0      :     0.007535  f :     0.025283
      f+1     :     0.005296
      f-1     :     0.004847
      f+2     :     0.002271
      f-2     :     0.002034
      f+3     :     0.000945
      f-3     :     0.002355
  7 H s       :     0.794766  s :     0.794766
      pz      :     0.013292  p :     0.060584
      px      :     0.013058
      py      :     0.034234
  8 H s       :     0.785512  s :     0.785512
      pz      :     0.012379  p :     0.063915
      px      :     0.027657
      py      :     0.023880
  9 H s       :     0.801515  s :     0.801515
      pz      :     0.012039  p :     0.060152
      px      :     0.032941
      py      :     0.015172
 10 C s       :     2.839881  s :     2.839881
      pz      :     1.193455  p :     2.829362
      px      :     0.815117
      py      :     0.820791
      dz2     :     0.154786  d :     0.457106
      dxz     :     0.150210
      dyz     :     0.150259
      dx2y2   :     0.000632
      dxy     :     0.001220
      f0      :     0.022907  f :     0.059447
      f+1     :     0.018184
      f-1     :     0.018049
      f+2     :     0.000131
      f-2     :     0.000165
      f+3     :     0.000002
      f-3     :     0.000009
 11 N s       :     3.308829  s :     3.308829
      pz      :     1.493980  p :     3.571767
      px      :     1.040264
      py      :     1.037523
      dz2     :     0.045549  d :     0.108876
      dxz     :     0.031452
      dyz     :     0.031658
      dx2y2   :     0.000133
      dxy     :     0.000083
      f0      :     0.006213  f :     0.014151
      f+1     :     0.003919
      f-1     :     0.003974
      f+2     :     0.000022
      f-2     :     0.000021
      f+3     :     0.000000
      f-3     :     0.000001
 12 C s       :     2.814166  s :     2.814166
      pz      :     1.020364  p :     3.146000
      px      :     1.062425
      py      :     1.063212
      dz2     :     0.079698  d :     0.256718
      dxz     :     0.053184
      dyz     :     0.062521
      dx2y2   :     0.030158
      dxy     :     0.031157
      f0      :     0.007544  f :     0.025178
      f+1     :     0.005353
      f-1     :     0.004682
      f+2     :     0.002329
      f-2     :     0.001971
      f+3     :     0.001073
      f-3     :     0.002227
 13 H s       :     0.793892  s :     0.793892
      pz      :     0.013763  p :     0.060705
      px      :     0.013189
      py      :     0.033753
 14 H s       :     0.796950  s :     0.796950
      pz      :     0.011777  p :     0.060515
      px      :     0.033630
      py      :     0.015108
 15 H s       :     0.784671  s :     0.784671
      pz      :     0.012259  p :     0.063804
      px      :     0.027136
      py      :     0.024409
 16 C s       :     2.841086  s :     2.841086
      pz      :     1.194224  p :     2.822260
      px      :     0.810771
      py      :     0.817264
      dz2     :     0.154330  d :     0.459825
      dxz     :     0.151148
      dyz     :     0.151606
      dx2y2   :     0.000978
      dxy     :     0.001764
      f0      :     0.022759  f :     0.059595
      f+1     :     0.018155
      f-1     :     0.018109
      f+2     :     0.000250
      f-2     :     0.000309
      f+3     :     0.000003
      f-3     :     0.000010
 17 N s       :     3.307955  s :     3.307955
      pz      :     1.493568  p :     3.584257
      px      :     1.046709
      py      :     1.043981
      dz2     :     0.045314  d :     0.107784
      dxz     :     0.030890
      dyz     :     0.031180
      dx2y2   :     0.000226
      dxy     :     0.000175
      f0      :     0.006187  f :     0.014086
      f+1     :     0.003864
      f-1     :     0.003935
      f+2     :     0.000049
      f-2     :     0.000049
      f+3     :     0.000000
      f-3     :     0.000001


                      *****************************
                      * MAYER POPULATION ANALYSIS *
                      *****************************

  NA   - Mulliken gross atomic population
  ZA   - Total nuclear charge
  QA   - Mulliken gross atomic charge
  VA   - Mayer's total valence
  BVA  - Mayer's bonded valence
  FA   - Mayer's free valence

  ATOM       NA         ZA         QA         VA         BVA        FA
  0 C      6.1725     6.0000    -0.1725     3.8101     3.8101     0.0000
  1 H      0.8399     1.0000     0.1601     0.9622     0.9622     0.0000
  2 H      0.8441     1.0000     0.1559     0.9611     0.9611     0.0000
  3 H      0.8488     1.0000     0.1512     0.9608     0.9608    -0.0000
  4 C      6.1059     6.0000    -0.1059     3.9162     3.9162     0.0000
  5 N      7.1888     7.0000    -0.1888     3.0347     3.0347     0.0000
  6 C      6.1773     6.0000    -0.1773     3.7880     3.7880     0.0000
  7 H      0.8471     1.0000     0.1529     0.9649     0.9649     0.0000
  8 H      0.8030     1.0000     0.1970     0.9608     0.9608     0.0000
  9 H      0.8617     1.0000     0.1383     0.9614     0.9614     0.0000
 10 C      6.0576     6.0000    -0.0576     3.8650     3.8650     0.0000
 11 N      7.2539     7.0000    -0.2539     2.9864     2.9864     0.0000
 12 C      6.1735     6.0000    -0.1735     3.7823     3.7823     0.0000
 13 H      0.8480     1.0000     0.1520     0.9647     0.9647     0.0000
 14 H      0.8503     1.0000     0.1497     0.9612     0.9612     0.0000
 15 H      0.8042     1.0000     0.1958     0.9616     0.9616    -0.0000
 16 C      6.0552     6.0000    -0.0552     3.8746     3.8746     0.0000
 17 N      7.2684     7.0000    -0.2684     2.9903     2.9903    -0.0000

  Mayer bond orders larger than 0.100000
B(  0-C ,  1-H ) :   0.9619 B(  0-C ,  2-H ) :   0.9645 B(  0-C ,  3-H ) :   0.9659 
B(  0-C ,  4-C ) :   0.9284 B(  4-C ,  5-N ) :   3.0090 B(  6-C ,  7-H ) :   0.9609 
B(  6-C ,  8-H ) :   0.9509 B(  6-C ,  9-H ) :   0.9681 B(  6-C , 10-C ) :   0.9234 
B( 10-C , 11-N ) :   2.9512 B( 12-C , 13-H ) :   0.9596 B( 12-C , 14-H ) :   0.9641 
B( 12-C , 15-H ) :   0.9501 B( 12-C , 16-C ) :   0.9247 B( 16-C , 17-N ) :   2.9552 


-------
TIMINGS
-------

Total SCF time: 0 days 0 hours 0 min 39 sec 

Total time                  ....      39.352 sec
Sum of individual times     ....      38.840 sec  ( 98.7%)

Fock matrix formation       ....      38.247 sec  ( 97.2%)
Diagonalization             ....       0.140 sec  (  0.4%)
Density matrix formation    ....       0.018 sec  (  0.0%)
Population analysis         ....       0.014 sec  (  0.0%)
Initial guess               ....       0.179 sec  (  0.5%)
Orbital Transformation      ....       0.000 sec  (  0.0%)
Orbital Orthonormalization  ....       0.000 sec  (  0.0%)
DIIS solution               ....       0.051 sec  (  0.1%)
SOSCF solution              ....       0.099 sec  (  0.3%)


           ************************************************************
           *        Program running with 6 parallel MPI-processes     *
           *              working on a common directory               *
           ************************************************************

------------------------------------------------------------------------------
                                ORCA  MP2 
------------------------------------------------------------------------------

Freezing NCore=18 chemical core electrons
MP2 will be done in the AO integral direct mode
The Q1-step will be done using symmetric double matrices
Dimension of the basis                    ...  333
Memory devoted for MP2                    ... 8000 MB   
Memory needed for all in one shot         ...  566 MB
Number of MOs that can be treated together...   55      
MP2 density construction                  ... relaxed
The MP2 gradient is requested => amplitudes will be stored on disk
Total number of MOs              ...   24
Number of MOs treated per batch  ...    4 
Number of batches necessary      ...    1 
OPERATORS   0/  0 PASS   0
-----------------------------------------------
 MP2 CORRELATION ENERGY   :     -1.531241778 Eh
-----------------------------------------------


---------------------
MP2 DENSITY FORMATION
---------------------

Completing the external part of the density      ... done
Storing the unrelaxed density                    ... done

Calculating G(D)                                 ... done
Completing the Lagrangian                        ... done
Solving the Z-vector equations                   ... 

------------------------------------------------------------------------------
                           ORCA CP-SCF CALCULATION
------------------------------------------------------------------------------

Input orbitals are from        ... 12mecn.remya.etal.2.mol3,4,7-orca.engrad-mp2.def2tzvp.frozencore.gbw
Input Perturbation             ... 12mecn.remya.etal.2.mol3,4,7-orca.engrad-mp2.def2tzvp.frozencore.pin.tmp
Wavefunction output            ... 12mecn.remya.etal.2.mol3,4,7-orca.engrad-mp2.def2tzvp.frozencore.pout.tmp
Perturbation mode              ... Real perturbation (singlet)
Solver                         ... POPLE
Max. number of iterations      ... 128
Convergence tolerance          ... 1.000e-08
Integral handling              ... Direct
Number of perturbations        ... 1
Number of operators            ... 1
Orbital ranges used for CP-SCF:
 Operator 0:  Orbitals   0... 32  to  33...332
Variables per vector in CP-SCF ... 9900
Number of vectors sought       ... 1
     CP-SCF ITERATION   0: 
     CP-SCF ITERATION   1:      0.001524527913
     CP-SCF ITERATION   2:      0.000270127826
     CP-SCF ITERATION   3:      0.000010254119
     CP-SCF ITERATION   4:      0.000002646717
     CP-SCF ITERATION   5:      0.000001192016
     CP-SCF ITERATION   6:      0.000000138849
     CP-SCF ITERATION   7:      0.000000015162
     CP-SCF ITERATION   8:      0.000000001595
                                                 ... done
Finalizing the relaxed density                   ... done
Transforming P to the AO basis                   ... done
Storing the relaxed density                      ... done

------------------------------------
ENERGY WEIGHTED DENSITY FINALIZATION
------------------------------------

Gathering the parts of the W-matrix              ...                                                      done
Forming the Z-density                            ... done
Transforming Z to the AO basis                   ... done
Calculating G(Z)                                 ... done
Finalizing the W-matrix                          ...                                                      done
Transforming W to the AO basis and storing       ... done

                *********************************************
                * UNRELAXED MP2 DENSITY POPULATION ANALYSIS *
                *********************************************

------------------------------------------------------------------------------
                           ORCA POPULATION ANALYSIS
------------------------------------------------------------------------------
Input electron density              ... 12mecn.remya.etal.2.mol3,4,7-orca.engrad-mp2.def2tzvp.frozencore.pmp2ur
BaseName (.gbw .S,...)              ... 12mecn.remya.etal.2.mol3,4,7-orca.engrad-mp2.def2tzvp.frozencore

                    ********************************
                    * MULLIKEN POPULATION ANALYSIS *
                    ********************************

-----------------------
MULLIKEN ATOMIC CHARGES
-----------------------
   0 C :   -0.185851
   1 H :    0.162653
   2 H :    0.158459
   3 H :    0.153798
   4 C :   -0.114339
   5 N :   -0.174742
   6 C :   -0.189879
   7 H :    0.155629
   8 H :    0.198825
   9 H :    0.141006
  10 C :   -0.067895
  11 N :   -0.238243
  12 C :   -0.185983
  13 H :    0.154712
  14 H :    0.152416
  15 H :    0.197736
  16 C :   -0.065995
  17 N :   -0.252308
Sum of atomic charges:    0.0000000

--------------------------------
MULLIKEN REDUCED ORBITAL CHARGES
--------------------------------
  0 C s       :     3.147931  s :     3.147931
      pz      :     0.796240  p :     2.942319
      px      :     1.067906
      py      :     1.078173
      dz2     :     0.020245  d :     0.088263
      dxz     :     0.017080
      dyz     :     0.018586
      dx2y2   :     0.015933
      dxy     :     0.016420
      f0      :     0.002112  f :     0.007338
      f+1     :     0.000867
      f-1     :     0.000892
      f+2     :     0.000612
      f-2     :     0.000615
      f+3     :     0.001279
      f-3     :     0.000960
  1 H s       :     0.812126  s :     0.812126
      pz      :     0.006321  p :     0.025221
      px      :     0.005613
      py      :     0.013287
  2 H s       :     0.816326  s :     0.816326
      pz      :     0.005694  p :     0.025215
      px      :     0.009006
      py      :     0.010515
  3 H s       :     0.821035  s :     0.821035
      pz      :     0.005681  p :     0.025167
      px      :     0.014181
      py      :     0.005305
  4 C s       :     3.231746  s :     3.231746
      pz      :     0.955096  p :     2.733009
      px      :     0.888099
      py      :     0.889814
      dz2     :     0.029582  d :     0.129264
      dxz     :     0.045225
      dyz     :     0.044758
      dx2y2   :     0.004720
      dxy     :     0.004979
      f0      :     0.004609  f :     0.020320
      f+1     :     0.006993
      f-1     :     0.006975
      f+2     :     0.000606
      f-2     :     0.000624
      f+3     :     0.000257
      f-3     :     0.000257
  5 N s       :     3.706106  s :     3.706106
      pz      :     1.272626  p :     3.385954
      px      :     1.058011
      py      :     1.055317
      dz2     :     0.015885  d :     0.077017
      dxz     :     0.025699
      dyz     :     0.025658
      dx2y2   :     0.004889
      dxy     :     0.004885
      f0      :     0.001052  f :     0.005664
      f+1     :     0.001612
      f-1     :     0.001607
      f+2     :     0.000420
      f-2     :     0.000420
      f+3     :     0.000276
      f-3     :     0.000276
  6 C s       :     3.155041  s :     3.155041
      pz      :     0.781030  p :     2.939914
      px      :     1.070207
      py      :     1.088678
      dz2     :     0.020460  d :     0.087568
      dxz     :     0.016310
      dyz     :     0.017755
      dx2y2   :     0.016499
      dxy     :     0.016544
      f0      :     0.002112  f :     0.007356
      f+1     :     0.000865
      f-1     :     0.000879
      f+2     :     0.000604
      f-2     :     0.000605
      f+3     :     0.000908
      f-3     :     0.001382
  7 H s       :     0.819139  s :     0.819139
      pz      :     0.006175  p :     0.025232
      px      :     0.005081
      py      :     0.013977
  8 H s       :     0.775351  s :     0.775351
      pz      :     0.005566  p :     0.025824
      px      :     0.010955
      py      :     0.009303
  9 H s       :     0.833964  s :     0.833964
      pz      :     0.005561  p :     0.025030
      px      :     0.013497
      py      :     0.005971
 10 C s       :     3.243766  s :     3.243766
      pz      :     0.942279  p :     2.672366
      px      :     0.860337
      py      :     0.869750
      dz2     :     0.028019  d :     0.131399
      dxz     :     0.046768
      dyz     :     0.046629
      dx2y2   :     0.004864
      dxy     :     0.005118
      f0      :     0.004567  f :     0.020364
      f+1     :     0.007020
      f-1     :     0.007026
      f+2     :     0.000611
      f-2     :     0.000626
      f+3     :     0.000255
      f-3     :     0.000259
 11 N s       :     3.730947  s :     3.730947
      pz      :     1.262729  p :     3.425377
      px      :     1.085810
      py      :     1.076838
      dz2     :     0.015515  d :     0.076256
      dxz     :     0.025356
      dyz     :     0.025230
      dx2y2   :     0.005084
      dxy     :     0.005072
      f0      :     0.001053  f :     0.005663
      f+1     :     0.001596
      f-1     :     0.001599
      f+2     :     0.000425
      f-2     :     0.000424
      f+3     :     0.000283
      f-3     :     0.000283
 12 C s       :     3.154784  s :     3.154784
      pz      :     0.775844  p :     2.937335
      px      :     1.075342
      py      :     1.086149
      dz2     :     0.020484  d :     0.086524
      dxz     :     0.015496
      dyz     :     0.017436
      dx2y2   :     0.016365
      dxy     :     0.016743
      f0      :     0.002090  f :     0.007339
      f+1     :     0.000859
      f-1     :     0.000886
      f+2     :     0.000604
      f-2     :     0.000604
      f+3     :     0.000952
      f-3     :     0.001344
 13 H s       :     0.820016  s :     0.820016
      pz      :     0.006421  p :     0.025272
      px      :     0.005132
      py      :     0.013719
 14 H s       :     0.822478  s :     0.822478
      pz      :     0.005426  p :     0.025106
      px      :     0.013744
      py      :     0.005937
 15 H s       :     0.776410  s :     0.776410
      pz      :     0.005532  p :     0.025854
      px      :     0.010781
      py      :     0.009541
 16 C s       :     3.247561  s :     3.247561
      pz      :     0.949391  p :     2.666388
      px      :     0.852798
      py      :     0.864199
      dz2     :     0.027671  d :     0.131714
      dxz     :     0.046909
      dyz     :     0.046960
      dx2y2   :     0.004916
      dxy     :     0.005259
      f0      :     0.004594  f :     0.020331
      f+1     :     0.006941
      f-1     :     0.006954
      f+2     :     0.000652
      f-2     :     0.000675
      f+3     :     0.000255
      f-3     :     0.000259
 17 N s       :     3.724610  s :     3.724610
      pz      :     1.266229  p :     3.445936
      px      :     1.094230
      py      :     1.085477
      dz2     :     0.015571  d :     0.076087
      dxz     :     0.025145
      dyz     :     0.025043
      dx2y2   :     0.005166
      dxy     :     0.005162
      f0      :     0.001066  f :     0.005675
      f+1     :     0.001586
      f-1     :     0.001587
      f+2     :     0.000433
      f-2     :     0.000433
      f+3     :     0.000284
      f-3     :     0.000285


                     *******************************
                     * LOEWDIN POPULATION ANALYSIS *
                     *******************************

----------------------
LOEWDIN ATOMIC CHARGES
----------------------
   0 C :   -0.254443
   1 H :    0.145354
   2 H :    0.144326
   3 H :    0.144010
   4 C :   -0.205046
   5 N :    0.025753
   6 C :   -0.252693
   7 H :    0.146342
   8 H :    0.152125
   9 H :    0.139951
  10 C :   -0.191673
  11 N :    0.005422
  12 C :   -0.250068
  13 H :    0.147101
  14 H :    0.144194
  15 H :    0.153095
  16 C :   -0.188865
  17 N :   -0.004885

-------------------------------
LOEWDIN REDUCED ORBITAL CHARGES
-------------------------------
  0 C s       :     2.811748  s :     2.811748
      pz      :     1.017050  p :     3.119899
      px      :     1.050542
      py      :     1.052307
      dz2     :     0.082213  d :     0.291414
      dxz     :     0.065250
      dyz     :     0.071080
      dx2y2   :     0.035167
      dxy     :     0.037703
      f0      :     0.008426  f :     0.031382
      f+1     :     0.006390
      f-1     :     0.005971
      f+2     :     0.003045
      f-2     :     0.002860
      f+3     :     0.002845
      f-3     :     0.001846
  1 H s       :     0.788995  s :     0.788995
      pz      :     0.015158  p :     0.065651
      px      :     0.015619
      py      :     0.034874
  2 H s       :     0.789940  s :     0.789940
      pz      :     0.013799  p :     0.065734
      px      :     0.024181
      py      :     0.027753
  3 H s       :     0.790655  s :     0.790655
      pz      :     0.013750  p :     0.065336
      px      :     0.036803
      py      :     0.014782
  4 C s       :     2.835123  s :     2.835123
      pz      :     1.178154  p :     2.837018
      px      :     0.828438
      py      :     0.830426
      dz2     :     0.161756  d :     0.466468
      dxz     :     0.147562
      dyz     :     0.146989
      dx2y2   :     0.004822
      dxy     :     0.005340
      f0      :     0.024687  f :     0.066437
      f+1     :     0.019772
      f-1     :     0.019832
      f+2     :     0.000792
      f-2     :     0.000838
      f+3     :     0.000258
      f-3     :     0.000258
  5 N s       :     3.306517  s :     3.306517
      pz      :     1.478714  p :     3.507414
      px      :     1.015102
      py      :     1.013599
      dz2     :     0.052706  d :     0.141446
      dxz     :     0.039432
      dyz     :     0.039622
      dx2y2   :     0.004846
      dxy     :     0.004839
      f0      :     0.007301  f :     0.018871
      f+1     :     0.005033
      f-1     :     0.005072
      f+2     :     0.000457
      f-2     :     0.000455
      f+3     :     0.000276
      f-3     :     0.000276
  6 C s       :     2.811875  s :     2.811875
      pz      :     1.014558  p :     3.122035
      px      :     1.052685
      py      :     1.054792
      dz2     :     0.084355  d :     0.287452
      dxz     :     0.061914
      dyz     :     0.068205
      dx2y2   :     0.036421
      dxy     :     0.036558
      f0      :     0.008652  f :     0.031330
      f+1     :     0.006368
      f-1     :     0.005912
      f+2     :     0.002943
      f-2     :     0.002705
      f+3     :     0.001627
      f-3     :     0.003123
  7 H s       :     0.788315  s :     0.788315
      pz      :     0.014733  p :     0.065343
      px      :     0.014271
      py      :     0.036339
  8 H s       :     0.779358  s :     0.779358
      pz      :     0.013772  p :     0.068516
      px      :     0.029302
      py      :     0.025443
  9 H s       :     0.795024  s :     0.795024
      pz      :     0.013438  p :     0.065025
      px      :     0.035086
      py      :     0.016501
 10 C s       :     2.836495  s :     2.836495
      pz      :     1.180849  p :     2.811941
      px      :     0.812862
      py      :     0.818231
      dz2     :     0.162072  d :     0.476137
      dxz     :     0.151562
      dyz     :     0.151660
      dx2y2   :     0.005133
      dxy     :     0.005709
      f0      :     0.024532  f :     0.067100
      f+1     :     0.020253
      f-1     :     0.020137
      f+2     :     0.000809
      f-2     :     0.000845
      f+3     :     0.000257
      f-3     :     0.000266
 11 N s       :     3.301034  s :     3.301034
      pz      :     1.477890  p :     3.535571
      px      :     1.030077
      py      :     1.027605
      dz2     :     0.052508  d :     0.139353
      dxz     :     0.038308
      dyz     :     0.038419
      dx2y2   :     0.005083
      dxy     :     0.005034
      f0      :     0.007284  f :     0.018620
      f+1     :     0.004901
      f-1     :     0.004947
      f+2     :     0.000461
      f-2     :     0.000460
      f+3     :     0.000283
      f-3     :     0.000284
 12 C s       :     2.812381  s :     2.812381
      pz      :     1.011848  p :     3.120973
      px      :     1.054154
      py      :     1.054971
      dz2     :     0.084859  d :     0.285493
      dxz     :     0.059185
      dyz     :     0.068484
      dx2y2   :     0.035940
      dxy     :     0.037025
      f0      :     0.008658  f :     0.031221
      f+1     :     0.006425
      f-1     :     0.005741
      f+2     :     0.003004
      f-2     :     0.002642
      f+3     :     0.001764
      f-3     :     0.002987
 13 H s       :     0.787453  s :     0.787453
      pz      :     0.015218  p :     0.065446
      px      :     0.014401
      py      :     0.035826
 14 H s       :     0.790497  s :     0.790497
      pz      :     0.013147  p :     0.065309
      px      :     0.035750
      py      :     0.016412
 15 H s       :     0.778516  s :     0.778516
      pz      :     0.013638  p :     0.068388
      px      :     0.028764
      py      :     0.025986
 16 C s       :     2.837655  s :     2.837655
      pz      :     1.181661  p :     2.805418
      px      :     0.808801
      py      :     0.814956
      dz2     :     0.161532  d :     0.478569
      dxz     :     0.152432
      dyz     :     0.152955
      dx2y2   :     0.005442
      dxy     :     0.006208
      f0      :     0.024394  f :     0.067223
      f+1     :     0.020198
      f-1     :     0.020170
      f+2     :     0.000937
      f-2     :     0.000999
      f+3     :     0.000258
      f-3     :     0.000267
 17 N s       :     3.300211  s :     3.300211
      pz      :     1.477524  p :     3.547651
      px      :     1.036280
      py      :     1.033847
      dz2     :     0.052297  d :     0.138460
      dxz     :     0.037805
      dyz     :     0.038000
      dx2y2   :     0.005204
      dxy     :     0.005155
      f0      :     0.007256  f :     0.018564
      f+1     :     0.004845
      f-1     :     0.004908
      f+2     :     0.000492
      f-2     :     0.000492
      f+3     :     0.000285
      f-3     :     0.000286


                      *****************************
                      * MAYER POPULATION ANALYSIS *
                      *****************************

  NA   - Mulliken gross atomic population
  ZA   - Total nuclear charge
  QA   - Mulliken gross atomic charge
  VA   - Mayer's total valence
  BVA  - Mayer's bonded valence
  FA   - Mayer's free valence

  ATOM       NA         ZA         QA         VA         BVA        FA
  0 C      6.1859     6.0000    -0.1859     3.9283     3.6446     0.2837
  1 H      0.8373     1.0000     0.1627     0.9695     0.9224     0.0471
  2 H      0.8415     1.0000     0.1585     0.9686     0.9211     0.0475
  3 H      0.8462     1.0000     0.1538     0.9686     0.9204     0.0481
  4 C      6.1143     6.0000    -0.1143     4.0178     3.5790     0.4388
  5 N      7.1747     7.0000    -0.1747     3.2292     2.7439     0.4853
  6 C      6.1899     6.0000    -0.1899     3.9064     3.6216     0.2848
  7 H      0.8444     1.0000     0.1556     0.9723     0.9245     0.0478
  8 H      0.8012     1.0000     0.1988     0.9676     0.9205     0.0471
  9 H      0.8590     1.0000     0.1410     0.9696     0.9206     0.0490
 10 C      6.0679     6.0000    -0.0679     3.9661     3.5295     0.4366
 11 N      7.2382     7.0000    -0.2382     3.1902     2.6979     0.4923
 12 C      6.1860     6.0000    -0.1860     3.9005     3.6165     0.2840
 13 H      0.8453     1.0000     0.1547     0.9721     0.9243     0.0478
 14 H      0.8476     1.0000     0.1524     0.9690     0.9208     0.0482
 15 H      0.8023     1.0000     0.1977     0.9683     0.9213     0.0470
 16 C      6.0660     6.0000    -0.0660     3.9752     3.5407     0.4345
 17 N      7.2523     7.0000    -0.2523     3.1959     2.7035     0.4924

  Mayer bond orders larger than 0.100000
B(  0-C ,  1-H ) :   0.9247 B(  0-C ,  2-H ) :   0.9271 B(  0-C ,  3-H ) :   0.9281 
B(  0-C ,  4-C ) :   0.8769 B(  4-C ,  5-N ) :   2.7251 B(  6-C ,  7-H ) :   0.9233 
B(  6-C ,  8-H ) :   0.9137 B(  6-C ,  9-H ) :   0.9300 B(  6-C , 10-C ) :   0.8717 
B( 10-C , 11-N ) :   2.6703 B( 12-C , 13-H ) :   0.9221 B( 12-C , 14-H ) :   0.9265 
B( 12-C , 15-H ) :   0.9129 B( 12-C , 16-C ) :   0.8729 B( 16-C , 17-N ) :   2.6759 



                *******************************************
                * RELAXED MP2 DENSITY POPULATION ANALYSIS *
                *******************************************

------------------------------------------------------------------------------
                           ORCA POPULATION ANALYSIS
------------------------------------------------------------------------------
Input electron density              ... 12mecn.remya.etal.2.mol3,4,7-orca.engrad-mp2.def2tzvp.frozencore.pmp2re
BaseName (.gbw .S,...)              ... 12mecn.remya.etal.2.mol3,4,7-orca.engrad-mp2.def2tzvp.frozencore

                    ********************************
                    * MULLIKEN POPULATION ANALYSIS *
                    ********************************

-----------------------
MULLIKEN ATOMIC CHARGES
-----------------------
   0 C :   -0.286585
   1 H :    0.175736
   2 H :    0.172429
   3 H :    0.168149
   4 C :   -0.143189
   5 N :   -0.086575
   6 C :   -0.285305
   7 H :    0.169866
   8 H :    0.204741
   9 H :    0.156093
  10 C :   -0.102309
  11 N :   -0.143838
  12 C :   -0.280767
  13 H :    0.169211
  14 H :    0.166380
  15 H :    0.203902
  16 C :   -0.104395
  17 N :   -0.153546
Sum of atomic charges:    0.0000000

--------------------------------
MULLIKEN REDUCED ORBITAL CHARGES
--------------------------------
  0 C s       :     3.184294  s :     3.184294
      pz      :     0.842429  p :     3.017374
      px      :     1.082421
      py      :     1.092524
      dz2     :     0.015987  d :     0.077836
      dxz     :     0.017353
      dyz     :     0.018490
      dx2y2   :     0.012814
      dxy     :     0.013192
      f0      :     0.001876  f :     0.007081
      f+1     :     0.000929
      f-1     :     0.000950
      f+2     :     0.000599
      f-2     :     0.000604
      f+3     :     0.001203
      f-3     :     0.000919
  1 H s       :     0.800188  s :     0.800188
      pz      :     0.006264  p :     0.024076
      px      :     0.005696
      py      :     0.012116
  2 H s       :     0.803492  s :     0.803492
      pz      :     0.005750  p :     0.024080
      px      :     0.008544
      py      :     0.009786
  3 H s       :     0.807789  s :     0.807789
      pz      :     0.005757  p :     0.024063
      px      :     0.012871
      py      :     0.005435
  4 C s       :     3.210896  s :     3.210896
      pz      :     0.989619  p :     2.808682
      px      :     0.909921
      py      :     0.909141
      dz2     :     0.024784  d :     0.104634
      dxz     :     0.035291
      dyz     :     0.034951
      dx2y2   :     0.004687
      dxy     :     0.004922
      f0      :     0.004422  f :     0.018977
      f+1     :     0.006417
      f-1     :     0.006408
      f+2     :     0.000601
      f-2     :     0.000617
      f+3     :     0.000256
      f-3     :     0.000256
  5 N s       :     3.648167  s :     3.648167
      pz      :     1.262383  p :     3.365215
      px      :     1.051744
      py      :     1.051088
      dz2     :     0.014874  d :     0.068004
      dxz     :     0.021715
      dyz     :     0.021654
      dx2y2   :     0.004882
      dxy     :     0.004879
[...]
      f+1     :     0.006416
      f-1     :     0.006445
      f+2     :     0.000605
      f-2     :     0.000618
      f+3     :     0.000255
      f-3     :     0.000259
 11 N s       :     3.681348  s :     3.681348
      pz      :     1.250459  p :     3.389894
      px      :     1.070607
      py      :     1.068828
      dz2     :     0.014428  d :     0.067402
      dxz     :     0.021485
      dyz     :     0.021328
      dx2y2   :     0.005087
      dxy     :     0.005075
      f0      :     0.000931  f :     0.005193
      f+1     :     0.001424
      f-1     :     0.001426
      f+2     :     0.000424
      f-2     :     0.000423
      f+3     :     0.000283
      f-3     :     0.000283
 12 C s       :     3.189652  s :     3.189652
      pz      :     0.822642  p :     3.008073
      px      :     1.087467
      py      :     1.097964
      dz2     :     0.016220  d :     0.075974
      dxz     :     0.015862
      dyz     :     0.017300
      dx2y2   :     0.013127
      dxy     :     0.013465
      f0      :     0.001852  f :     0.007068
      f+1     :     0.000915
      f-1     :     0.000939
      f+2     :     0.000595
      f-2     :     0.000595
      f+3     :     0.000910
      f-3     :     0.001261
 13 H s       :     0.806645  s :     0.806645
      pz      :     0.006354  p :     0.024143
      px      :     0.005288
      py      :     0.012501
 14 H s       :     0.809593  s :     0.809593
      pz      :     0.005542  p :     0.024027
      px      :     0.012523
      py      :     0.005962
 15 H s       :     0.771425  s :     0.771425
      pz      :     0.005631  p :     0.024673
      px      :     0.010067
      py      :     0.008975
 16 C s       :     3.226775  s :     3.226775
      pz      :     0.975151  p :     2.752068
      px      :     0.886729
      py      :     0.890187
      dz2     :     0.023030  d :     0.106587
      dxz     :     0.036600
      dyz     :     0.036919
      dx2y2   :     0.004862
      dxy     :     0.005177
      f0      :     0.004424  f :     0.018964
      f+1     :     0.006342
      f-1     :     0.006380
      f+2     :     0.000642
      f-2     :     0.000663
      f+3     :     0.000255
      f-3     :     0.000259
 17 N s       :     3.673579  s :     3.673579
      pz      :     1.254605  p :     3.407450
      px      :     1.076979
      py      :     1.075865
      dz2     :     0.014450  d :     0.067308
      dxz     :     0.021341
      dyz     :     0.021207
      dx2y2   :     0.005156
      dxy     :     0.005154
      f0      :     0.000942  f :     0.005208
      f+1     :     0.001417
      f-1     :     0.001417
      f+2     :     0.000431
      f-2     :     0.000431
      f+3     :     0.000284
      f-3     :     0.000285


                     *******************************
                     * LOEWDIN POPULATION ANALYSIS *
                     *******************************

----------------------
LOEWDIN ATOMIC CHARGES
----------------------
   0 C :   -0.285185
   1 H :    0.152019
   2 H :    0.151125
   3 H :    0.150959
   4 C :   -0.219469
   5 N :    0.050493
   6 C :   -0.283567
   7 H :    0.153423
   8 H :    0.156658
   9 H :    0.147408
  10 C :   -0.210035
  11 N :    0.035509
  12 C :   -0.280899
  13 H :    0.154129
  14 H :    0.151356
  15 H :    0.157672
  16 C :   -0.208440
  17 N :    0.026845

-------------------------------
LOEWDIN REDUCED ORBITAL CHARGES
-------------------------------
  0 C s       :     2.816694  s :     2.816694
      pz      :     1.034849  p :     3.156585
      px      :     1.060119
      py      :     1.061617
      dz2     :     0.074706  d :     0.280324
      dxz     :     0.066938
      dyz     :     0.072274
      dx2y2   :     0.032009
      dxy     :     0.034397
      f0      :     0.007936  f :     0.031582
      f+1     :     0.006820
      f-1     :     0.006373
      f+2     :     0.003028
      f-2     :     0.002841
      f+3     :     0.002776
      f-3     :     0.001808
  1 H s       :     0.782041  s :     0.782041
      pz      :     0.015595  p :     0.065940
      px      :     0.016010
      py      :     0.034335
  2 H s       :     0.782812  s :     0.782812
      pz      :     0.014336  p :     0.066063
      px      :     0.024178
      py      :     0.027549
  3 H s       :     0.783342  s :     0.783342
      pz      :     0.014299  p :     0.065699
      px      :     0.036189
      py      :     0.015211
  4 C s       :     2.840752  s :     2.840752
      pz      :     1.169455  p :     2.861682
      px      :     0.845860
      py      :     0.846367
      dz2     :     0.163905  d :     0.450559
      dxz     :     0.138487
      dyz     :     0.138146
      dx2y2   :     0.004771
      dxy     :     0.005250
      f0      :     0.025664  f :     0.066476
      f+1     :     0.019291
      f-1     :     0.019408
      f+2     :     0.000783
      f-2     :     0.000815
      f+3     :     0.000258
      f-3     :     0.000258
  5 N s       :     3.306679  s :     3.306679
      pz      :     1.465694  p :     3.486402
      px      :     1.010387
      py      :     1.010321
      dz2     :     0.053379  d :     0.137193
      dxz     :     0.037032
      dyz     :     0.037106
      dx2y2   :     0.004841
      dxy     :     0.004836
      f0      :     0.007400  f :     0.019233
      f+1     :     0.005172
      f-1     :     0.005195
      f+2     :     0.000458
      f-2     :     0.000456
      f+3     :     0.000276
      f-3     :     0.000276
  6 C s       :     2.816960  s :     2.816960
      pz      :     1.033066  p :     3.158319
      px      :     1.061793
      py      :     1.063460
      dz2     :     0.076498  d :     0.276739
      dxz     :     0.064114
      dyz     :     0.069589
      dx2y2   :     0.033061
      dxy     :     0.033476
      f0      :     0.008110  f :     0.031548
      f+1     :     0.006844
      f-1     :     0.006331
      f+2     :     0.002926
      f-2     :     0.002695
      f+3     :     0.001596
      f-3     :     0.003047
  7 H s       :     0.780855  s :     0.780855
      pz      :     0.015213  p :     0.065722
      px      :     0.014722
      py      :     0.035787
  8 H s       :     0.774808  s :     0.774808
      pz      :     0.014308  p :     0.068534
      px      :     0.028952
      py      :     0.025275
  9 H s       :     0.787063  s :     0.787063
      pz      :     0.014022  p :     0.065529
      px      :     0.034666
      py      :     0.016841
 10 C s       :     2.840996  s :     2.840996
      pz      :     1.170166  p :     2.843451
      px      :     0.836295
      py      :     0.836991
      dz2     :     0.164218  d :     0.458783
      dxz     :     0.141549
      dyz     :     0.142366
      dx2y2   :     0.005064
      dxy     :     0.005586
      f0      :     0.025575  f :     0.066806
      f+1     :     0.019520
      f-1     :     0.019570
      f+2     :     0.000796
      f-2     :     0.000823
      f+3     :     0.000257
      f-3     :     0.000265
 11 N s       :     3.301628  s :     3.301628
      pz      :     1.465404  p :     3.508088
      px      :     1.020453
      py      :     1.022230
      dz2     :     0.053074  d :     0.135738
      dxz     :     0.036375
      dyz     :     0.036166
      dx2y2   :     0.005084
      dxy     :     0.005039
      f0      :     0.007371  f :     0.019038
      f+1     :     0.005086
      f-1     :     0.005090
      f+2     :     0.000462
      f-2     :     0.000461
      f+3     :     0.000283
      f-3     :     0.000284
 12 C s       :     2.817422  s :     2.817422
      pz      :     1.030677  p :     3.157108
      px      :     1.062974
      py      :     1.063457
      dz2     :     0.076958  d :     0.274923
      dxz     :     0.061558
      dyz     :     0.069792
      dx2y2   :     0.032656
      dxy     :     0.033958
      f0      :     0.008120  f :     0.031446
      f+1     :     0.006902
      f-1     :     0.006148
      f+2     :     0.002992
      f-2     :     0.002637
      f+3     :     0.001729
      f-3     :     0.002917
 13 H s       :     0.780069  s :     0.780069
      pz      :     0.015659  p :     0.065803
      px      :     0.014842
      py      :     0.035302
 14 H s       :     0.782915  s :     0.782915
      pz      :     0.013733  p :     0.065729
      px      :     0.035257
      py      :     0.016739
 15 H s       :     0.773940  s :     0.773940
      pz      :     0.014174  p :     0.068389
      px      :     0.028439
      py      :     0.025776
 16 C s       :     2.841899  s :     2.841899
      pz      :     1.170760  p :     2.838863
      px      :     0.833466
      py      :     0.834636
      dz2     :     0.163516  d :     0.460829
      dxz     :     0.142304
      dyz     :     0.143601
      dx2y2   :     0.005359
      dxy     :     0.006049
      f0      :     0.025425  f :     0.066849
      f+1     :     0.019432
      f-1     :     0.019578
      f+2     :     0.000920
      f-2     :     0.000969
      f+3     :     0.000258
      f-3     :     0.000266
 17 N s       :     3.300780  s :     3.300780
      pz      :     1.465420  p :     3.518287
      px      :     1.025345
      py      :     1.027522
      dz2     :     0.052782  d :     0.135085
      dxz     :     0.036044
      dyz     :     0.035908
      dx2y2   :     0.005196
      dxy     :     0.005156
      f0      :     0.007339  f :     0.019003
      f+1     :     0.005043
      f-1     :     0.005061
      f+2     :     0.000494
      f-2     :     0.000494
      f+3     :     0.000285
      f-3     :     0.000286


                      *****************************
                      * MAYER POPULATION ANALYSIS *
                      *****************************

  NA   - Mulliken gross atomic population
  ZA   - Total nuclear charge
  QA   - Mulliken gross atomic charge
  VA   - Mayer's total valence
  BVA  - Mayer's bonded valence
  FA   - Mayer's free valence

  ATOM       NA         ZA         QA         VA         BVA        FA
  0 C      6.2866     6.0000    -0.2866     3.9320     3.6494     0.2826
  1 H      0.8243     1.0000     0.1757     0.9635     0.9169     0.0466
  2 H      0.8276     1.0000     0.1724     0.9624     0.9155     0.0469
  3 H      0.8319     1.0000     0.1681     0.9627     0.9151     0.0475
  4 C      6.1432     6.0000    -0.1432     4.1404     3.7124     0.4280
  5 N      7.0866     7.0000    -0.0866     3.3421     2.8691     0.4731
  6 C      6.2853     6.0000    -0.2853     3.9118     3.6283     0.2835
  7 H      0.8301     1.0000     0.1699     0.9659     0.9188     0.0471
  8 H      0.7953     1.0000     0.2047     0.9699     0.9234     0.0464
  9 H      0.8439     1.0000     0.1561     0.9640     0.9157     0.0483
 10 C      6.1023     6.0000    -0.1023     4.0800     3.6542     0.4258
 11 N      7.1438     7.0000    -0.1438     3.3003     2.8208     0.4795
 12 C      6.2808     6.0000    -0.2808     3.9079     3.6252     0.2827
 13 H      0.8308     1.0000     0.1692     0.9658     0.9186     0.0472
 14 H      0.8336     1.0000     0.1664     0.9630     0.9155     0.0476
 15 H      0.7961     1.0000     0.2039     0.9700     0.9236     0.0464
 16 C      6.1044     6.0000    -0.1044     4.0913     3.6675     0.4238
 17 N      7.1535     7.0000    -0.1535     3.3084     2.8289     0.4794

  Mayer bond orders larger than 0.100000
B(  0-C ,  1-H ) :   0.9155 B(  0-C ,  2-H ) :   0.9177 B(  0-C ,  3-H ) :   0.9185 
B(  0-C ,  4-C ) :   0.9011 B(  4-C ,  5-N ) :   2.8327 B(  6-C ,  7-H ) :   0.9143 
B(  6-C ,  8-H ) :   0.9028 B(  6-C ,  9-H ) :   0.9198 B(  6-C , 10-C ) :   0.8996 
B( 10-C , 11-N ) :   2.7678 B( 12-C , 13-H ) :   0.9133 B( 12-C , 14-H ) :   0.9165 
B( 12-C , 15-H ) :   0.9022 B( 12-C , 16-C ) :   0.9013 B( 16-C , 17-N ) :   2.7755 



----------------------------------
MP2 DERIVATIVE INTEGRAL GENERATION
----------------------------------


Input Wavefunction Amplitudes       ... 12mecn.remya.etal.2.mol3,4,7-orca.engrad-mp2.def2tzvp.frozencore.mp2tsaa.tmp
Input Correlated Electron Density   ... 12mecn.remya.etal.2.mol3,4,7-orca.engrad-mp2.def2tzvp.frozencore.pmp2re
Input Energy Weighted Density       ... 12mecn.remya.etal.2.mol3,4,7-orca.engrad-mp2.def2tzvp.frozencore.wmp2.tmp
Input SCF Electron Density          ... 12mecn.remya.etal.2.mol3,4,7-orca.engrad-mp2.def2tzvp.frozencore.scfp

One-Electron Terms    ...
                        ... One-Electron Terms done
Prescreening matrices              ... done

Batch handling in the gradient evaluation:
Memory available                      ... 8000.0 MB
Memory per occupied orbital in Q2     ...   20.3 MB
Memory per occupied orbital in Q3     ...    0.1 MB
Total memory requirement per |i>      ...   20.4 MB
Max. Number of orbitals possible      ...    391
Number of orbitals treated per batch  ...     24
Number of batches to be done          ...      1
Batch   0: i=    9 ...    32

---------------------------------------
MP2 TOTAL ENERGY:     -397.458586739 Eh
---------------------------------------

The final MP2 gradient
  0:  -0.00245112   0.00215876   0.00736444
  1:  -0.00079037   0.00245992  -0.00045607
  2:  -0.00017117  -0.00195907  -0.00006442
  3:   0.00235865  -0.00176584   0.00095549
  4:   0.00073651  -0.00068156  -0.00310236
  5:   0.00024250  -0.00033078  -0.00471183
  6:   0.00152564  -0.00179101   0.00711705
  7:   0.00086188  -0.00370944   0.00065243
  8:   0.00042562   0.00271156  -0.00021079
  9:  -0.00202860   0.00254486   0.00098209
 10:  -0.00027417   0.00031496  -0.00489509
 11:  -0.00084655   0.00016820  -0.00345875
 12:  -0.00163525   0.00189791  -0.00701477
 13:  -0.00083689   0.00361825  -0.00044990
 14:   0.00241828  -0.00226104  -0.00111898
 15:  -0.00076997  -0.00280184   0.00000611
 16:   0.00049073  -0.00046737   0.00424715
 17:   0.00074429  -0.00010647   0.00415820

-----------------------------------
NORM OF THE MP2 GRADIENT:  0.019283
-----------------------------------

-------------------------   --------------------
FINAL SINGLE POINT ENERGY      -397.458586738861
-------------------------   --------------------


                            ***************************************
                            *     ORCA property calculations      *
                            ***************************************

                                    ---------------------
                                    Active property flags
                                    ---------------------
   (+) Dipole Moment


------------------------------------------------------------------------------
                       ORCA ELECTRIC PROPERTIES CALCULATION
------------------------------------------------------------------------------

Dipole Moment Calculation                       ... on
Quadrupole Moment Calculation                   ... off
Polarizability Calculation                      ... off
GBWName                                         ... 12mecn.remya.etal.2.mol3,4,7-orca.engrad-mp2.def2tzvp.frozencore.gbw
Electron density file                           ... 12mecn.remya.etal.2.mol3,4,7-orca.engrad-mp2.def2tzvp.frozencore.scfp
The origin for moment calculation is the CENTER OF MASS  = (-3.279784,  1.824803 -0.149870)

-------------
DIPOLE MOMENT
-------------
                                X             Y             Z
Electronic contribution:     -0.05474       0.21961       3.08977
Nuclear contribution   :      0.08604      -0.32994      -4.66308
                        -----------------------------------------
Total Dipole Moment    :      0.03130      -0.11034      -1.57331
                        -----------------------------------------
Magnitude (a.u.)       :      1.57749
Magnitude (Debye)      :      4.00965



--------------------
Rotational spectrum 
--------------------
 
Rotational constants in cm-1:     0.054633     0.014228     0.013519 
Rotational constants in MHz :  1637.851962   426.530201   405.296051 

 Dipole components along the rotational axes: 
x,y,z [a.u.] :    -0.105248    -1.312606    -0.868592 
x,y,z [Debye]:    -0.267519    -3.336380    -2.207784 

 

                         *** MP2 UNRELAXED DENSITY ***

------------------------------------------------------------------------------
                       ORCA ELECTRIC PROPERTIES CALCULATION
------------------------------------------------------------------------------

Dipole Moment Calculation                       ... on
Quadrupole Moment Calculation                   ... off
Polarizability Calculation                      ... off
GBWName                                         ... 12mecn.remya.etal.2.mol3,4,7-orca.engrad-mp2.def2tzvp.frozencore.gbw
Electron density file                           ... 12mecn.remya.etal.2.mol3,4,7-orca.engrad-mp2.def2tzvp.frozencore.pmp2ur
The origin for moment calculation is the CENTER OF MASS  = (-3.279784,  1.824803 -0.149870)

-------------
DIPOLE MOMENT
-------------
                                X             Y             Z
Electronic contribution:     -0.05498       0.22194       3.12511
Nuclear contribution   :      0.08604      -0.32994      -4.66308
                        -----------------------------------------
Total Dipole Moment    :      0.03106      -0.10800      -1.53797
                        -----------------------------------------
Magnitude (a.u.)       :      1.54208
Magnitude (Debye)      :      3.91964



--------------------
Rotational spectrum 
--------------------
 
Rotational constants in cm-1:     0.054633     0.014228     0.013519 
Rotational constants in MHz :  1637.851962   426.530201   405.296051 

 Dipole components along the rotational axes: 
x,y,z [a.u.] :    -0.102408    -1.283143    -0.849148 
x,y,z [Debye]:    -0.260299    -3.261491    -2.158362 

 

                           *** MP2 RELAXED DENSITY ***

------------------------------------------------------------------------------
                       ORCA ELECTRIC PROPERTIES CALCULATION
------------------------------------------------------------------------------

Dipole Moment Calculation                       ... on
Quadrupole Moment Calculation                   ... off
Polarizability Calculation                      ... off
GBWName                                         ... 12mecn.remya.etal.2.mol3,4,7-orca.engrad-mp2.def2tzvp.frozencore.gbw
Electron density file                           ... 12mecn.remya.etal.2.mol3,4,7-orca.engrad-mp2.def2tzvp.frozencore.pmp2re
The origin for moment calculation is the CENTER OF MASS  = (-3.279784,  1.824803 -0.149870)

-------------
DIPOLE MOMENT
-------------
                                X             Y             Z
Electronic contribution:     -0.05614       0.22843       3.21832
Nuclear contribution   :      0.08604      -0.32994      -4.66308
                        -----------------------------------------
Total Dipole Moment    :      0.02990      -0.10151      -1.44477
                        -----------------------------------------
Magnitude (a.u.)       :      1.44864
Magnitude (Debye)      :      3.68214



--------------------
Rotational spectrum 
--------------------
 
Rotational constants in cm-1:     0.054633     0.014228     0.013519 
Rotational constants in MHz :  1637.851962   426.530201   405.296051 

 Dipole components along the rotational axes: 
x,y,z [a.u.] :    -0.095515    -1.205301    -0.797918 
x,y,z [Debye]:    -0.242780    -3.063631    -2.028146 

 

Timings for individual modules:

Sum of individual times         ...      197.651 sec (=   3.294 min)
GTO integral calculation        ...        5.645 sec (=   0.094 min)   2.9 %
SCF iterations                  ...       43.637 sec (=   0.727 min)  22.1 %
MP2 module                      ...      148.368 sec (=   2.473 min)  75.1 %
                             ****ORCA TERMINATED NORMALLY****
TOTAL RUN TIME: 0 days 0 hours 3 minutes 18 seconds 761 msec
