61
Energy:   -384.92729668
    C      2.83618871      2.46560939     -0.21422199
    H      3.34960465      1.57920141     -0.52339047
    H      2.13347135      2.22094169      0.55468966
    H      3.54370408      3.17482247      0.16172733
    C      2.09034665      3.07277726     -1.41699663
    N      1.53503334      3.52484133     -2.31251701
    C      1.58217608     -0.10295212     -3.39138820
    H      1.52647407      0.90966690     -3.73256292
    H      0.82404119     -0.27372531     -2.65588354
    H      1.43344528     -0.76638379     -4.21760648
    C      2.96755647     -0.35973558     -2.76979073
    N      3.99903515     -0.55092254     -2.30698316
    C      1.21278767     -3.34741955     -0.99646579
    H      0.32615375     -3.19046727     -0.41841177
    H      1.86666051     -2.50828198     -0.88158526
    H      1.70717326     -4.23382561     -0.65769407
    C      0.83624329     -3.50528249     -2.48135420
    N      0.55588888     -3.62281863     -3.58692113
    C     -1.31948056      3.49329751      0.60522776
    H     -1.42810352      4.01961280     -0.32002542
    H     -2.19554638      3.63729128      1.20244930
    H     -1.18937438      2.44957634      0.40871420
    C     -0.08951824      4.03073278      1.36018209
    N      0.82624461      4.43087777      1.92227990
    C     -0.46662847     -2.84176255      2.42345831
    H     -0.46837895     -3.90890749      2.50155307
    H      0.51472226     -2.50488482      2.16199467
    H     -1.16096612     -2.53828614      1.66801381
    C     -0.87719410     -2.22750173      3.77465020
    N     -1.18287888     -1.77015663      4.78067397
    C      0.10801273      1.29259438      3.82590774
    H      0.30746209      0.83591939      4.77278054
    H      0.83589739      2.05367836      3.63660856
    H      0.15764782      0.55200298      3.05521986
    C     -1.29809497      1.92037211      3.84478253
    N     -2.34500607      2.38778116      3.85883567
    C      3.52054741     -0.97720098      1.37278755
    H      4.52515265     -0.66627007      1.57024757
    H      2.84348167     -0.38504581      1.95229884
    H      3.30557551     -0.84933918      0.33243303
    C      3.35853394     -2.46099790      1.75186317
    N      3.23790754     -3.56575216      2.03410220
    C     -2.25010950     -1.65216958     -2.24275489
    H     -3.06416486     -0.96950153     -2.36994924
    H     -2.07837134     -2.17715546     -3.15915814
    H     -1.36856362     -1.10953943     -1.97196258
    C     -2.59442060     -2.66009758     -1.13049098
    N     -2.85077587     -3.41054580     -0.30235994
    C     -3.23899598     -0.21110423      1.66313000
    H     -3.43506396     -1.25808113      1.56165627
    H     -3.74339267      0.16393896      2.52905475
    H     -2.18578861     -0.05397709      1.76784094
    C     -3.74668270      0.52983368      0.41218427
    N     -4.12467855      1.08149563     -0.51920168
    C     -1.55915062      2.07515957     -2.72463917
    H     -1.01633684      1.50103061     -2.00309269
    H     -2.55891064      2.23162874     -2.37693758
    H     -1.07772897      3.02060529     -2.86343644
    C     -1.59437699      1.31554103     -4.06379516
    N     -1.62060461      0.74997049     -5.06085767
   Cl      0.26211758     -0.06070914      0.20508717
