61
Energy:   -385.93445406
    C      3.80131859     -0.25021657      1.10252089
    H      4.23132055      0.14610226      0.20645734
    H      4.34786915      0.10875517      1.94946886
    H      2.78102450      0.06328444      1.17746204
    C      3.86427387     -1.78848022      1.06535130
    N      3.91114694     -2.93378743      1.03767685
    C     -1.40995872      2.17102008     -2.63332828
    H     -2.45440159      1.93873841     -2.62413658
    H     -1.27438243      3.19305986     -2.91960236
    H     -1.00174075      2.01713060     -1.65630463
    C     -0.68939767      1.25584297     -3.64072226
    N     -0.15290722      0.57445201     -4.39077287
    C     -3.08244057     -1.79433730      1.41907641
    H     -2.40034238     -1.10390146      0.96858713
    H     -4.00166692     -1.29386451      1.64144767
    H     -3.27061983     -2.60218967      0.74316058
    C     -2.47031470     -2.34565297      2.72021167
    N     -2.01455917     -2.75613255      3.68896601
    C      0.22601373      3.48620282      1.22269952
    H      0.30323150      4.45609835      0.77745773
    H     -0.52688612      3.50161319      1.98283334
    H     -0.03840559      2.76973652      0.47326135
    C      1.57905940      3.09927405      1.84812222
    N      2.58646339      2.81118799      2.31377785
    C      0.41196925     -0.13111759      3.55315409
    H      0.15965433     -0.94164736      2.90178716
    H      0.66958860     -0.51571780      4.51783747
    H      1.24492620      0.40526108      3.14895149
    C     -0.79450267      0.81699353      3.68396240
    N     -1.69277585      1.52290536      3.78135514
    C     -1.87313956     -2.08935291     -2.42925910
    H     -2.21783761     -3.07180010     -2.67599977
    H     -1.26810232     -2.13453326     -1.54790346
    H     -1.29346580     -1.70059691     -3.24027464
    C     -3.08213239     -1.16985385     -2.17537369
    N     -3.98228251     -0.48524501     -1.98634447
    C     -3.24721294      1.81291026      0.75356883
    H     -2.25232627      1.41926598      0.74153303
    H     -3.87134888      1.22453244      0.11390880
    H     -3.63065529      1.78276870      1.75204895
    C     -3.22894648      3.26967192      0.25445781
    N     -3.21534626      4.35429719     -0.11715304
    C      2.03645597     -1.97899374     -2.40893051
    H      1.29618160     -1.25921946     -2.68967777
    H      1.83682243     -2.32772193     -1.41724800
    H      2.00793442     -2.80405137     -3.08964007
    C      3.43027296     -1.32555532     -2.45243296
    N      4.46803305     -0.83904073     -2.48482251
    C      0.61505190     -3.71746308      1.28563941
    H      0.88774613     -2.74796560      0.92423564
    H      1.45490723     -4.37597547      1.20880495
    H      0.31168734     -3.64424917      2.30911816
    C     -0.54957170     -4.27042341      0.44332904
    N     -1.41668690     -4.68212751     -0.18380932
    C      2.51100655      2.02165026     -1.74755205
    H      3.50528935      2.00365004     -2.14249241
    H      1.91529375      1.28674157     -2.24748660
    H      2.53935276      1.80536620     -0.70002315
    C      1.89656528      3.41656614     -1.96726005
    N      1.43908581      4.45514442     -2.13084264
   Cl      0.13481054     -0.10900956     -0.01283796
