61
Energy:   -386.00734717
    C     -2.10409085      2.85081923      0.28541181
    H     -2.52187671      1.87687985      0.43305067
    H     -2.50056982      3.52362279      1.01687533
    H     -1.03996596      2.80142554      0.38589850
    C     -2.46370319      3.35532058     -1.12446668
    N     -2.73145092      3.73094478     -2.17418530
    C      2.94180162      2.14706999     -0.41642366
    H      3.57287614      2.38778162     -1.24630499
    H      2.32947313      1.30589644     -0.66618350
    H      3.54608732      1.90844213      0.43374963
    C      2.04510005      3.35473418     -0.08616085
    N      1.37746498      4.25389505      0.15973483
    C      3.16812245     -1.52931019      0.50993605
    H      2.79912155     -0.61657807      0.92905250
    H      2.60757716     -1.77045075     -0.36900610
    H      4.20040400     -1.41245583      0.25373507
    C      3.02026005     -2.66408494      1.54048104
    N      2.91016977     -3.50897632      2.30776863
    C      0.47432306      2.09569916      2.96994661
    H      0.04297487      2.10304195      3.94912228
    H     -0.10237575      1.46012475      2.33091394
    H      0.47844356      3.08995665      2.57455547
    C      1.91922933      1.56889458      3.04946276
    N      2.99502772      1.17666463      3.10866615
    C     -2.80162007     -0.07923664     -2.52139621
    H     -2.09204584      0.69591289     -2.32003136
    H     -3.06578171     -0.06044695     -3.55810478
    H     -2.37085244     -1.02854397     -2.28024495
    C     -4.06266685      0.14437770     -1.66620171
    N     -5.00157351      0.31086874     -1.02947053
    C      0.27978441     -1.57947268      3.63301158
    H     -0.04693357     -0.78159275      4.26668592
    H      0.42471327     -1.20943258      2.63955043
    H      1.20202066     -1.97505835      4.00434884
    C     -0.78590786     -2.69105876      3.61638752
    N     -1.57936419     -3.51868513      3.60401015
    C     -0.28406394     -3.75311868      0.21488546
    H      0.18189260     -3.06826880      0.89220764
    H     -0.67495162     -4.58547676      0.76195578
    H     -1.08113929     -3.25876161     -0.30007190
    C      0.75508753     -4.25232263     -0.80617263
    N      1.52878303     -4.62400267     -1.56639680
    C      0.38687724      2.40744956     -3.13469391
    H      0.15289251      1.92680809     -2.20779850
    H     -0.07844890      3.37050837     -3.16450024
    H      1.44742535      2.52097319     -3.21983610
    C     -0.13303526      1.54973854     -4.30329255
    N     -0.52013375      0.91113369     -5.17336736
    C     -3.40058960     -0.84973483      1.84721461
    H     -4.38899105     -0.56455686      1.55287418
    H     -3.41052694     -1.86065193      2.19770992
    H     -2.74148743     -0.76962182      1.00812861
    C     -2.91234159      0.07948580      2.97405218
    N     -2.54881876      0.77133280      3.81303396
    C      1.41741812     -1.61333527     -3.32961767
    H      0.78021416     -1.40616653     -4.16385530
    H      0.84304495     -1.58820476     -2.42719703
    H      1.85492553     -2.58271362     -3.44705688
    C      2.53150185     -0.55249045     -3.25872545
    N      3.36098783      0.23735674     -3.20594297
   Cl     -0.13071847     -0.16234887     -0.09771212
