
                                 *****************
                                 * O   R   C   A *
                                 *****************

           --- An Ab Initio, DFT and Semiempirical electronic structure package ---

                  #######################################################
                  #                        -***-                        #
                  #          Department of theory and spectroscopy      #
                  #               Directorship: Frank Neese             #
                  #        Max Planck Institute fuer Kohlenforschung    #
                  #                Kaiser Wilhelm Platz 1               #
                  #                 D-45470 Muelheim/Ruhr               #
                  #                      Germany                        #
                  #                                                     #
                  #                  All rights reserved                #
                  #                        -***-                        #
                  #######################################################


                         Program Version 4.2.0 -  RELEASE  -


 With contributions from (in alphabetic order):
   Daniel Aravena         : Magnetic Suceptibility
   Michael Atanasov       : Ab Initio Ligand Field Theory (pilot matlab implementation)
   Alexander A. Auer      : GIAO ZORA, VPT2
   Ute Becker             : Parallelization
   Giovanni Bistoni       : ED, misc. LED, open-shell LED, HFLED
   Martin Brehm           : Molecular dynamics
   Dmytro Bykov           : SCF Hessian
   Vijay G. Chilkuri      : MRCI spin determinant printing, contributions to CSF-ICE
   Dipayan Datta          : RHF DLPNO-CCSD density
   Achintya Kumar Dutta   : EOM-CC, STEOM-CC
   Dmitry Ganyushin       : Spin-Orbit,Spin-Spin,Magnetic field MRCI
   Miquel Garcia          : C-PCM Hessian, Gaussian charge scheme
   Yang Guo               : DLPNO-NEVPT2, CIM, IAO-localization
   Andreas Hansen         : Spin unrestricted coupled pair/coupled cluster methods
   Benjamin Helmich-Paris : CASSCF linear response (MC-RPA)
   Lee Huntington         : MR-EOM, pCC
   Robert Izsak           : Overlap fitted RIJCOSX, COSX-SCS-MP3, EOM
   Christian Kollmar      : KDIIS, OOCD, Brueckner-CCSD(T), CCSD density
   Simone Kossmann        : Meta GGA functionals, TD-DFT gradient, OOMP2, MP2 Hessian
   Martin Krupicka        : AUTO-CI
   Lucas Lang             : DCDCAS
   Dagmar Lenk            : GEPOL surface, SMD
   Dimitrios Liakos       : Extrapolation schemes; Compound Job, initial MDCI parallelization
   Dimitrios Manganas     : Further ROCIS development; embedding schemes
   Dimitrios Pantazis     : SARC Basis sets
   Taras Petrenko         : DFT Hessian,TD-DFT gradient, ASA, ECA, R-Raman, ABS, FL, XAS/XES, NRVS
   Peter Pinski           : DLPNO-MP2, DLPNO-MP2 Gradient
   Christoph Reimann      : Effective Core Potentials
   Marius Retegan         : Local ZFS, SOC
   Christoph Riplinger    : Optimizer, TS searches, QM/MM, DLPNO-CCSD(T), (RO)-DLPNO pert. Triples
   Tobias Risthaus        : Range-separated hybrids, TD-DFT gradient, RPA, STAB
   Michael Roemelt        : Original ROCIS implementation
   Masaaki Saitow         : Open-shell DLPNO-CCSD energy and density
   Barbara Sandhoefer     : DKH picture change effects
   Avijit Sen             : IP-ROCIS
   Kantharuban Sivalingam : CASSCF convergence, NEVPT2, FIC-MRCI
   Bernardo de Souza      : ESD, SOC TD-DFT
   Georgi Stoychev        : AutoAux, RI-MP2 NMR
   Willem Van den Heuvel  : Paramagnetic NMR
   Boris Wezisla          : Elementary symmetry handling
   Frank Wennmohs         : Technical directorship


 We gratefully acknowledge several colleagues who have allowed us to
 interface, adapt or use parts of their codes:
   Stefan Grimme, W. Hujo, H. Kruse,             : VdW corrections, initial TS optimization,
                  C. Bannwarth                     DFT functionals, gCP, sTDA/sTD-DF
   Ed Valeev, F. Pavosevic, A. Kumar             : LibInt (2-el integral package), F12 methods
   Garnet Chan, S. Sharma, J. Yang, R. Olivares  : DMRG
   Ulf Ekstrom                                   : XCFun DFT Library
   Mihaly Kallay                                 : mrcc  (arbitrary order and MRCC methods)
   Andreas Klamt, Michael Diedenhofen            : otool_cosmo (COSMO solvation model)
   Jiri Pittner, Ondrej Demel                    : Mk-CCSD
   Frank Weinhold                                : gennbo (NPA and NBO analysis)
   Christopher J. Cramer and Donald G. Truhlar   : smd solvation model
   Lars Goerigk                                  : TD-DFT with DH, B97 family of functionals
   V. Asgeirsson, H. Jonsson                     : NEB implementation
   FAccTs GmbH                                   : IRC, NEB, NEB-TS, Multilevel, MM, QM/MM, CI optimization
   S Lehtola, MJT Oliveira, MAL Marques          : LibXC Library


 Your calculation uses the libint2 library for the computation of 2-el integrals
 For citations please refer to: http://libint.valeyev.net

 Your ORCA version has been built with support for libXC version: 4.2.3
 For citations please refer to: https://tddft.org/programs/libxc/

 This ORCA versions uses:
   CBLAS   interface :  Fast vector & matrix operations
   LAPACKE interface :  Fast linear algebra routines
   SCALAPACK package :  Parallel linear algebra routines


----- Orbital basis set information -----
Your calculation utilizes the basis: def2-TZVP
   F. Weigend and R. Ahlrichs, Phys. Chem. Chem. Phys. 7, 3297 (2005).

================================================================================
                                        WARNINGS
                       Please study these warnings very carefully!
================================================================================


WARNING: The frozen-core approximation for MP2-gradient calculations is turned on by default.

INFO   : the flag for use of LIBINT has been found!

================================================================================
                                       INPUT FILE
================================================================================
NAME = 12h2o.su.etal.mol0,1,3,6,7,8,10,11-orca.engrad-mp2.def2tzvp.frozencore.inp
|  1> # 12h2o.su.etal.mol0,1,3,6,7,8,10,11
|  2> ! MP2 def2-TZVP EnGrad TightSCF
|  3> 
|  4> %pal
|  5>     nprocs 6
|  6> end
|  7> 
|  8> %maxcore 8000
|  9> 
| 10> %scf
| 11>     ConvForced true
| 12> end
| 13> 
| 14> *xyz 0 1
| 15> O   1.794470000   0.923410000   2.768350000
| 16> H   2.338250000   1.359750000   3.430940000
| 17> H   0.879480000   1.303000000   2.865760000
| 18> O  -1.794470000  -0.923410000   2.768350000
| 19> H  -2.338250000  -1.359750000   3.430940000
| 20> H  -0.879480000  -1.303000000   2.865760000
| 21> O  -1.752130000  -0.741530000  -2.896280000
| 22> H  -2.036450000  -0.920500000  -1.984040000
| 23> H  -0.921210000  -1.242140000  -2.984230000
| 24> O   1.737840000   0.885520000  -0.052730000
| 25> H   2.090180000   1.032320000   0.841890000
| 26> H   0.839590000   1.284090000  -0.017130000
| 27> O  -1.737840000  -0.885520000  -0.052730000
| 28> H  -2.090180000  -1.032320000   0.841890000
| 29> H  -0.839590000  -1.284090000  -0.017130000
| 30> O   1.752130000   0.741530000  -2.896280000
| 31> H   2.036450000   0.920500000  -1.984040000
| 32> H   0.921210000   1.242140000  -2.984230000
| 33> O  -0.923410000   1.794470000  -2.768350000
| 34> H  -1.359750000   2.338250000  -3.430940000
| 35> H  -1.303000000   0.879480000  -2.865760000
| 36> O  -0.741530000   1.752130000   2.896280000
| 37> H  -0.920500000   2.036450000   1.984040000
| 38> H  -1.242140000   0.921210000   2.984230000
| 39> *
| 40> 
| 41>                          ****END OF INPUT****
================================================================================

                     *******************************
                     * Energy+Gradient Calculation *
                     *******************************

---------------------------------
CARTESIAN COORDINATES (ANGSTROEM)
---------------------------------
  O      1.794470    0.923410    2.768350
  H      2.338250    1.359750    3.430940
  H      0.879480    1.303000    2.865760
  O     -1.794470   -0.923410    2.768350
  H     -2.338250   -1.359750    3.430940
  H     -0.879480   -1.303000    2.865760
  O     -1.752130   -0.741530   -2.896280
  H     -2.036450   -0.920500   -1.984040
  H     -0.921210   -1.242140   -2.984230
  O      1.737840    0.885520   -0.052730
  H      2.090180    1.032320    0.841890
  H      0.839590    1.284090   -0.017130
  O     -1.737840   -0.885520   -0.052730
  H     -2.090180   -1.032320    0.841890
  H     -0.839590   -1.284090   -0.017130
  O      1.752130    0.741530   -2.896280
  H      2.036450    0.920500   -1.984040
  H      0.921210    1.242140   -2.984230
  O     -0.923410    1.794470   -2.768350
  H     -1.359750    2.338250   -3.430940
  H     -1.303000    0.879480   -2.865760
  O     -0.741530    1.752130    2.896280
  H     -0.920500    2.036450    1.984040
  H     -1.242140    0.921210    2.984230

----------------------------
CARTESIAN COORDINATES (A.U.)
----------------------------
  NO LB      ZA    FRAG     MASS         X           Y           Z
   0 O     8.0000    0    15.999    3.391057    1.744992    5.231423
   1 H     1.0000    0     1.008    4.418652    2.569555    6.483537
   2 H     1.0000    0     1.008    1.661976    2.462313    5.415502
   3 O     8.0000    0    15.999   -3.391057   -1.744992    5.231423
   4 H     1.0000    0     1.008   -4.418652   -2.569555    6.483537
   5 H     1.0000    0     1.008   -1.661976   -2.462313    5.415502
   6 O     8.0000    0    15.999   -3.311046   -1.401289   -5.473176
   7 H     1.0000    0     1.008   -3.848333   -1.739493   -3.749292
   8 H     1.0000    0     1.008   -1.740835   -2.347304   -5.639377
   9 O     8.0000    0    15.999    3.284042    1.673390   -0.099645
  10 H     1.0000    0     1.008    3.949868    1.950802    1.590942
  11 H     1.0000    0     1.008    1.586595    2.426578   -0.032371
  12 O     8.0000    0    15.999   -3.284042   -1.673390   -0.099645
  13 H     1.0000    0     1.008   -3.949868   -1.950802    1.590942
  14 H     1.0000    0     1.008   -1.586595   -2.426578   -0.032371
  15 O     8.0000    0    15.999    3.311046    1.401289   -5.473176
  16 H     1.0000    0     1.008    3.848333    1.739493   -3.749292
  17 H     1.0000    0     1.008    1.740835    2.347304   -5.639377
  18 O     8.0000    0    15.999   -1.744992    3.391057   -5.231423
  19 H     1.0000    0     1.008   -2.569555    4.418652   -6.483537
  20 H     1.0000    0     1.008   -2.462313    1.661976   -5.415502
  21 O     8.0000    0    15.999   -1.401289    3.311046    5.473176
  22 H     1.0000    0     1.008   -1.739493    3.848333    3.749292
  23 H     1.0000    0     1.008   -2.347304    1.740835    5.639377

--------------------------------
INTERNAL COORDINATES (ANGSTROEM)
--------------------------------
 O      0   0   0     0.000000000000     0.00000000     0.00000000
 H      1   0   0     0.961828878803     0.00000000     0.00000000
 H      1   2   0     0.995381322057   106.21731035     0.00000000
 O      3   1   2     3.480861789658   117.35405144   223.81249033
 H      4   3   1     0.961828878803   134.84484566    98.22461471
 H      4   3   1     0.995381322057    62.29205096    12.66575463
 O      4   3   1     5.667707300743    90.09768939   276.02472436
 H      7   4   3     0.972136791249    18.92045113   191.47242104
 H      7   4   3     0.974050112161    94.59568686    71.02022155
 O      1   2   3     2.821902722526   134.92023192   114.47749497
 H     10   1   2     0.972645187106    21.75017499    16.91177088
 H     10   1   2     0.983350632989    88.66470709   242.75499327
 O      8   7   4     1.954571525578   151.55104644   356.10627670
 H     13   8   7     0.972645187106   148.29772527   173.62852352
 H     13   8   7     0.983350632989    99.67573411   310.71905253
 O     10   1   2     2.847229166523   177.43098014    94.85867930
 H     16  10  11     0.972136791249    19.08819947   351.20495187
 H     16  10  11     0.974050112161    93.43428486   227.10867198
 O     18  16  10     1.937600461318   161.54375213   306.34627465
 H     19  18  16     0.961828878803   121.08403650   202.75419110
 H     19  18  16     0.995381322057    95.17003195   315.21089530
 O      3   1   2     1.682356278379   171.61043709   195.73896161
 H     22   3   1     0.972136791249   103.79460456   289.35412162
 H     22   3   1     0.974050112161   105.61118924    38.30604821

---------------------------
INTERNAL COORDINATES (A.U.)
---------------------------
 O      0   0   0     0.000000000000     0.00000000     0.00000000
 H      1   0   0     1.817593168635     0.00000000     0.00000000
 H      1   2   0     1.880998097508   106.21731035     0.00000000
 O      3   1   2     6.577875492484   117.35405144   223.81249033
 H      4   3   1     1.817593168635   134.84484566    98.22461471
 H      4   3   1     1.880998097508    62.29205096    12.66575463
 O      4   3   1    10.710414605631    90.09768939   276.02472436
 H      7   4   3     1.837072300170    18.92045113   191.47242104
 H      7   4   3     1.840687952699    94.59568686    71.02022155
 O      1   2   3     5.332623322141   134.92023192   114.47749497
 H     10   1   2     1.838033029106    21.75017499    16.91177088
 H     10   1   2     1.858263389967    88.66470709   242.75499327
 O      8   7   4     3.693604892503   151.55104644   356.10627670
 H     13   8   7     1.838033029106   148.29772527   173.62852352
 H     13   8   7     1.858263389967    99.67573411   310.71905253
 O     10   1   2     5.380483365242   177.43098014    94.85867930
 H     16  10  11     1.837072300170    19.08819947   351.20495187
 H     16  10  11     1.840687952699    93.43428486   227.10867198
 O     18  16  10     3.661534228851   161.54375213   306.34627465
 H     19  18  16     1.817593168635   121.08403650   202.75419110
 H     19  18  16     1.880998097508    95.17003195   315.21089530
 O      3   1   2     3.179192625819   171.61043709   195.73896161
 H     22   3   1     1.837072300170   103.79460456   289.35412162
 H     22   3   1     1.840687952699   105.61118924    38.30604821

---------------------
BASIS SET INFORMATION
---------------------
There are 2 groups of distinct atoms

 Group   1 Type O   : 11s6p2d1f contracted to 5s3p2d1f pattern {62111/411/11/1}
 Group   2 Type H   : 5s1p contracted to 3s1p pattern {311/1}

Atom   0O    basis set group =>   1
Atom   1H    basis set group =>   2
Atom   2H    basis set group =>   2
Atom   3O    basis set group =>   1
Atom   4H    basis set group =>   2
Atom   5H    basis set group =>   2
Atom   6O    basis set group =>   1
Atom   7H    basis set group =>   2
Atom   8H    basis set group =>   2
Atom   9O    basis set group =>   1
Atom  10H    basis set group =>   2
Atom  11H    basis set group =>   2
Atom  12O    basis set group =>   1
Atom  13H    basis set group =>   2
Atom  14H    basis set group =>   2
Atom  15O    basis set group =>   1
Atom  16H    basis set group =>   2
Atom  17H    basis set group =>   2
Atom  18O    basis set group =>   1
Atom  19H    basis set group =>   2
Atom  20H    basis set group =>   2
Atom  21O    basis set group =>   1
Atom  22H    basis set group =>   2
Atom  23H    basis set group =>   2


           ************************************************************
           *        Program running with 6 parallel MPI-processes     *
           *              working on a common directory               *
           ************************************************************
------------------------------------------------------------------------------
                           ORCA GTO INTEGRAL CALCULATION
------------------------------------------------------------------------------

                         BASIS SET STATISTICS AND STARTUP INFO

 # of primitive gaussian shells          ...  256
 # of primitive gaussian functions       ...  496
 # of contracted shells                  ...  152
 # of contracted basis functions         ...  344
 Highest angular momentum                ...    3
 Maximum contraction depth               ...    6
 Integral package used                   ... LIBINT
 Integral threshhold            Thresh   ...  2.500e-11
 Primitive cut-off              TCut     ...  2.500e-12


------------------------------ INTEGRAL EVALUATION ----------------------------


 * One electron integrals 
 Pre-screening matrix                    ... done
 Shell pair data                         ... done (   0.002 sec)



           ************************************************************
           *        Program running with 6 parallel MPI-processes     *
           *              working on a common directory               *
           ************************************************************
-------------------------------------------------------------------------------
                                 ORCA SCF
-------------------------------------------------------------------------------

------------
SCF SETTINGS
------------
Hamiltonian:
 Ab initio Hamiltonian  Method          .... Hartree-Fock(GTOs)


General Settings:
 Integral files         IntName         .... 12h2o.su.etal.mol0,1,3,6,7,8,10,11-orca.engrad-mp2.def2tzvp.frozencore
 Hartree-Fock type      HFTyp           .... RHF
 Total Charge           Charge          ....    0
 Multiplicity           Mult            ....    1
 Number of Electrons    NEL             ....   80
 Basis Dimension        Dim             ....  344
 Nuclear Repulsion      ENuc            ....    440.2883792223 Eh

Convergence Acceleration:
 DIIS                   CNVDIIS         .... on
   Start iteration      DIISMaxIt       ....    12
   Startup error        DIISStart       ....  0.200000
   # of expansion vecs  DIISMaxEq       ....     5
   Bias factor          DIISBfac        ....   1.050
   Max. coefficient     DIISMaxC        ....  10.000
 Newton-Raphson         CNVNR           .... off
 SOSCF                  CNVSOSCF        .... on
   Start iteration      SOSCFMaxIt      ....   150
   Startup grad/error   SOSCFStart      ....  0.003300
 Level Shifting         CNVShift        .... on
   Level shift para.    LevelShift      ....    0.2500
   Turn off err/grad.   ShiftErr        ....    0.0010
 Zerner damping         CNVZerner       .... off
 Static damping         CNVDamp         .... on
   Fraction old density DampFac         ....    0.7000
   Max. Damping (<1)    DampMax         ....    0.9800
   Min. Damping (>=0)   DampMin         ....    0.0000
   Turn off err/grad.   DampErr         ....    0.1000
 Fernandez-Rico         CNVRico         .... off

SCF Procedure:
 Maximum # iterations   MaxIter         ....   125
 SCF integral mode      SCFMode         .... Direct
   Integral package                     .... LIBINT
 Reset frequency        DirectResetFreq ....    20
 Integral Threshold     Thresh          ....  2.500e-11 Eh
 Primitive CutOff       TCut            ....  2.500e-12 Eh

Convergence Tolerance:
 Convergence Check Mode ConvCheckMode   .... Total+1el-Energy
 Convergence forced     ConvForced      .... 1
 Energy Change          TolE            ....  1.000e-08 Eh
 1-El. energy change                    ....  1.000e-05 Eh
 Orbital Gradient       TolG            ....  1.000e-05
 Orbital Rotation angle TolX            ....  1.000e-05
 DIIS Error             TolErr          ....  5.000e-07


Diagonalization of the overlap matrix:
Smallest eigenvalue                        ... 4.002e-03
Time for diagonalization                   ...    0.016 sec
Threshold for overlap eigenvalues          ... 1.000e-08
Number of eigenvalues below threshold      ... 0
Time for construction of square roots      ...    0.008 sec
Total time needed                          ...    0.025 sec

-------------------
DFT GRID GENERATION
-------------------

General Integration Accuracy     IntAcc      ...  4.340
Radial Grid Type                 RadialGrid  ... Gauss-Chebyshev
Angular Grid (max. acc.)         AngularGrid ... Lebedev-110
Angular grid pruning method      GridPruning ... 3 (G Style)
Weight generation scheme         WeightScheme... Becke
Basis function cutoff            BFCut       ...    1.0000e-11
Integration weight cutoff        WCut        ...    1.0000e-14
Grids for H and He will be reduced by one unit

# of grid points (after initial pruning)     ...  26432 (   0.0 sec)
# of grid points (after weights+screening)   ...  24736 (   0.0 sec)
nearest neighbour list constructed           ...    0.0 sec
Grid point re-assignment to atoms done       ...    0.0 sec
Grid point division into batches done        ...    0.0 sec
Reduced shell lists constructed in    0.1 sec

Total number of grid points                  ...    24736
Total number of batches                      ...      400
Average number of points per batch           ...       61
Average number of grid points per atom       ...     1031
Average number of shells per batch           ...    65.79 (43.29%)
Average number of basis functions per batch  ...   129.97 (37.78%)
Average number of large shells per batch     ...    43.75 (66.50%)
Average number of large basis fcns per batch ...    86.84 (66.81%)
Maximum spatial batch extension              ...  13.95, 20.95, 13.42 au
Average spatial batch extension              ...   0.53,  0.61,  0.50 au

Time for grid setup =    0.089 sec

------------------------------
INITIAL GUESS: MODEL POTENTIAL
------------------------------
Loading Hartree-Fock densities                     ... done
Calculating cut-offs                               ... done
Setting up the integral package                    ... done
Initializing the effective Hamiltonian             ... done
Starting the Coulomb interaction                   ... done (   0.0 sec)
Reading the grid                                   ... done
Mapping shells                                     ... done
Starting the XC term evaluation                    ... done (   0.0 sec)
Transforming the Hamiltonian                       ... done (   0.0 sec)
Diagonalizing the Hamiltonian                      ... done (   0.0 sec)
Back transforming the eigenvectors                 ... done (   0.0 sec)
Now organizing SCF variables                       ... done
                      ------------------
                      INITIAL GUESS DONE (   0.3 sec)
                      ------------------
--------------
SCF ITERATIONS
--------------
ITER       Energy         Delta-E        Max-DP      RMS-DP      [F,P]     Damp
               ***  Starting incremental Fock matrix formation  ***
  0   -607.8076001027   0.000000000000 0.04386634  0.00083192  0.3397364 0.7000
  1   -608.0807246131  -0.273124510331 0.02913623  0.00057563  0.2167514 0.7000
                               ***Turning on DIIS***
  2   -608.2256317460  -0.144907132984 0.01624754  0.00032180  0.1633482 0.7000
  3   -609.5496407451  -1.324008999080 0.00768909  0.00014759  0.1217007 0.7000
  4   -609.2807984041   0.268842341073 0.01707669  0.00034292  0.0861312 0.0000
  5   -608.5577597576   0.723038646456 0.00211923  0.00005573  0.0057250 0.0000
                      *** Initiating the SOSCF procedure ***
                           *** Shutting down DIIS ***
                      *** Re-Reading the Fockian *** 
                      *** Removing any level shift *** 
ITER      Energy       Delta-E        Grad      Rot      Max-DP    RMS-DP
  6   -608.51787579   0.0398839667  0.000851  0.000851  0.001404  0.000035
               *** Restarting incremental Fock matrix formation ***
  7   -608.50587209   0.0120037031  0.000295  0.000402  0.000649  0.000015
  8   -608.50588395  -0.0000118596  0.000111  0.000310  0.000491  0.000012
  9   -608.50588674  -0.0000027883  0.000041  0.000036  0.000082  0.000002
 10   -608.50588695  -0.0000002096  0.000010  0.000008  0.000018  0.000000
                  ***Gradient check signals convergence***
              ***Rediagonalizing the Fockian in SOSCF/NRSCF***

               *****************************************************
               *                     SUCCESS                       *
               *           SCF CONVERGED AFTER  11 CYCLES          *
               *****************************************************


----------------
TOTAL SCF ENERGY
----------------

Total Energy       :         -608.50588695 Eh          -16558.28699 eV

Components:
Nuclear Repulsion  :          440.28837922 Eh           11980.85589 eV
Electronic Energy  :        -1048.79426618 Eh          -28539.14288 eV
One Electron Energy:        -1718.13841145 Eh          -46752.92305 eV
Two Electron Energy:          669.34414528 Eh           18213.78016 eV

Virial components:
Potential Energy   :        -1216.20859414 Eh          -33094.71835 eV
Kinetic Energy     :          607.70270718 Eh           16536.43136 eV
Virial Ratio       :            2.00132167


---------------
SCF CONVERGENCE
---------------

  Last Energy change         ...   -7.3708e-09  Tolerance :   1.0000e-08
  Last MAX-Density change    ...    3.7197e-06  Tolerance :   1.0000e-07
  Last RMS-Density change    ...    1.0309e-07  Tolerance :   5.0000e-09
  Last Orbital Gradient      ...    1.5176e-06  Tolerance :   1.0000e-05
  Last Orbital Rotation      ...    1.9544e-06  Tolerance :   1.0000e-05

             **** THE GBW FILE WAS UPDATED (12h2o.su.etal.mol0,1,3,6,7,8,10,11-orca.engrad-mp2.def2tzvp.frozencore.gbw) ****
             **** DENSITY FILE WAS UPDATED (12h2o.su.etal.mol0,1,3,6,7,8,10,11-orca.engrad-mp2.def2tzvp.frozencore.scfp) ****
             **** ENERGY FILE WAS UPDATED (12h2o.su.etal.mol0,1,3,6,7,8,10,11-orca.engrad-mp2.def2tzvp.frozencore.en.tmp) ****
             **** THE GBW FILE WAS UPDATED (12h2o.su.etal.mol0,1,3,6,7,8,10,11-orca.engrad-mp2.def2tzvp.frozencore.gbw) ****
             **** DENSITY FILE WAS UPDATED (12h2o.su.etal.mol0,1,3,6,7,8,10,11-orca.engrad-mp2.def2tzvp.frozencore.scfp) ****
----------------
ORBITAL ENERGIES
----------------

  NO   OCC          E(Eh)            E(eV) 
   0   2.0000     -20.639823      -561.6381 
   1   2.0000     -20.594114      -560.3943 
   2   2.0000     -20.581181      -560.0424 
   3   2.0000     -20.562652      -559.5382 
   4   2.0000     -20.555468      -559.3427 
   5   2.0000     -20.544067      -559.0325 
   6   2.0000     -20.527098      -558.5707 
   7   2.0000     -20.484321      -557.4067 
   8   2.0000      -1.420324       -38.6490 
   9   2.0000      -1.383191       -37.6385 
  10   2.0000      -1.364206       -37.1219 
  11   2.0000      -1.349989       -36.7351 
  12   2.0000      -1.340765       -36.4841 
  13   2.0000      -1.323854       -36.0239 
  14   2.0000      -1.310563       -35.6622 
  15   2.0000      -1.269340       -34.5405 
  16   2.0000      -0.785905       -21.3856 
  17   2.0000      -0.745127       -20.2759 
  18   2.0000      -0.734529       -19.9875 
  19   2.0000      -0.723769       -19.6947 
  20   2.0000      -0.709983       -19.3196 
  21   2.0000      -0.694515       -18.8987 
  22   2.0000      -0.693404       -18.8685 
  23   2.0000      -0.661106       -17.9896 
  24   2.0000      -0.645610       -17.5680 
  25   2.0000      -0.629199       -17.1214 
  26   2.0000      -0.614061       -16.7094 
  27   2.0000      -0.593375       -16.1465 
  28   2.0000      -0.587223       -15.9792 
  29   2.0000      -0.570380       -15.5208 
  30   2.0000      -0.567222       -15.4349 
  31   2.0000      -0.550952       -14.9922 
  32   2.0000      -0.530011       -14.4223 
  33   2.0000      -0.527546       -14.3553 
  34   2.0000      -0.515283       -14.0216 
  35   2.0000      -0.502171       -13.6648 
  36   2.0000      -0.497756       -13.5446 
  37   2.0000      -0.487943       -13.2776 
  38   2.0000      -0.472338       -12.8530 
  39   2.0000      -0.434796       -11.8314 
  40   0.0000       0.071763         1.9528 
  41   0.0000       0.116885         3.1806 
  42   0.0000       0.136140         3.7046 
  43   0.0000       0.145898         3.9701 
  44   0.0000       0.163290         4.4434 
  45   0.0000       0.175074         4.7640 
  46   0.0000       0.203708         5.5432 
  47   0.0000       0.207795         5.6544 
  48   0.0000       0.238746         6.4966 
  49   0.0000       0.251942         6.8557 
  50   0.0000       0.276626         7.5274 
  51   0.0000       0.289413         7.8753 
  52   0.0000       0.292840         7.9686 
  53   0.0000       0.326766         8.8918 
  54   0.0000       0.346146         9.4191 
  55   0.0000       0.360824         9.8185 
  56   0.0000       0.417551        11.3622 
  57   0.0000       0.451270        12.2797 
  58   0.0000       0.465488        12.6666 
  59   0.0000       0.476064        12.9544 
  60   0.0000       0.493090        13.4177 
  61   0.0000       0.507757        13.8168 
  62   0.0000       0.523299        14.2397 
  63   0.0000       0.531000        14.4493 
  64   0.0000       0.543137        14.7795 
  65   0.0000       0.552272        15.0281 
  66   0.0000       0.556866        15.1531 
  67   0.0000       0.574748        15.6397 
  68   0.0000       0.578118        15.7314 
  69   0.0000       0.587185        15.9781 
  70   0.0000       0.607081        16.5195 
  71   0.0000       0.610693        16.6178 
  72   0.0000       0.616425        16.7738 
  73   0.0000       0.634403        17.2630 
  74   0.0000       0.640261        17.4224 
  75   0.0000       0.656838        17.8735 
  76   0.0000       0.663526        18.0555 
  77   0.0000       0.672738        18.3061 
  78   0.0000       0.679201        18.4820 
  79   0.0000       0.696378        18.9494 
  80   0.0000       0.700383        19.0584 
  81   0.0000       0.708208        19.2713 
  82   0.0000       0.717403        19.5215 
  83   0.0000       0.745743        20.2927 
  84   0.0000       0.754339        20.5266 
  85   0.0000       0.764926        20.8147 
  86   0.0000       0.784681        21.3523 
  87   0.0000       0.789058        21.4714 
  88   0.0000       0.794912        21.6307 
  89   0.0000       0.807529        21.9740 
  90   0.0000       0.824956        22.4482 
  91   0.0000       0.836951        22.7746 
  92   0.0000       0.858850        23.3705 
  93   0.0000       0.889675        24.2093 
  94   0.0000       0.901515        24.5315 
  95   0.0000       0.913736        24.8640 
  96   0.0000       0.944882        25.7115 
  97   0.0000       0.969484        26.3810 
  98   0.0000       0.991537        26.9811 
  99   0.0000       1.002363        27.2757 
 100   0.0000       1.026903        27.9435 
 101   0.0000       1.051121        28.6025 
 102   0.0000       1.069376        29.0992 
 103   0.0000       1.087749        29.5992 
 104   0.0000       1.323487        36.0139 
 105   0.0000       1.359181        36.9852 
 106   0.0000       1.366858        37.1941 
 107   0.0000       1.379678        37.5430 
 108   0.0000       1.392155        37.8825 
 109   0.0000       1.404171        38.2094 
 110   0.0000       1.425165        38.7807 
 111   0.0000       1.439726        39.1769 
 112   0.0000       1.447919        39.3999 
 113   0.0000       1.454424        39.5769 
 114   0.0000       1.467424        39.9306 
 115   0.0000       1.477698        40.2102 
 116   0.0000       1.492455        40.6118 
 117   0.0000       1.495679        40.6995 
 118   0.0000       1.514317        41.2067 
 119   0.0000       1.531297        41.6687 
 120   0.0000       1.558928        42.4206 
 121   0.0000       1.567316        42.6488 
 122   0.0000       1.574707        42.8500 
 123   0.0000       1.602921        43.6177 
 124   0.0000       1.618596        44.0442 
 125   0.0000       1.629382        44.3377 
 126   0.0000       1.645059        44.7643 
 127   0.0000       1.683449        45.8090 
 128   0.0000       1.771218        48.1973 
 129   0.0000       1.797911        48.9237 
 130   0.0000       1.826854        49.7112 
 131   0.0000       1.837773        50.0083 
 132   0.0000       1.872749        50.9601 
 133   0.0000       1.878586        51.1189 
 134   0.0000       1.908558        51.9345 
 135   0.0000       1.920050        52.2472 
 136   0.0000       1.931396        52.5559 
 137   0.0000       1.943687        52.8904 
 138   0.0000       1.952903        53.1412 
 139   0.0000       1.977324        53.8057 
 140   0.0000       1.995454        54.2991 
 141   0.0000       2.004196        54.5370 
 142   0.0000       2.020598        54.9833 
 143   0.0000       2.041125        55.5418 
 144   0.0000       2.048192        55.7341 
 145   0.0000       2.054191        55.8974 
 146   0.0000       2.076594        56.5070 
 147   0.0000       2.103150        57.2296 
 148   0.0000       2.125493        57.8376 
 149   0.0000       2.154252        58.6202 
 150   0.0000       2.168127        58.9977 
 151   0.0000       2.212230        60.1978 
 152   0.0000       2.218389        60.3654 
 153   0.0000       2.245533        61.1041 
 154   0.0000       2.278659        62.0055 
 155   0.0000       2.288403        62.2706 
 156   0.0000       2.315620        63.0112 
 157   0.0000       2.324436        63.2511 
 158   0.0000       2.327181        63.3258 
 159   0.0000       2.340153        63.6788 
 160   0.0000       2.348014        63.8927 
 161   0.0000       2.352712        64.0206 
 162   0.0000       2.356999        64.1372 
 163   0.0000       2.363580        64.3163 
 164   0.0000       2.369954        64.4897 
 165   0.0000       2.383776        64.8658 
 166   0.0000       2.395284        65.1790 
 167   0.0000       2.426323        66.0236 
 168   0.0000       2.441834        66.4457 
 169   0.0000       2.451602        66.7115 
 170   0.0000       2.500978        68.0551 
 171   0.0000       2.509356        68.2830 
 172   0.0000       2.510333        68.3096 
 173   0.0000       2.548515        69.3486 
 174   0.0000       2.556761        69.5730 
 175   0.0000       2.563546        69.7576 
 176   0.0000       2.584968        70.3406 
 177   0.0000       2.591557        70.5198 
 178   0.0000       2.602781        70.8253 
 179   0.0000       2.629329        71.5477 
 180   0.0000       2.641712        71.8846 
 181   0.0000       2.650235        72.1166 
 182   0.0000       2.662979        72.4634 
 183   0.0000       2.672115        72.7119 
 184   0.0000       2.677949        72.8707 
 185   0.0000       2.686044        73.0910 
 186   0.0000       2.704091        73.5821 
 187   0.0000       2.733103        74.3715 
 188   0.0000       2.763670        75.2033 
 189   0.0000       2.773741        75.4773 
 190   0.0000       2.783023        75.7299 
 191   0.0000       2.827945        76.9523 
 192   0.0000       2.852406        77.6179 
 193   0.0000       2.902363        78.9773 
 194   0.0000       2.916651        79.3661 
 195   0.0000       2.938232        79.9533 
 196   0.0000       2.949988        80.2732 
 197   0.0000       2.963280        80.6349 
 198   0.0000       2.987383        81.2908 
 199   0.0000       2.992287        81.4243 
 200   0.0000       2.996570        81.5408 
 201   0.0000       3.020035        82.1793 
 202   0.0000       3.038456        82.6806 
 203   0.0000       3.048596        82.9565 
 204   0.0000       3.057167        83.1897 
 205   0.0000       3.067123        83.4607 
 206   0.0000       3.077473        83.7423 
 207   0.0000       3.088204        84.0343 
 208   0.0000       3.109436        84.6121 
 209   0.0000       3.127837        85.1128 
 210   0.0000       3.129482        85.1575 
 211   0.0000       3.166777        86.1724 
 212   0.0000       3.181947        86.5852 
 213   0.0000       3.218407        87.5773 
 214   0.0000       3.236878        88.0799 
 215   0.0000       3.253727        88.5384 
 216   0.0000       3.275856        89.1406 
 217   0.0000       3.290754        89.5460 
 218   0.0000       3.315436        90.2176 
 219   0.0000       3.338597        90.8478 
 220   0.0000       3.359157        91.4073 
 221   0.0000       3.394001        92.3555 
 222   0.0000       3.504082        95.3509 
 223   0.0000       3.530548        96.0711 
 224   0.0000       3.947778       107.4245 
 225   0.0000       4.004170       108.9590 
 226   0.0000       4.049411       110.1901 
 227   0.0000       4.060998       110.5054 
 228   0.0000       4.072737       110.8248 
 229   0.0000       4.108044       111.7855 
 230   0.0000       4.127984       112.3282 
 231   0.0000       4.145581       112.8070 
 232   0.0000       4.242833       115.4534 
 233   0.0000       4.286259       116.6350 
 234   0.0000       4.296101       116.9029 
 235   0.0000       4.318825       117.5212 
 236   0.0000       4.337427       118.0274 
 237   0.0000       4.374584       119.0385 
 238   0.0000       4.390862       119.4814 
 239   0.0000       4.412744       120.0769 
 240   0.0000       5.474007       148.9553 
 241   0.0000       5.510462       149.9473 
 242   0.0000       5.529578       150.4675 
 243   0.0000       5.542030       150.8063 
 244   0.0000       5.552468       151.0903 
 245   0.0000       5.566505       151.4723 
 246   0.0000       5.568024       151.5136 
 247   0.0000       5.576155       151.7349 
 248   0.0000       5.618153       152.8777 
 249   0.0000       5.637381       153.4009 
 250   0.0000       5.638988       153.4447 
 251   0.0000       5.659989       154.0161 
 252   0.0000       5.672377       154.3532 
 253   0.0000       5.677732       154.4989 
 254   0.0000       5.691701       154.8791 
 255   0.0000       5.725345       155.7946 
 256   0.0000       5.737180       156.1166 
 257   0.0000       5.775688       157.1645 
 258   0.0000       5.800474       157.8389 
 259   0.0000       5.801330       157.8622 
 260   0.0000       5.812298       158.1607 
 261   0.0000       5.823634       158.4691 
 262   0.0000       5.832230       158.7030 
 263   0.0000       5.834718       158.7707 
 264   0.0000       5.840434       158.9263 
 265   0.0000       5.846465       159.0904 
 266   0.0000       5.854189       159.3006 
 267   0.0000       5.857236       159.3835 
 268   0.0000       5.862787       159.5345 
 269   0.0000       5.872416       159.7966 
 270   0.0000       5.874635       159.8569 
 271   0.0000       5.884383       160.1222 
 272   0.0000       5.888107       160.2235 
 273   0.0000       5.898916       160.5177 
 274   0.0000       5.908847       160.7879 
 275   0.0000       5.918619       161.0538 
 276   0.0000       5.933274       161.4526 
 277   0.0000       5.949205       161.8861 
 278   0.0000       5.963065       162.2632 
 279   0.0000       5.975116       162.5912 
 280   0.0000       6.355873       172.9521 
 281   0.0000       6.445588       175.3934 
 282   0.0000       6.452489       175.5811 
 283   0.0000       6.473865       176.1628 
 284   0.0000       6.486786       176.5144 
 285   0.0000       6.488721       176.5671 
 286   0.0000       6.504672       177.0011 
 287   0.0000       6.563384       178.5988 
 288   0.0000       6.627299       180.3380 
 289   0.0000       6.658115       181.1765 
 290   0.0000       6.682425       181.8380 
 291   0.0000       6.702142       182.3746 
 292   0.0000       6.709609       182.5777 
 293   0.0000       6.738766       183.3711 
 294   0.0000       6.745170       183.5454 
 295   0.0000       6.768704       184.1858 
 296   0.0000       6.811552       185.3518 
 297   0.0000       6.833364       185.9453 
 298   0.0000       6.838260       186.0785 
 299   0.0000       6.843579       186.2233 
 300   0.0000       6.858060       186.6173 
 301   0.0000       6.872322       187.0054 
 302   0.0000       6.873159       187.0282 
 303   0.0000       6.893162       187.5725 
 304   0.0000       6.898284       187.7118 
 305   0.0000       6.909356       188.0131 
 306   0.0000       6.913474       188.1252 
 307   0.0000       6.927949       188.5191 
 308   0.0000       6.933259       188.6636 
 309   0.0000       6.940414       188.8583 
 310   0.0000       6.943624       188.9456 
 311   0.0000       6.949843       189.1148 
 312   0.0000       6.970221       189.6693 
 313   0.0000       6.980145       189.9394 
 314   0.0000       6.986389       190.1093 
 315   0.0000       7.015336       190.8970 
 316   0.0000       7.024671       191.1510 
 317   0.0000       7.038689       191.5325 
 318   0.0000       7.074989       192.5202 
 319   0.0000       7.097194       193.1245 
 320   0.0000       7.307902       198.8581 
 321   0.0000       7.352559       200.0733 
 322   0.0000       7.372347       200.6118 
 323   0.0000       7.418238       201.8605 
 324   0.0000       7.418984       201.8808 
 325   0.0000       7.440113       202.4558 
 326   0.0000       7.465886       203.1571 
 327   0.0000       7.481155       203.5726 
 328   0.0000       7.513304       204.4474 
 329   0.0000       7.514671       204.4846 
 330   0.0000       7.538304       205.1277 
 331   0.0000       7.557522       205.6506 
 332   0.0000       7.572248       206.0513 
 333   0.0000       7.594298       206.6514 
 334   0.0000       7.612843       207.1560 
 335   0.0000       7.653041       208.2498 
 336   0.0000      44.866649      1220.8836 
 337   0.0000      44.913459      1222.1574 
 338   0.0000      44.974215      1223.8106 
 339   0.0000      44.981457      1224.0077 
 340   0.0000      44.991914      1224.2922 
 341   0.0000      44.995367      1224.3862 
 342   0.0000      45.035651      1225.4824 
 343   0.0000      45.042512      1225.6691 

                    ********************************
                    * MULLIKEN POPULATION ANALYSIS *
                    ********************************

-----------------------
MULLIKEN ATOMIC CHARGES
-----------------------
   0 O :   -0.774420
   1 H :    0.350182
   2 H :    0.396039
   3 O :   -0.754027
   4 H :    0.382285
   5 H :    0.389688
   6 O :   -0.737132
   7 H :    0.401276
   8 H :    0.364692
   9 O :   -0.742491
  10 H :    0.394568
  11 H :    0.338928
  12 O :   -0.746031
  13 H :    0.391527
  14 H :    0.355460
  15 O :   -0.769535
  16 H :    0.381427
  17 H :    0.367249
  18 O :   -0.772560
  19 H :    0.342013
  20 H :    0.410054
  21 O :   -0.731800
  22 H :    0.367573
  23 H :    0.395036
Sum of atomic charges:    0.0000000

--------------------------------
MULLIKEN REDUCED ORBITAL CHARGES
--------------------------------
  0 O s       :     3.809105  s :     3.809105
      pz      :     1.713334  p :     4.941014
      px      :     1.418049
      py      :     1.809632
      dz2     :     0.003648  d :     0.022874
      dxz     :     0.004243
      dyz     :     0.005394
      dx2y2   :     0.002280
      dxy     :     0.007311
      f0      :     0.000079  f :     0.001426
      f+1     :     0.000311
      f-1     :     0.000177
      f+2     :     0.000069
      f-2     :     0.000348
      f+3     :     0.000089
      f-3     :     0.000353
  1 H s       :     0.604153  s :     0.604153
      pz      :     0.016866  p :     0.045665
      px      :     0.013907
      py      :     0.014892
  2 H s       :     0.547330  s :     0.547330
      pz      :     0.010299  p :     0.056631
      px      :     0.032248
      py      :     0.014084
  3 O s       :     3.808036  s :     3.808036
      pz      :     1.736715  p :     4.920806
      px      :     1.389389
      py      :     1.794702
      dz2     :     0.003997  d :     0.023719
      dxz     :     0.004486
      dyz     :     0.005356
      dx2y2   :     0.002539
      dxy     :     0.007342
      f0      :     0.000085  f :     0.001465
      f+1     :     0.000334
      f-1     :     0.000177
      f+2     :     0.000061
      f-2     :     0.000347
      f+3     :     0.000092
      f-3     :     0.000369
  4 H s       :     0.572973  s :     0.572973
      pz      :     0.017010  p :     0.044742
      px      :     0.013263
      py      :     0.014469
  5 H s       :     0.569882  s :     0.569882
      pz      :     0.010339  p :     0.040430
      px      :     0.018116
      py      :     0.011975
  6 O s       :     3.796993  s :     3.796993
      pz      :     1.573379  p :     4.913826
      px      :     1.552075
      py      :     1.788372
      dz2     :     0.011844  d :     0.024914
      dxz     :     0.001194
      dyz     :     0.002382
      dx2y2   :     0.002393
      dxy     :     0.007101
      f0      :     0.000227  f :     0.001400
      f+1     :     0.000383
      f-1     :     0.000156
      f+2     :     0.000051
      f-2     :     0.000055
      f+3     :     0.000052
      f-3     :     0.000476
  7 H s       :     0.550977  s :     0.550977
      pz      :     0.024952  p :     0.047747
      px      :     0.011015
      py      :     0.011780
  8 H s       :     0.591713  s :     0.591713
      pz      :     0.010460  p :     0.043594
      px      :     0.018450
      py      :     0.014684
  9 O s       :     3.809890  s :     3.809890
      pz      :     1.595202  p :     4.907204
      px      :     1.438666
      py      :     1.873336
      dz2     :     0.010300  d :     0.023936
      dxz     :     0.002545
      dyz     :     0.002432
      dx2y2   :     0.003172
      dxy     :     0.005487
      f0      :     0.000176  f :     0.001460
      f+1     :     0.000430
      f-1     :     0.000122
      f+2     :     0.000078
      f-2     :     0.000036
      f+3     :     0.000128
      f-3     :     0.000489
 10 H s       :     0.556175  s :     0.556175
      pz      :     0.025093  p :     0.049257
      px      :     0.011130
      py      :     0.013034
 11 H s       :     0.617762  s :     0.617762
      pz      :     0.009928  p :     0.043310
      px      :     0.018027
      py      :     0.015355
 12 O s       :     3.809582  s :     3.809582
      pz      :     1.586808  p :     4.911200
      px      :     1.448694
      py      :     1.875698
      dz2     :     0.010108  d :     0.023775
      dxz     :     0.002523
      dyz     :     0.002458
      dx2y2   :     0.003116
      dxy     :     0.005571
      f0      :     0.000186  f :     0.001473
      f+1     :     0.000431
      f-1     :     0.000123
      f+2     :     0.000078
      f-2     :     0.000036
      f+3     :     0.000128
      f-3     :     0.000490
 13 H s       :     0.559240  s :     0.559240
      pz      :     0.024434  p :     0.049234
      px      :     0.011366
      py      :     0.013433
 14 H s       :     0.601432  s :     0.601432
      pz      :     0.009632  p :     0.043108
      px      :     0.018365
      py      :     0.015111
 15 O s       :     3.804819  s :     3.804819
      pz      :     1.550386  p :     4.938997
      px      :     1.566452
      py      :     1.822160
      dz2     :     0.011257  d :     0.024286
      dxz     :     0.001204
      dyz     :     0.002814
      dx2y2   :     0.001980
      dxy     :     0.007032
      f0      :     0.000251  f :     0.001432
      f+1     :     0.000371
      f-1     :     0.000159
      f+2     :     0.000056
      f-2     :     0.000054
      f+3     :     0.000063
      f-3     :     0.000478
 16 H s       :     0.570138  s :     0.570138
      pz      :     0.024125  p :     0.048435
      px      :     0.011467
      py      :     0.012844
 17 H s       :     0.582161  s :     0.582161
      pz      :     0.010172  p :     0.050590
      px      :     0.023795
      py      :     0.016623
 18 O s       :     3.807522  s :     3.807522
      pz      :     1.726821  p :     4.940663
      px      :     1.784744
      py      :     1.429098
      dz2     :     0.003976  d :     0.022948
      dxz     :     0.005261
      dyz     :     0.004794
      dx2y2   :     0.002274
      dxy     :     0.006643
      f0      :     0.000089  f :     0.001427
      f+1     :     0.000177
      f-1     :     0.000331
      f+2     :     0.000062
      f-2     :     0.000355
      f+3     :     0.000331
      f-3     :     0.000082
 19 H s       :     0.612160  s :     0.612160
      pz      :     0.017044  p :     0.045827
      px      :     0.015018
      py      :     0.013766
 20 H s       :     0.533905  s :     0.533905
      pz      :     0.010470  p :     0.056041
      px      :     0.013149
      py      :     0.032422
 21 O s       :     3.796233  s :     3.796233
      pz      :     1.527278  p :     4.909119
      px      :     1.789386
      py      :     1.592456
      dz2     :     0.012346  d :     0.025049
      dxz     :     0.002361
      dyz     :     0.001244
      dx2y2   :     0.002402
      dxy     :     0.006696
      f0      :     0.000250  f :     0.001399
      f+1     :     0.000157
      f-1     :     0.000388
      f+2     :     0.000051
      f-2     :     0.000056
      f+3     :     0.000448
      f-3     :     0.000049
 22 H s       :     0.588648  s :     0.588648
      pz      :     0.019311  p :     0.043779
      px      :     0.012729
      py      :     0.011739
 23 H s       :     0.555740  s :     0.555740
      pz      :     0.009649  p :     0.049224
      px      :     0.015585
      py      :     0.023990


                     *******************************
                     * LOEWDIN POPULATION ANALYSIS *
                     *******************************

----------------------
LOEWDIN ATOMIC CHARGES
----------------------
   0 O :   -0.349966
   1 H :    0.155087
   2 H :    0.151875
   3 O :   -0.298468
   4 H :    0.171774
   5 H :    0.196326
   6 O :   -0.288642
   7 H :    0.163407
   8 H :    0.173003
   9 O :   -0.332888
  10 H :    0.158418
  11 H :    0.163550
  12 O :   -0.330914
  13 H :    0.157781
  14 H :    0.172961
  15 O :   -0.366338
  16 H :    0.153133
  17 H :    0.147088
  18 O :   -0.349147
  19 H :    0.151278
  20 H :    0.155971
  21 O :   -0.287539
  22 H :    0.172093
  23 H :    0.160157

-------------------------------
LOEWDIN REDUCED ORBITAL CHARGES
-------------------------------
  0 O s       :     3.461131  s :     3.461131
      pz      :     1.678607  p :     4.857659
      px      :     1.396592
      py      :     1.782460
      dz2     :     0.004661  d :     0.029195
      dxz     :     0.006713
      dyz     :     0.005571
      dx2y2   :     0.003304
      dxy     :     0.008947
      f0      :     0.000084  f :     0.001980
      f+1     :     0.000428
      f-1     :     0.000259
      f+2     :     0.000034
      f-2     :     0.000614
      f+3     :     0.000085
      f-3     :     0.000477
  1 H s       :     0.680011  s :     0.680011
      pz      :     0.065882  p :     0.164902
      px      :     0.045854
      py      :     0.053167
  2 H s       :     0.651733  s :     0.651733
      pz      :     0.033570  p :     0.196392
      px      :     0.114974
      py      :     0.047848
  3 O s       :     3.461110  s :     3.461110
      pz      :     1.689278  p :     4.804467
      px      :     1.367973
      py      :     1.747217
      dz2     :     0.005368  d :     0.030853
      dxz     :     0.006552
      dyz     :     0.005179
      dx2y2   :     0.004201
      dxy     :     0.009553
      f0      :     0.000090  f :     0.002038
      f+1     :     0.000443
      f-1     :     0.000266
      f+2     :     0.000033
      f-2     :     0.000591
      f+3     :     0.000089
      f-3     :     0.000526
  4 H s       :     0.664006  s :     0.664006
      pz      :     0.066846  p :     0.164220
      px      :     0.044795
      py      :     0.052579
  5 H s       :     0.654243  s :     0.654243
      pz      :     0.033257  p :     0.149431
      px      :     0.072704
      py      :     0.043470
  6 O s       :     3.452539  s :     3.452539
      pz      :     1.544509  p :     4.802417
      px      :     1.531919
      py      :     1.725989
      dz2     :     0.015233  d :     0.031586
      dxz     :     0.001772
      dyz     :     0.001819
      dx2y2   :     0.003605
      dxy     :     0.009157
      f0      :     0.000405  f :     0.002102
      f+1     :     0.000559
      f-1     :     0.000334
      f+2     :     0.000020
      f-2     :     0.000046
      f+3     :     0.000027
      f-3     :     0.000711
  7 H s       :     0.664817  s :     0.664817
      pz      :     0.094540  p :     0.171776
      px      :     0.035901
      py      :     0.041335
  8 H s       :     0.668450  s :     0.668450
      pz      :     0.031085  p :     0.158547
      px      :     0.072647
      py      :     0.054815
  9 O s       :     3.464289  s :     3.464289
      pz      :     1.559042  p :     4.835237
      px      :     1.442713
      py      :     1.833482
      dz2     :     0.014350  d :     0.031307
      dxz     :     0.003706
      dyz     :     0.001582
      dx2y2   :     0.004519
      dxy     :     0.007150
      f0      :     0.000345  f :     0.002055
      f+1     :     0.000705
      f-1     :     0.000193
      f+2     :     0.000043
      f-2     :     0.000041
      f+3     :     0.000076
      f-3     :     0.000651
 10 H s       :     0.668828  s :     0.668828
      pz      :     0.094946  p :     0.172754
      px      :     0.035426
      py      :     0.042382
 11 H s       :     0.682575  s :     0.682575
      pz      :     0.030859  p :     0.153875
      px      :     0.073591
      py      :     0.049425
 12 O s       :     3.464000  s :     3.464000
      pz      :     1.552853  p :     4.833953
      px      :     1.448027
      py      :     1.833073
      dz2     :     0.014150  d :     0.030910
      dxz     :     0.003779
      dyz     :     0.001616
      dx2y2   :     0.004310
      dxy     :     0.007054
      f0      :     0.000361  f :     0.002052
      f+1     :     0.000702
      f-1     :     0.000193
      f+2     :     0.000043
      f-2     :     0.000040
      f+3     :     0.000073
      f-3     :     0.000641
 13 H s       :     0.670988  s :     0.670988
      pz      :     0.092876  p :     0.171231
      px      :     0.035567
      py      :     0.042788
 14 H s       :     0.672936  s :     0.672936
      pz      :     0.030396  p :     0.154103
      px      :     0.074517
      py      :     0.049190
 15 O s       :     3.460017  s :     3.460017
      pz      :     1.534678  p :     4.874808
      px      :     1.546761
      py      :     1.793369
      dz2     :     0.014607  d :     0.029502
      dxz     :     0.001931
      dyz     :     0.002183
      dx2y2   :     0.002044
      dxy     :     0.008738
      f0      :     0.000443  f :     0.002010
      f+1     :     0.000542
      f-1     :     0.000303
      f+2     :     0.000023
      f-2     :     0.000047
      f+3     :     0.000002
      f-3     :     0.000649
 16 H s       :     0.675768  s :     0.675768
      pz      :     0.092132  p :     0.171099
      px      :     0.036827
      py      :     0.042140
 17 H s       :     0.678101  s :     0.678101
      pz      :     0.031118  p :     0.174812
      px      :     0.085620
      py      :     0.058074
 18 O s       :     3.461502  s :     3.461502
      pz      :     1.708318  p :     4.856497
      px      :     1.747568
      py      :     1.400611
      dz2     :     0.004328  d :     0.029167
      dxz     :     0.005459
      dyz     :     0.007109
      dx2y2   :     0.003633
      dxy     :     0.008638
      f0      :     0.000074  f :     0.001981
      f+1     :     0.000266
      f-1     :     0.000438
      f+2     :     0.000032
      f-2     :     0.000626
      f+3     :     0.000462
      f-3     :     0.000083
 19 H s       :     0.683822  s :     0.683822
      pz      :     0.065744  p :     0.164900
      px      :     0.053289
      py      :     0.045866
 20 H s       :     0.648107  s :     0.648107
      pz      :     0.033282  p :     0.195923
      px      :     0.047447
      py      :     0.115194
 21 O s       :     3.452219  s :     3.452219
      pz      :     1.517602  p :     4.801404
      px      :     1.731352
      py      :     1.552449
      dz2     :     0.016258  d :     0.031809
      dxz     :     0.001881
      dyz     :     0.001992
      dx2y2   :     0.003459
      dxy     :     0.008220
      f0      :     0.000463  f :     0.002107
      f+1     :     0.000332
      f-1     :     0.000572
      f+2     :     0.000021
      f-2     :     0.000051
      f+3     :     0.000642
      f-3     :     0.000026
 22 H s       :     0.668401  s :     0.668401
      pz      :     0.081019  p :     0.159506
      px      :     0.041892
      py      :     0.036594
 23 H s       :     0.666155  s :     0.666155
      pz      :     0.029717  p :     0.173688
      px      :     0.057885
      py      :     0.086085


                      *****************************
                      * MAYER POPULATION ANALYSIS *
                      *****************************

  NA   - Mulliken gross atomic population
  ZA   - Total nuclear charge
  QA   - Mulliken gross atomic charge
  VA   - Mayer's total valence
  BVA  - Mayer's bonded valence
  FA   - Mayer's free valence

  ATOM       NA         ZA         QA         VA         BVA        FA
  0 O      8.7744     8.0000    -0.7744     1.6879     1.6879     0.0000
  1 H      0.6498     1.0000     0.3502     0.8940     0.8940     0.0000
  2 H      0.6040     1.0000     0.3960     0.8809     0.8809     0.0000
  3 O      8.7540     8.0000    -0.7540     1.7482     1.7482    -0.0000
  4 H      0.6177     1.0000     0.3823     0.8696     0.8696    -0.0000
  5 H      0.6103     1.0000     0.3897     0.8636     0.8636    -0.0000
  6 O      8.7371     8.0000    -0.7371     1.7478     1.7478    -0.0000
  7 H      0.5987     1.0000     0.4013     0.8641     0.8641    -0.0000
  8 H      0.6353     1.0000     0.3647     0.8860     0.8860    -0.0000
  9 O      8.7425     8.0000    -0.7425     1.7388     1.7388     0.0000
 10 H      0.6054     1.0000     0.3946     0.8763     0.8763     0.0000
 11 H      0.6611     1.0000     0.3389     0.9060     0.9060     0.0000
 12 O      8.7460     8.0000    -0.7460     1.7422     1.7422    -0.0000
 13 H      0.6085     1.0000     0.3915     0.8733     0.8733     0.0000
 14 H      0.6445     1.0000     0.3555     0.8924     0.8924    -0.0000
 15 O      8.7695     8.0000    -0.7695     1.7115     1.7115    -0.0000
 16 H      0.6186     1.0000     0.3814     0.8791     0.8791    -0.0000
 17 H      0.6328     1.0000     0.3672     0.9012     0.9012    -0.0000
 18 O      8.7726     8.0000    -0.7726     1.6914     1.6914     0.0000
 19 H      0.6580     1.0000     0.3420     0.8996     0.8996     0.0000
 20 H      0.5899     1.0000     0.4101     0.8646     0.8646    -0.0000
 21 O      8.7318     8.0000    -0.7318     1.7536     1.7536     0.0000
 22 H      0.6324     1.0000     0.3676     0.8809     0.8809     0.0000
 23 H      0.6050     1.0000     0.3950     0.8713     0.8713     0.0000

  Mayer bond orders larger than 0.100000
B(  0-O ,  1-H ) :   0.8856 B(  0-O ,  2-H ) :   0.7979 B(  3-O ,  4-H ) :   0.8611 
B(  3-O ,  5-H ) :   0.8498 B(  6-O ,  7-H ) :   0.8338 B(  6-O ,  8-H ) :   0.8722 
B(  9-O , 10-H ) :   0.8340 B(  9-O , 11-H ) :   0.8872 B( 12-O , 13-H ) :   0.8446 
B( 12-O , 14-H ) :   0.8766 B( 15-O , 16-H ) :   0.8573 B( 15-O , 17-H ) :   0.8551 
B( 18-O , 19-H ) :   0.8910 B( 18-O , 20-H ) :   0.7924 B( 21-O , 22-H ) :   0.8724 
B( 21-O , 23-H ) :   0.8372 

-------
TIMINGS
-------

Total SCF time: 0 days 0 hours 0 min 23 sec 

Total time                  ....      23.099 sec
Sum of individual times     ....      22.793 sec  ( 98.7%)

Fock matrix formation       ....      22.228 sec  ( 96.2%)
Diagonalization             ....       0.136 sec  (  0.6%)
Density matrix formation    ....       0.013 sec  (  0.1%)
Population analysis         ....       0.027 sec  (  0.1%)
Initial guess               ....       0.186 sec  (  0.8%)
Orbital Transformation      ....       0.000 sec  (  0.0%)
Orbital Orthonormalization  ....       0.000 sec  (  0.0%)
DIIS solution               ....       0.052 sec  (  0.2%)
SOSCF solution              ....       0.061 sec  (  0.3%)


           ************************************************************
           *        Program running with 6 parallel MPI-processes     *
           *              working on a common directory               *
           ************************************************************

------------------------------------------------------------------------------
                                ORCA  MP2 
------------------------------------------------------------------------------

Freezing NCore=16 chemical core electrons
MP2 will be done in the AO integral direct mode
The Q1-step will be done using symmetric double matrices
Dimension of the basis                    ...  344
Memory devoted for MP2                    ... 8000 MB   
Memory needed for all in one shot         ...  935 MB
Number of MOs that can be treated together...   50      
MP2 density construction                  ... relaxed
The MP2 gradient is requested => amplitudes will be stored on disk
Total number of MOs              ...   32
Number of MOs treated per batch  ...    6 
Number of batches necessary      ...    1 
OPERATORS   0/  0 PASS   0
-----------------------------------------------
 MP2 CORRELATION ENERGY   :     -2.068873442 Eh
-----------------------------------------------


---------------------
MP2 DENSITY FORMATION
---------------------

Completing the external part of the density      ... done
Storing the unrelaxed density                    ... done

Calculating G(D)                                 ... done
Completing the Lagrangian                        ... done
Solving the Z-vector equations                   ... 

------------------------------------------------------------------------------
                           ORCA CP-SCF CALCULATION
------------------------------------------------------------------------------

Input orbitals are from        ... 12h2o.su.etal.mol0,1,3,6,7,8,10,11-orca.engrad-mp2.def2tzvp.frozencore.gbw
Input Perturbation             ... 12h2o.su.etal.mol0,1,3,6,7,8,10,11-orca.engrad-mp2.def2tzvp.frozencore.pin.tmp
Wavefunction output            ... 12h2o.su.etal.mol0,1,3,6,7,8,10,11-orca.engrad-mp2.def2tzvp.frozencore.pout.tmp
Perturbation mode              ... Real perturbation (singlet)
Solver                         ... POPLE
Max. number of iterations      ... 128
Convergence tolerance          ... 1.000e-08
Integral handling              ... Direct
Number of perturbations        ... 1
Number of operators            ... 1
Orbital ranges used for CP-SCF:
 Operator 0:  Orbitals   0... 39  to  40...343
Variables per vector in CP-SCF ... 12160
Number of vectors sought       ... 1
     CP-SCF ITERATION   0: 
     CP-SCF ITERATION   1:      0.000999479519
     CP-SCF ITERATION   2:      0.000024953917
     CP-SCF ITERATION   3:      0.000000676360
     CP-SCF ITERATION   4:      0.000000075400
     CP-SCF ITERATION   5:      0.000000008338
                                                 ... done
Finalizing the relaxed density                   ... done
Transforming P to the AO basis                   ... done
Storing the relaxed density                      ... done

------------------------------------
ENERGY WEIGHTED DENSITY FINALIZATION
------------------------------------

Gathering the parts of the W-matrix              ...                                                      done
Forming the Z-density                            ... done
Transforming Z to the AO basis                   ... done
Calculating G(Z)                                 ... done
Finalizing the W-matrix                          ...                                                      done
Transforming W to the AO basis and storing       ... done

                *********************************************
                * UNRELAXED MP2 DENSITY POPULATION ANALYSIS *
                *********************************************

------------------------------------------------------------------------------
                           ORCA POPULATION ANALYSIS
------------------------------------------------------------------------------
Input electron density              ... 12h2o.su.etal.mol0,1,3,6,7,8,10,11-orca.engrad-mp2.def2tzvp.frozencore.pmp2ur
BaseName (.gbw .S,...)              ... 12h2o.su.etal.mol0,1,3,6,7,8,10,11-orca.engrad-mp2.def2tzvp.frozencore

                    ********************************
                    * MULLIKEN POPULATION ANALYSIS *
                    ********************************

-----------------------
MULLIKEN ATOMIC CHARGES
-----------------------
   0 O :   -0.768375
   1 H :    0.347890
   2 H :    0.391249
   3 O :   -0.748202
   4 H :    0.380082
   5 H :    0.386777
   6 O :   -0.730489
   7 H :    0.398322
   8 H :    0.362046
   9 O :   -0.736793
  10 H :    0.391525
  11 H :    0.335938
  12 O :   -0.740305
  13 H :    0.388724
  14 H :    0.352568
  15 O :   -0.763708
  16 H :    0.378485
  17 H :    0.363695
  18 O :   -0.766447
  19 H :    0.339697
  20 H :    0.405481
  21 O :   -0.725103
  22 H :    0.365071
  23 H :    0.391870
Sum of atomic charges:    0.0000000

--------------------------------
MULLIKEN REDUCED ORBITAL CHARGES
--------------------------------
  0 O s       :     3.804198  s :     3.804198
      pz      :     1.702378  p :     4.909812
      px      :     1.409284
      py      :     1.798149
      dz2     :     0.009290  d :     0.050357
      dxz     :     0.009736
      dyz     :     0.010830
      dx2y2   :     0.007814
      dxy     :     0.012687
      f0      :     0.000451  f :     0.004008
      f+1     :     0.000678
      f-1     :     0.000542
      f+2     :     0.000439
      f-2     :     0.000715
      f+3     :     0.000463
      f-3     :     0.000720
  1 H s       :     0.604800  s :     0.604800
      pz      :     0.017351  p :     0.047310
      px      :     0.014352
      py      :     0.015607
  2 H s       :     0.550460  s :     0.550460
      pz      :     0.011120  p :     0.058291
      px      :     0.032354
      py      :     0.014817
  3 O s       :     3.803211  s :     3.803211
      pz      :     1.725651  p :     4.889934
      px      :     1.381445
      py      :     1.782838
      dz2     :     0.009560  d :     0.051021
      dxz     :     0.009893
      dyz     :     0.010862
      dx2y2   :     0.008022
      dxy     :     0.012684
      f0      :     0.000457  f :     0.004035
      f+1     :     0.000697
      f-1     :     0.000545
      f+2     :     0.000431
      f-2     :     0.000712
      f+3     :     0.000464
      f-3     :     0.000729
  4 H s       :     0.573698  s :     0.573698
      pz      :     0.017455  p :     0.046220
      px      :     0.013631
      py      :     0.015134
  5 H s       :     0.571332  s :     0.571332
      pz      :     0.011147  p :     0.041890
      px      :     0.018037
      py      :     0.012706
  6 O s       :     3.791847  s :     3.791847
      pz      :     1.563705  p :     4.882382
      px      :     1.542662
      py      :     1.776015
      dz2     :     0.017072  d :     0.052262
      dxz     :     0.006642
      dyz     :     0.007998
      dx2y2   :     0.008040
      dxy     :     0.012511
      f0      :     0.000612  f :     0.003997
      f+1     :     0.000752
      f-1     :     0.000534
      f+2     :     0.000414
      f-2     :     0.000423
      f+3     :     0.000426
      f-3     :     0.000835
  7 H s       :     0.552474  s :     0.552474
      pz      :     0.024993  p :     0.049203
      px      :     0.011643
      py      :     0.012567
  8 H s       :     0.592806  s :     0.592806
      pz      :     0.011241  p :     0.045148
      px      :     0.018598
      py      :     0.015310
  9 O s       :     3.804999  s :     3.804999
      pz      :     1.585161  p :     4.876683
      px      :     1.430066
      py      :     1.861456
      dz2     :     0.015667  d :     0.051083
      dxz     :     0.007954
      dyz     :     0.008044
      dx2y2   :     0.008574
      dxy     :     0.010843
      f0      :     0.000563  f :     0.004028
      f+1     :     0.000799
      f-1     :     0.000497
      f+2     :     0.000441
      f-2     :     0.000402
      f+3     :     0.000489
      f-3     :     0.000837
 10 H s       :     0.557751  s :     0.557751
      pz      :     0.025182  p :     0.050724
      px      :     0.011689
      py      :     0.013853
 11 H s       :     0.619068  s :     0.619068
      pz      :     0.010781  p :     0.044994
      px      :     0.018062
      py      :     0.016151
 12 O s       :     3.804770  s :     3.804770
      pz      :     1.576834  p :     4.880541
      px      :     1.439936
      py      :     1.863771
      dz2     :     0.015485  d :     0.050952
      dxz     :     0.007925
      dyz     :     0.008081
      dx2y2   :     0.008531
      dxy     :     0.010930
      f0      :     0.000572  f :     0.004041
      f+1     :     0.000800
      f-1     :     0.000498
      f+2     :     0.000441
      f-2     :     0.000402
      f+3     :     0.000490
      f-3     :     0.000839
 13 H s       :     0.560533  s :     0.560533
      pz      :     0.024547  p :     0.050743
      px      :     0.011929
      py      :     0.014267
 14 H s       :     0.602719  s :     0.602719
      pz      :     0.010454  p :     0.044714
      px      :     0.018369
      py      :     0.015890
 15 O s       :     3.799997  s :     3.799997
      pz      :     1.540932  p :     4.908365
      px      :     1.556890
      py      :     1.810543
      dz2     :     0.016450  d :     0.051337
      dxz     :     0.006670
      dyz     :     0.008321
      dx2y2   :     0.007555
      dxy     :     0.012341
      f0      :     0.000632  f :     0.004009
      f+1     :     0.000740
      f-1     :     0.000533
      f+2     :     0.000416
      f-2     :     0.000421
      f+3     :     0.000432
      f-3     :     0.000835
 16 H s       :     0.571505  s :     0.571505
      pz      :     0.024184  p :     0.050011
      px      :     0.012145
      py      :     0.013682
 17 H s       :     0.584098  s :     0.584098
      pz      :     0.010976  p :     0.052207
      px      :     0.023983
      py      :     0.017248
 18 O s       :     3.802556  s :     3.802556
      pz      :     1.716214  p :     4.909445
      px      :     1.772801
      py      :     1.420430
      dz2     :     0.009494  d :     0.050437
      dxz     :     0.010711
      dyz     :     0.010201
      dx2y2   :     0.007913
      dxy     :     0.012118
      f0      :     0.000458  f :     0.004009
      f+1     :     0.000542
      f-1     :     0.000696
      f+2     :     0.000433
      f-2     :     0.000721
      f+3     :     0.000700
      f-3     :     0.000459
 19 H s       :     0.612795  s :     0.612795
      pz      :     0.017538  p :     0.047508
      px      :     0.015746
      py      :     0.014223
 20 H s       :     0.536844  s :     0.536844
      pz      :     0.011288  p :     0.057675
      px      :     0.013858
      py      :     0.032529
 21 O s       :     3.791034  s :     3.791034
      pz      :     1.518062  p :     4.877673
      px      :     1.776777
      py      :     1.582834
      dz2     :     0.017468  d :     0.052399
      dxz     :     0.007960
      dyz     :     0.006696
      dx2y2   :     0.008112
      dxy     :     0.012163
      f0      :     0.000631  f :     0.003996
      f+1     :     0.000533
      f-1     :     0.000755
      f+2     :     0.000415
      f-2     :     0.000424
      f+3     :     0.000813
      f-3     :     0.000427
 22 H s       :     0.589586  s :     0.589586
      pz      :     0.019376  p :     0.045343
      px      :     0.013544
      py      :     0.012423
 23 H s       :     0.557394  s :     0.557394
      pz      :     0.010403  p :     0.050737
      px      :     0.016141
      py      :     0.024193


                     *******************************
                     * LOEWDIN POPULATION ANALYSIS *
                     *******************************

----------------------
LOEWDIN ATOMIC CHARGES
----------------------
   0 O :   -0.346728
   1 H :    0.153797
   2 H :    0.149222
   3 O :   -0.294015
   4 H :    0.170678
   5 H :    0.194549
   6 O :   -0.284392
   7 H :    0.161519
   8 H :    0.171440
   9 O :   -0.329231
  10 H :    0.156410
  11 H :    0.161517
  12 O :   -0.327115
  13 H :    0.155852
  14 H :    0.171130
  15 O :   -0.363562
  16 H :    0.151214
  17 H :    0.144826
  18 O :   -0.345807
  19 H :    0.149935
  20 H :    0.153388
  21 O :   -0.283289
  22 H :    0.170604
  23 H :    0.158058

-------------------------------
LOEWDIN REDUCED ORBITAL CHARGES
-------------------------------
  0 O s       :     3.457502  s :     3.457502
      pz      :     1.667200  p :     4.826668
      px      :     1.388108
      py      :     1.771361
      dz2     :     0.010396  d :     0.057798
      dxz     :     0.012417
      dyz     :     0.011344
      dx2y2   :     0.008950
      dxy     :     0.014691
      f0      :     0.000468  f :     0.004760
      f+1     :     0.000843
      f-1     :     0.000644
      f+2     :     0.000411
      f-2     :     0.001025
      f+3     :     0.000473
      f-3     :     0.000897
  1 H s       :     0.678121  s :     0.678121
      pz      :     0.067134  p :     0.168083
      px      :     0.046787
      py      :     0.054161
  2 H s       :     0.651939  s :     0.651939
      pz      :     0.034410  p :     0.198840
      px      :     0.115711
      py      :     0.048719
  3 O s       :     3.457349  s :     3.457349
      pz      :     1.677802  p :     4.772646
      px      :     1.359732
      py      :     1.735112
      dz2     :     0.011059  d :     0.059219
      dxz     :     0.012166
      dyz     :     0.010966
      dx2y2   :     0.009786
      dxy     :     0.015242
      f0      :     0.000473  f :     0.004801
      f+1     :     0.000854
      f-1     :     0.000653
      f+2     :     0.000409
      f-2     :     0.000999
      f+3     :     0.000474
      f-3     :     0.000939
  4 H s       :     0.662275  s :     0.662275
      pz      :     0.067972  p :     0.167047
      px      :     0.045567
      py      :     0.053508
  5 H s       :     0.653116  s :     0.653116
      pz      :     0.034075  p :     0.152335
      px      :     0.073839
      py      :     0.044420
  6 O s       :     3.448747  s :     3.448747
      pz      :     1.534858  p :     4.770791
      px      :     1.522363
      py      :     1.713570
      dz2     :     0.021122  d :     0.059958
      dxz     :     0.007174
      dyz     :     0.007364
      dx2y2   :     0.009232
      dxy     :     0.015066
      f0      :     0.000830  f :     0.004895
      f+1     :     0.000982
      f-1     :     0.000736
      f+2     :     0.000389
      f-2     :     0.000421
      f+3     :     0.000406
      f-3     :     0.001131
  7 H s       :     0.663978  s :     0.663978
      pz      :     0.095763  p :     0.174503
      px      :     0.036622
      py      :     0.042119
  8 H s       :     0.666957  s :     0.666957
      pz      :     0.031841  p :     0.161603
      px      :     0.073929
      py      :     0.055833
  9 O s       :     3.460524  s :     3.460524
      pz      :     1.548575  p :     4.804284
      px      :     1.433687
      py      :     1.822022
      dz2     :     0.020309  d :     0.059604
      dxz     :     0.009167
      dyz     :     0.007127
      dx2y2   :     0.010157
      dxy     :     0.012844
      f0      :     0.000763  f :     0.004819
      f+1     :     0.001142
      f-1     :     0.000584
      f+2     :     0.000413
      f-2     :     0.000413
      f+3     :     0.000449
      f-3     :     0.001056
 10 H s       :     0.668092  s :     0.668092
      pz      :     0.096205  p :     0.175498
      px      :     0.036147
      py      :     0.043146
 11 H s       :     0.681207  s :     0.681207
      pz      :     0.031731  p :     0.157277
      px      :     0.075126
      py      :     0.050419
 12 O s       :     3.460246  s :     3.460246
      pz      :     1.542358  p :     4.802840
      px      :     1.438953
      py      :     1.821529
      dz2     :     0.020113  d :     0.059213
      dxz     :     0.009234
      dyz     :     0.007170
      dx2y2   :     0.009953
      dxy     :     0.012743
      f0      :     0.000778  f :     0.004815
      f+1     :     0.001138
      f-1     :     0.000583
      f+2     :     0.000413
      f-2     :     0.000412
      f+3     :     0.000445
      f-3     :     0.001045
 13 H s       :     0.670089  s :     0.670089
      pz      :     0.094186  p :     0.174059
      px      :     0.036303
      py      :     0.043571
 14 H s       :     0.671551  s :     0.671551
      pz      :     0.031236  p :     0.157319
      px      :     0.075924
      py      :     0.050159
 15 O s       :     3.456398  s :     3.456398
      pz      :     1.525173  p :     4.844705
      px      :     1.537267
      py      :     1.782264
      dz2     :     0.020479  d :     0.057678
      dxz     :     0.007353
      dyz     :     0.007635
      dx2y2   :     0.007602
      dxy     :     0.014610
      f0      :     0.000865  f :     0.004782
      f+1     :     0.000966
      f-1     :     0.000700
      f+2     :     0.000388
      f-2     :     0.000421
      f+3     :     0.000377
      f-3     :     0.001064
 16 H s       :     0.674743  s :     0.674743
      pz      :     0.093492  p :     0.174043
      px      :     0.037604
      py      :     0.042946
 17 H s       :     0.677395  s :     0.677395
      pz      :     0.031898  p :     0.177779
      px      :     0.086844
      py      :     0.059036
 18 O s       :     3.457847  s :     3.457847
      pz      :     1.697708  p :     4.825448
      px      :     1.735525
      py      :     1.392216
      dz2     :     0.009965  d :     0.057752
      dxz     :     0.011233
      dyz     :     0.012743
      dx2y2   :     0.009356
      dxy     :     0.014455
      f0      :     0.000454  f :     0.004760
      f+1     :     0.000651
      f-1     :     0.000852
      f+2     :     0.000410
      f-2     :     0.001036
      f+3     :     0.000883
      f-3     :     0.000473
 19 H s       :     0.681898  s :     0.681898
      pz      :     0.067023  p :     0.168167
      px      :     0.054310
      py      :     0.046834
 20 H s       :     0.648311  s :     0.648311
      pz      :     0.034107  p :     0.198301
      px      :     0.048305
      py      :     0.115889
 21 O s       :     3.448416  s :     3.448416
      pz      :     1.508127  p :     4.769776
      px      :     1.718809
      py      :     1.542840
      dz2     :     0.022090  d :     0.060194
      dxz     :     0.007405
      dyz     :     0.007384
      dx2y2   :     0.009124
      dxy     :     0.014191
      f0      :     0.000885  f :     0.004903
      f+1     :     0.000732
      f-1     :     0.000995
      f+2     :     0.000390
      f-2     :     0.000426
      f+3     :     0.001067
      f-3     :     0.000408
 22 H s       :     0.666824  s :     0.666824
      pz      :     0.082523  p :     0.162573
      px      :     0.042693
      py      :     0.037356
 23 H s       :     0.665463  s :     0.665463
      pz      :     0.030459  p :     0.176479
      px      :     0.058789
      py      :     0.087231


                      *****************************
                      * MAYER POPULATION ANALYSIS *
                      *****************************

  NA   - Mulliken gross atomic population
  ZA   - Total nuclear charge
[...]
      f+1     :     0.000534
      f-1     :     0.000680
      f+2     :     0.000432
      f-2     :     0.000702
      f+3     :     0.000681
      f-3     :     0.000457
 19 H s       :     0.618441  s :     0.618441
      pz      :     0.017627  p :     0.048315
      px      :     0.016440
      py      :     0.014247
 20 H s       :     0.559310  s :     0.559310
      pz      :     0.012014  p :     0.057822
      px      :     0.014334
      py      :     0.031474
 21 O s       :     3.790480  s :     3.790480
      pz      :     1.512966  p :     4.852508
      px      :     1.758348
      py      :     1.581194
      dz2     :     0.016159  d :     0.050484
      dxz     :     0.007948
      dyz     :     0.006658
      dx2y2   :     0.008105
      dxy     :     0.011614
      f0      :     0.000612  f :     0.003923
      f+1     :     0.000524
      f-1     :     0.000734
      f+2     :     0.000415
      f-2     :     0.000422
      f+3     :     0.000790
      f-3     :     0.000426
 22 H s       :     0.594972  s :     0.594972
      pz      :     0.018603  p :     0.045967
      px      :     0.014402
      py      :     0.012963
 23 H s       :     0.572443  s :     0.572443
      pz      :     0.011015  p :     0.051175
      px      :     0.016464
      py      :     0.023696


                     *******************************
                     * LOEWDIN POPULATION ANALYSIS *
                     *******************************

----------------------
LOEWDIN ATOMIC CHARGES
----------------------
   0 O :   -0.344316
   1 H :    0.155571
   2 H :    0.141603
   3 O :   -0.287936
   4 H :    0.172396
   5 H :    0.195487
   6 O :   -0.277778
   7 H :    0.158029
   8 H :    0.172507
   9 O :   -0.327344
  10 H :    0.151882
  11 H :    0.161794
  12 O :   -0.324461
  13 H :    0.152165
  14 H :    0.171957
  15 O :   -0.363327
  16 H :    0.148062
  17 H :    0.140046
  18 O :   -0.342929
  19 H :    0.151874
  20 H :    0.145821
  21 O :   -0.276765
  22 H :    0.172007
  23 H :    0.153656

-------------------------------
LOEWDIN REDUCED ORBITAL CHARGES
-------------------------------
  0 O s       :     3.459086  s :     3.459086
      pz      :     1.661863  p :     4.823240
      px      :     1.391586
      py      :     1.769792
      dz2     :     0.010448  d :     0.057191
      dxz     :     0.012080
      dyz     :     0.011285
      dx2y2   :     0.008947
      dxy     :     0.014430
      f0      :     0.000471  f :     0.004799
      f+1     :     0.000855
      f-1     :     0.000646
      f+2     :     0.000412
      f-2     :     0.001026
      f+3     :     0.000477
      f-3     :     0.000913
  1 H s       :     0.676285  s :     0.676285
      pz      :     0.067123  p :     0.168144
      px      :     0.046331
      py      :     0.054691
  2 H s       :     0.659291  s :     0.659291
      pz      :     0.035003  p :     0.199107
      px      :     0.114816
      py      :     0.049288
  3 O s       :     3.458861  s :     3.458861
      pz      :     1.672926  p :     4.766056
      px      :     1.364809
      py      :     1.728321
      dz2     :     0.011010  d :     0.058198
      dxz     :     0.011821
      dyz     :     0.010959
      dx2y2   :     0.009580
      dxy     :     0.014828
      f0      :     0.000477  f :     0.004820
      f+1     :     0.000859
      f-1     :     0.000653
      f+2     :     0.000409
      f-2     :     0.001000
      f+3     :     0.000477
      f-3     :     0.000945
  4 H s       :     0.660969  s :     0.660969
      pz      :     0.067920  p :     0.166635
      px      :     0.044787
      py      :     0.053928
  5 H s       :     0.652384  s :     0.652384
      pz      :     0.034730  p :     0.152129
      px      :     0.072378
      py      :     0.045020
  6 O s       :     3.449480  s :     3.449480
      pz      :     1.536483  p :     4.764249
      px      :     1.523945
      py      :     1.703821
      dz2     :     0.020622  d :     0.059134
      dxz     :     0.007065
      dyz     :     0.007409
      dx2y2   :     0.009284
      dxy     :     0.014755
      f0      :     0.000834  f :     0.004915
      f+1     :     0.000988
      f-1     :     0.000737
      f+2     :     0.000390
      f-2     :     0.000421
      f+3     :     0.000408
      f-3     :     0.001138
  7 H s       :     0.667372  s :     0.667372
      pz      :     0.094913  p :     0.174599
      px      :     0.036938
      py      :     0.042748
  8 H s       :     0.665889  s :     0.665889
      pz      :     0.032272  p :     0.161604
      px      :     0.073138
      py      :     0.056194
  9 O s       :     3.461833  s :     3.461833
      pz      :     1.546571  p :     4.802092
      px      :     1.436261
      py      :     1.819260
      dz2     :     0.019935  d :     0.058578
      dxz     :     0.008976
      dyz     :     0.007203
      dx2y2   :     0.009926
      dxy     :     0.012537
      f0      :     0.000767  f :     0.004842
      f+1     :     0.001151
      f-1     :     0.000584
      f+2     :     0.000415
      f-2     :     0.000411
      f+3     :     0.000451
      f-3     :     0.001062
 10 H s       :     0.672385  s :     0.672385
      pz      :     0.095671  p :     0.175734
      px      :     0.036066
      py      :     0.043997
 11 H s       :     0.680418  s :     0.680418
      pz      :     0.032336  p :     0.157787
      px      :     0.074226
      py      :     0.051226
 12 O s       :     3.461413  s :     3.461413
      pz      :     1.540054  p :     4.800037
      px      :     1.441464
      py      :     1.818518
      dz2     :     0.019716  d :     0.058174
      dxz     :     0.009034
      dyz     :     0.007245
      dx2y2   :     0.009735
      dxy     :     0.012444
      f0      :     0.000782  f :     0.004837
      f+1     :     0.001147
      f-1     :     0.000583
      f+2     :     0.000416
      f-2     :     0.000411
      f+3     :     0.000447
      f-3     :     0.001051
 13 H s       :     0.673544  s :     0.673544
      pz      :     0.093526  p :     0.174291
      px      :     0.036251
      py      :     0.044513
 14 H s       :     0.670511  s :     0.670511
      pz      :     0.031729  p :     0.157531
      px      :     0.074907
      py      :     0.050896
 15 O s       :     3.457013  s :     3.457013
      pz      :     1.526349  p :     4.844747
      px      :     1.538632
      py      :     1.779766
      dz2     :     0.019953  d :     0.056762
      dxz     :     0.007233
      dyz     :     0.007652
      dx2y2   :     0.007572
      dxy     :     0.014351
      f0      :     0.000869  f :     0.004805
      f+1     :     0.000975
      f-1     :     0.000699
      f+2     :     0.000390
      f-2     :     0.000421
      f+3     :     0.000376
      f-3     :     0.001075
 16 H s       :     0.677567  s :     0.677567
      pz      :     0.092648  p :     0.174372
      px      :     0.038018
      py      :     0.043706
 17 H s       :     0.681411  s :     0.681411
      pz      :     0.032387  p :     0.178543
      px      :     0.086516
      py      :     0.059640
 18 O s       :     3.459392  s :     3.459392
      pz      :     1.697373  p :     4.821596
      px      :     1.728218
      py      :     1.396005
      dz2     :     0.009947  d :     0.057144
      dxz     :     0.011164
      dyz     :     0.012378
      dx2y2   :     0.009397
      dxy     :     0.014257
      f0      :     0.000456  f :     0.004798
      f+1     :     0.000652
      f-1     :     0.000864
      f+2     :     0.000410
      f-2     :     0.001037
      f+3     :     0.000899
      f-3     :     0.000478
 19 H s       :     0.679800  s :     0.679800
      pz      :     0.067056  p :     0.168326
      px      :     0.054788
      py      :     0.046481
 20 H s       :     0.655776  s :     0.655776
      pz      :     0.034755  p :     0.198404
      px      :     0.048752
      py      :     0.114897
 21 O s       :     3.449295  s :     3.449295
      pz      :     1.510321  p :     4.763152
      px      :     1.708360
      py      :     1.544470
      dz2     :     0.021432  d :     0.059394
      dxz     :     0.007440
      dyz     :     0.007259
      dx2y2   :     0.009221
      dxy     :     0.014042
      f0      :     0.000884  f :     0.004924
      f+1     :     0.000733
      f-1     :     0.001002
      f+2     :     0.000391
      f-2     :     0.000426
      f+3     :     0.001079
      f-3     :     0.000410
 22 H s       :     0.665388  s :     0.665388
      pz      :     0.081652  p :     0.162605
      px      :     0.043324
      py      :     0.037629
 23 H s       :     0.669492  s :     0.669492
      pz      :     0.030845  p :     0.176853
      px      :     0.059175
      py      :     0.086833


                      *****************************
                      * MAYER POPULATION ANALYSIS *
                      *****************************

  NA   - Mulliken gross atomic population
  ZA   - Total nuclear charge
  QA   - Mulliken gross atomic charge
  VA   - Mayer's total valence
  BVA  - Mayer's bonded valence
  FA   - Mayer's free valence

  ATOM       NA         ZA         QA         VA         BVA        FA
  0 O      8.7438     8.0000    -0.7438     2.0270     1.6383     0.3887
  1 H      0.6589     1.0000     0.3411     0.9044     0.8576     0.0468
  2 H      0.6326     1.0000     0.3674     0.9174     0.8718     0.0456
  3 O      8.7253     8.0000    -0.7253     2.1003     1.7141     0.3861
  4 H      0.6269     1.0000     0.3731     0.8804     0.8366     0.0438
  5 H      0.6206     1.0000     0.3794     0.8777     0.8314     0.0463
  6 O      8.7029     8.0000    -0.7029     2.0941     1.7118     0.3824
  7 H      0.6153     1.0000     0.3847     0.8882     0.8453     0.0429
  8 H      0.6455     1.0000     0.3545     0.9001     0.8537     0.0464
  9 O      8.7139     8.0000    -0.7139     2.0787     1.6915     0.3871
 10 H      0.6257     1.0000     0.3743     0.9054     0.8621     0.0433
 11 H      0.6734     1.0000     0.3266     0.9235     0.8734     0.0501
 12 O      8.7168     8.0000    -0.7168     2.0839     1.6972     0.3868
 13 H      0.6261     1.0000     0.3739     0.8983     0.8549     0.0434
 14 H      0.6557     1.0000     0.3443     0.9080     0.8595     0.0485
 15 O      8.7409     8.0000    -0.7409     2.0435     1.6573     0.3862
 16 H      0.6344     1.0000     0.3656     0.9019     0.8573     0.0446
 17 H      0.6544     1.0000     0.3456     0.9337     0.8876     0.0460
 18 O      8.7409     8.0000    -0.7409     2.0338     1.6452     0.3885
 19 H      0.6668     1.0000     0.3332     0.9099     0.8623     0.0476
 20 H      0.6171     1.0000     0.3829     0.8991     0.8548     0.0443
 21 O      8.6974     8.0000    -0.6974     2.0979     1.7157     0.3823
 22 H      0.6409     1.0000     0.3591     0.8920     0.8459     0.0461
 23 H      0.6236     1.0000     0.3764     0.8987     0.8553     0.0434

  Mayer bond orders larger than 0.100000
B(  0-O ,  1-H ) :   0.8483 B(  0-O ,  2-H ) :   0.7607 B(  3-O ,  4-H ) :   0.8268 
B(  3-O ,  5-H ) :   0.8133 B(  6-O ,  7-H ) :   0.8018 B(  6-O ,  8-H ) :   0.8352 
B(  9-O , 10-H ) :   0.8018 B(  9-O , 11-H ) :   0.8466 B( 12-O , 13-H ) :   0.8122 
B( 12-O , 14-H ) :   0.8376 B( 15-O , 16-H ) :   0.8245 B( 15-O , 17-H ) :   0.8198 
B( 18-O , 19-H ) :   0.8527 B( 18-O , 20-H ) :   0.7574 B( 21-O , 22-H ) :   0.8356 
B( 21-O , 23-H ) :   0.8033 


----------------------------------
MP2 DERIVATIVE INTEGRAL GENERATION
----------------------------------


Input Wavefunction Amplitudes       ... 12h2o.su.etal.mol0,1,3,6,7,8,10,11-orca.engrad-mp2.def2tzvp.frozencore.mp2tsaa.tmp
Input Correlated Electron Density   ... 12h2o.su.etal.mol0,1,3,6,7,8,10,11-orca.engrad-mp2.def2tzvp.frozencore.pmp2re
Input Energy Weighted Density       ... 12h2o.su.etal.mol0,1,3,6,7,8,10,11-orca.engrad-mp2.def2tzvp.frozencore.wmp2.tmp
Input SCF Electron Density          ... 12h2o.su.etal.mol0,1,3,6,7,8,10,11-orca.engrad-mp2.def2tzvp.frozencore.scfp

One-Electron Terms    ...
                        ... One-Electron Terms done
Prescreening matrices              ... done

Batch handling in the gradient evaluation:
Memory available                      ... 8000.0 MB
Memory per occupied orbital in Q2     ...   28.9 MB
Memory per occupied orbital in Q3     ...    0.1 MB
Total memory requirement per |i>      ...   29.0 MB
Max. Number of orbitals possible      ...    275
Number of orbitals treated per batch  ...     32
Number of batches to be done          ...      1
Batch   0: i=    8 ...    39

---------------------------------------
MP2 TOTAL ENERGY:     -610.574760395 Eh
---------------------------------------

The final MP2 gradient
  0:   0.00711785  -0.00258301   0.00046878
  1:   0.00069362  -0.00052449  -0.00055429
  2:  -0.01325672   0.00353401  -0.00262430
  3:  -0.02631267   0.00694721  -0.00074058
  4:   0.00036384   0.00258302  -0.00323558
  5:   0.02432100  -0.00809050  -0.00022631
  6:  -0.00632428   0.00998987  -0.00060725
  7:   0.00026022  -0.00152283  -0.00108565
  8:   0.00652712  -0.00558932   0.00146795
  9:   0.01768349  -0.00867975  -0.00217764
 10:   0.00217519   0.00285982  -0.00128610
 11:  -0.01736441   0.00757385   0.00328381
 12:  -0.01573807   0.01004647  -0.00224471
 13:  -0.00154603  -0.00185115   0.00406704
 14:   0.01467108  -0.00930217   0.00099132
 15:   0.00170306  -0.00198063  -0.00093547
 16:   0.00211188   0.00294251   0.00439965
 17:  -0.00345009   0.00119561  -0.00155578
 18:   0.00209536   0.00592195  -0.00044750
 19:   0.00027705   0.00092663   0.00010462
 20:  -0.00319575  -0.01202059   0.00012704
 21:   0.00418217   0.00011440   0.00913303
 22:   0.00180365  -0.00005516  -0.00724234
 23:   0.00120146  -0.00243577   0.00092027

-----------------------------------
NORM OF THE MP2 GRADIENT:  0.061325
-----------------------------------

-------------------------   --------------------
FINAL SINGLE POINT ENERGY      -610.574760394574
-------------------------   --------------------


                            ***************************************
                            *     ORCA property calculations      *
                            ***************************************

                                    ---------------------
                                    Active property flags
                                    ---------------------
   (+) Dipole Moment


------------------------------------------------------------------------------
                       ORCA ELECTRIC PROPERTIES CALCULATION
------------------------------------------------------------------------------

Dipole Moment Calculation                       ... on
Quadrupole Moment Calculation                   ... off
Polarizability Calculation                      ... off
GBWName                                         ... 12h2o.su.etal.mol0,1,3,6,7,8,10,11-orca.engrad-mp2.def2tzvp.frozencore.gbw
Electron density file                           ... 12h2o.su.etal.mol0,1,3,6,7,8,10,11-orca.engrad-mp2.def2tzvp.frozencore.scfp
The origin for moment calculation is the CENTER OF MASS  = (-0.413051,  0.825632 -0.009601)

-------------
DIPOLE MOMENT
-------------
                                X             Y             Z
Electronic contribution:     -0.44091      -0.23759       0.33195
Nuclear contribution   :     -1.24480      -0.76395       2.86726
                        -----------------------------------------
Total Dipole Moment    :     -1.68571      -1.00154       3.19921
                        -----------------------------------------
Magnitude (a.u.)       :      3.75228
Magnitude (Debye)      :      9.53754



--------------------
Rotational spectrum 
--------------------
 
Rotational constants in cm-1:     0.032170     0.017203     0.013099 
Rotational constants in MHz :   964.420967   515.738374   392.705687 

 Dipole components along the rotational axes: 
x,y,z [a.u.] :     3.167622     2.008807     0.102384 
x,y,z [Debye]:     8.051454     5.105983     0.260240 

 

                         *** MP2 UNRELAXED DENSITY ***

------------------------------------------------------------------------------
                       ORCA ELECTRIC PROPERTIES CALCULATION
------------------------------------------------------------------------------

Dipole Moment Calculation                       ... on
Quadrupole Moment Calculation                   ... off
Polarizability Calculation                      ... off
GBWName                                         ... 12h2o.su.etal.mol0,1,3,6,7,8,10,11-orca.engrad-mp2.def2tzvp.frozencore.gbw
Electron density file                           ... 12h2o.su.etal.mol0,1,3,6,7,8,10,11-orca.engrad-mp2.def2tzvp.frozencore.pmp2ur
The origin for moment calculation is the CENTER OF MASS  = (-0.413051,  0.825632 -0.009601)

-------------
DIPOLE MOMENT
-------------
                                X             Y             Z
Electronic contribution:     -0.43567      -0.23307       0.31055
Nuclear contribution   :     -1.24480      -0.76395       2.86726
                        -----------------------------------------
Total Dipole Moment    :     -1.68048      -0.99702       3.17780
                        -----------------------------------------
Magnitude (a.u.)       :      3.73048
Magnitude (Debye)      :      9.48213



--------------------
Rotational spectrum 
--------------------
 
Rotational constants in cm-1:     0.032170     0.017203     0.013099 
Rotational constants in MHz :   964.420967   515.738374   392.705687 

 Dipole components along the rotational axes: 
x,y,z [a.u.] :     3.146320     2.001745     0.100895 
x,y,z [Debye]:     7.997310     5.088032     0.256454 

 

                           *** MP2 RELAXED DENSITY ***

------------------------------------------------------------------------------
                       ORCA ELECTRIC PROPERTIES CALCULATION
------------------------------------------------------------------------------

Dipole Moment Calculation                       ... on
Quadrupole Moment Calculation                   ... off
Polarizability Calculation                      ... off
GBWName                                         ... 12h2o.su.etal.mol0,1,3,6,7,8,10,11-orca.engrad-mp2.def2tzvp.frozencore.gbw
Electron density file                           ... 12h2o.su.etal.mol0,1,3,6,7,8,10,11-orca.engrad-mp2.def2tzvp.frozencore.pmp2re
The origin for moment calculation is the CENTER OF MASS  = (-0.413051,  0.825632 -0.009601)

-------------
DIPOLE MOMENT
-------------
                                X             Y             Z
Electronic contribution:     -0.45012      -0.23638       0.30285
Nuclear contribution   :     -1.24480      -0.76395       2.86726
                        -----------------------------------------
Total Dipole Moment    :     -1.69492      -1.00033       3.17011
                        -----------------------------------------
Magnitude (a.u.)       :      3.73136
Magnitude (Debye)      :      9.48436



--------------------
Rotational spectrum 
--------------------
 
Rotational constants in cm-1:     0.032170     0.017203     0.013099 
Rotational constants in MHz :   964.420967   515.738374   392.705687 

 Dipole components along the rotational axes: 
x,y,z [a.u.] :     3.138364     2.015992     0.097343 
x,y,z [Debye]:     7.977088     5.124244     0.247426 

 

Timings for individual modules:

Sum of individual times         ...      166.570 sec (=   2.776 min)
GTO integral calculation        ...        1.005 sec (=   0.017 min)   0.6 %
SCF iterations                  ...       23.763 sec (=   0.396 min)  14.3 %
MP2 module                      ...      141.802 sec (=   2.363 min)  85.1 %
                             ****ORCA TERMINATED NORMALLY****
TOTAL RUN TIME: 0 days 0 hours 2 minutes 47 seconds 573 msec
