4
Energy:   -236.93501594
O   -0.01635281   0.00977493  -0.00328238
H   -0.20353265   0.68656821  -0.65377944
H   -0.15144415  -0.81518113  -0.46957594
H    0.42893702   0.12802969   1.27288282
