4
Energy:   -224.98264329
O    0.12994576  -0.05264112   0.06343733
H   -0.18280883  -0.77479807   0.60832792
H   -0.31751200   0.71984058   0.40881456
H    0.33774566   0.15379756  -1.25798217
