4
Energy:   -227.74697459
O   -0.03338292  -0.01562580  -0.07339580
H    0.14667453  -0.94914664   0.03773477
H    0.68552923   0.30422593  -0.61845730
H   -0.88051687   0.75472936   0.78306252
