4
Energy:   -234.66479836
O    0.00135110  -0.03075006   0.00146942
H   -0.47240052  -0.86082784  -0.05108650
H   -0.03257515   0.32165951  -0.88784962
H    0.56726237   0.66181573   1.05656864
