4
Energy:   -231.45056892
O    0.06364127   0.06493047   0.00234408
H   -0.16772046   0.78009853  -0.59030947
H    0.29684008  -0.66069777  -0.57671880
H   -0.25663733  -0.24792266   1.31233395
