4
Energy:   -234.07194304
O   -0.06252103   0.03099712   0.02584053
H   -0.55434576  -0.37298861  -0.68909711
H    0.19281812   0.88891747  -0.31328546
H    0.51684271  -0.63603221   1.08563437
