41
Energy:  -1096.91272451
O    3.51119821  -2.10526359   0.82334973
H    3.60679178  -1.19899645   1.11622103
H    2.57209979  -2.21037727   0.67078130
O   -2.13225376   1.28204155  -1.80859627
H   -1.32321166   1.78679172  -1.89172268
H   -1.88845771   0.52353612  -1.27806367
O    3.47373062   0.67349432   0.92504313
H    3.58198948   0.44811687   0.00107512
H    2.52591452   0.70891937   1.05396778
O   -0.71251935  -2.73606730   2.36691680
H   -1.50493279  -2.30176868   2.05116770
H   -0.07526444  -2.61390133   1.66320272
O    3.59844266  -0.63808091  -1.51934384
H    3.62760318  -1.33282148  -0.86153151
H    2.66529660  -0.46657361  -1.64605421
O    0.31496464   2.45739243  -1.84044134
H    0.24410027   2.73388538  -0.92678838
H    0.67706734   1.57244259  -1.79597500
O   -0.71855161  -0.36417089  -3.59948470
H   -0.01052640  -0.40688309  -2.95675006
H   -1.36200316   0.22706070  -3.20878386
O   -0.14573112  -0.24285648   3.40297993
H   -0.20070389  -1.18008825   3.21641503
H    0.26590765   0.13299772   2.62482892
O   -2.84846101   2.22438247   0.69135230
H   -2.70807723   1.93024713  -0.20865250
H   -2.79160615   1.42603711   1.21637044
O   -0.19705327   2.97957922   0.80942640
H   -1.13823567   2.80813014   0.84125034
H    0.20770397   2.12412675   0.95296907
O   -2.51526812  -0.19278657   2.02524454
H   -1.77264718  -0.07491837   2.61757306
H   -2.11698370  -0.38511401   1.17635613
O   -2.24879631  -2.17791694  -2.17965100
H   -1.95966317  -1.79209560  -1.35274365
H   -1.72223013  -1.73779435  -2.84692306
S    0.35173405  -0.56716439  -0.08524209
O    0.92784064  -0.19972183  -1.40932183
O    0.88182936  -1.89444544   0.33597514
O    0.73013514   0.46175365   0.92383685
O   -1.13286897  -0.63624391  -0.19145851
