41
Energy:  -1099.25054267
O    0.87078317  -3.51904950  -0.88841083
H    1.64790394  -3.06039166  -1.20770400
H    0.42643790  -2.87953940  -0.33179969
O   -3.22762695   0.07613190  -1.06213523
H   -2.33835728   0.02091971  -1.41196793
H   -3.17966585  -0.36493108  -0.21396365
O    2.74065247   0.33187460   2.06628419
H    2.51827867   0.18837423   1.14639866
H    2.21138069   1.08584885   2.32633431
O   -2.71695757  -1.24189570   1.38243149
H   -2.46790201  -0.63701973   2.08123636
H   -1.88764863  -1.49387854   0.97625030
O    2.60838055  -1.80319508  -2.17812912
H    1.83329613  -1.81306477  -2.73971488
H    2.43348236  -1.11164909  -1.53984499
O    2.07294944   2.34950208  -1.89692235
H    2.06275690   1.54343163  -1.38080377
H    1.15841401   2.48851660  -2.14295437
O   -0.67149207   2.48871477  -2.55571389
H   -1.22829697   2.79321868  -1.83914043
H   -0.58659110   1.54649913  -2.40992861
O    0.84353707  -1.49190623   2.91541508
H    0.44640459  -1.64185511   2.05749144
H    1.59849059  -0.93154665   2.73576495
O   -2.33464151   2.60711072  -0.31998692
H   -2.84636383   1.86917692  -0.65138673
H   -1.57471905   2.20322988   0.09909538
O    0.89234692   2.27679266   2.69721594
H    0.58442139   2.06867260   1.81511631
H    0.30210713   1.79567223   3.27719178
O   -1.16848194   0.37744714   3.10310416
H   -0.99544610   0.71955480   2.22603359
H   -0.54863825  -0.34471351   3.20562071
O    0.02863587  -2.16046916  -3.14983104
H    0.12323801  -2.77880508  -2.42530156
H   -0.24666514  -1.34356463  -2.73376830
S    0.14650746  -0.08395790  -0.24668651
O   -0.52025963  -0.01678503  -1.57747930
O   -0.18284259  -1.38078646   0.40895381
O    1.62205232   0.02203290  -0.42454418
O   -0.33292024   1.03970699   0.60632364
