41
Energy:  -1095.20540803
O    2.80691226  -2.43638821  -0.17415397
H    3.27584705  -1.74816182   0.29773208
H    1.88197234  -2.21739309  -0.06119759
O   -2.85297875  -0.35848342  -1.03793516
H   -2.27827658   0.08692053  -0.41538831
H   -2.32694060  -1.08457739  -1.37305195
O    3.95835331  -0.05609315   0.61420107
H    3.84257593   0.04365837  -0.33072066
H    3.11202067   0.19074247   0.98706175
O   -1.20500654  -2.94704694   1.67676916
H   -2.06909899  -2.73719668   1.32245439
H   -0.59361590  -2.46635344   1.11876640
O    3.07793540  -0.37847874  -2.00938818
H    2.95319090  -1.22479559  -1.57994850
H    2.26838564   0.10123527  -1.83407275
O    1.24113385   3.38212785  -0.78080633
H    1.52997406   3.31825674   0.12953628
H    1.11295158   2.47439468  -1.05616363
O   -1.10877032   0.50423224  -3.08201830
H   -0.36765977   0.67761124  -2.50156441
H   -1.86823620   0.47720365  -2.50002785
O   -1.99733319  -0.55406957   2.84598161
H   -1.65870165   0.01886057   2.15800517
H   -1.53477562  -1.38223777   2.71788102
O   -1.10335730   3.34317911   0.68625690
H   -0.43883303   3.48380075   0.01182018
H   -1.20585694   2.39238238   0.72762425
O    1.33873203   3.08644434   1.98292774
H    0.41395140   3.23270429   1.78387835
H    1.46774727   2.14765746   1.84777556
O   -3.70926338  -1.77367007   1.13028336
H   -3.26130138  -1.26811337   1.80849742
H   -3.52806712  -1.29974541   0.31862137
O   -1.07060413  -2.10042782  -2.13574587
H   -0.51305970  -2.00614916  -1.36341979
H   -0.89841274  -1.31396504  -2.65348931
S    0.37209580   0.12398402   0.19805563
O    0.73108638   0.71525957  -1.12164851
O    1.39663106   0.50788717   1.20951293
O   -0.96173983   0.63330444   0.62417207
O    0.32240560  -1.36051511   0.08018602
