41
Energy:  -1096.21527233
O    2.29941610  -2.84728463   0.55534866
H    2.76635205  -2.24150578  -0.02018123
H    1.38671754  -2.56171286   0.51458158
O   -2.17211673   0.45787857  -3.29625500
H   -1.38800271   0.99504958  -3.40958794
H   -2.12983858   0.16025857  -2.38748290
O    2.39035594  -1.56793751   2.95997369
H    1.45745152  -1.43852497   3.13077645
H    2.41752589  -2.08231517   2.15318421
O   -1.49327690   1.24779504   2.42283898
H   -2.09783630   0.56043146   2.14306930
H   -0.78418565   1.21977936   1.78047104
O    3.27564306  -0.74647270  -0.91716804
H    2.40216191  -0.68246411  -1.30338744
H    3.23875679  -0.18153960  -0.14533785
O    2.83944958   0.67328941   1.42024525
H    2.73550680  -0.06485963   2.02071485
H    1.95573016   0.84386741   1.09440024
O    0.25842440   1.75977667  -3.09814290
H    0.08744492   2.34233762  -2.35812897
H    0.51644791   0.93035572  -2.69600286
O   -0.35489548  -1.25441091   3.11657585
H   -0.21703916  -1.47707374   2.19589743
H   -0.61065259  -0.33208790   3.10472695
O   -2.74123697   2.25110882   0.07764019
H   -2.40267648   2.17854628   0.97002089
H   -2.47634230   1.43498990  -0.34663870
O   -0.28617801   3.17483020  -0.77486566
H   -1.22383304   3.04964360  -0.62870410
H    0.12830351   2.44782047  -0.31022197
O   -2.94650662  -0.90809796   1.55719231
H   -2.67459991  -0.70128685   0.66302915
H   -2.25899242  -1.48515670   1.88969686
O   -0.40564604  -1.59821835  -3.84597052
H   -1.15327896  -1.00112794  -3.81840418
H    0.10775307  -1.37596108  -3.06927566
S   -0.18241784  -0.34526912  -0.32520728
O    0.63334229  -0.50504935  -1.56177741
O   -0.07065141  -1.57674450   0.50610291
O    0.31611411   0.82484573   0.45093520
O   -1.60847636  -0.12412834  -0.69608983
