
                                 *****************
                                 * O   R   C   A *
                                 *****************

           --- An Ab Initio, DFT and Semiempirical electronic structure package ---

                  #######################################################
                  #                        -***-                        #
                  #  Department of molecular theory and spectroscopy    #
                  #              Directorship: Frank Neese              #
                  # Max Planck Institute for Chemical Energy Conversion #
                  #                  D-45470 Muelheim/Ruhr              #
                  #                       Germany                       #
                  #                                                     #
                  #                  All rights reserved                #
                  #                        -***-                        #
                  #######################################################


                         Program Version 3.0.3 - RELEASE   -


 With contributions from (in alphabetic order):
   Ute Becker             : Parallelization
   Dmytro Bykov           : SCF Hessian
   Dmitry Ganyushin       : Spin-Orbit,Spin-Spin,Magnetic field MRCI
   Andreas Hansen         : Spin unrestricted coupled pair/coupled cluster methods
   Dimitrios Liakos       : Extrapolation schemes; parallel MDCI
   Robert Izsak           : Overlap fitted RIJCOSX, COSX-SCS-MP3
   Christian Kollmar      : KDIIS, OOCD, Brueckner-CCSD(T), CCSD density
   Simone Kossmann        : Meta GGA functionals, TD-DFT gradient, OOMP2, MP2 Hessian
   Taras Petrenko         : DFT Hessian,TD-DFT gradient, ASA and ECA modules, normal mode analysis, Resonance Raman, ABS, FL, XAS/XES, NRVS
   Christoph Reimann      : Effective Core Potentials
   Michael Roemelt        : Restricted open shell CIS
   Christoph Riplinger    : Improved optimizer, TS searches, QM/MM, DLPNO-CCSD
   Barbara Sandhoefer     : DKH picture change effects
   Igor Schapiro          : Molecular dynamics
   Kantharuban Sivalingam : CASSCF convergence, NEVPT2
   Boris Wezisla          : Elementary symmetry handling
   Frank Wennmohs         : Technical directorship


 We gratefully acknowledge several colleagues who have allowed us to
 interface, adapt or use parts of their codes:
   Stefan Grimme, W. Hujo, H. Kruse, T. Risthaus : VdW corrections, initial TS optimization,
                                                   DFT functionals, gCP
   Ed Valeev                                     : LibInt (2-el integral package), F12 methods
   Garnet Chan, S. Sharma, R. Olivares           : DMRG
   Ulf Ekstrom                                   : XCFun DFT Library
   Mihaly Kallay                                 : mrcc  (arbitrary order and MRCC methods)
   Andreas Klamt, Michael Diedenhofen            : otool_cosmo (COSMO solvation model)
   Frank Weinhold                                : gennbo (NPA and NBO analysis)
   Christopher J. Cramer and Donald G. Truhlar   : smd solvation model


 Your calculation uses the libint2 library for the computation of 2-el integrals
 For citations please refer to: http://libint.valeyev.net

 This ORCA versions uses:
   CBLAS   interface :  Fast vector & matrix operations
   LAPACKE interface :  Fast linear algebra routines
   SCALAPACK package :  Parallel linear algebra routines


Your calculation utilizes the basis: ma-def2-TZVP
Cite in your paper:
        def2-TZVP: F. Weigend, R. Ahlrichs, Phys. Chem. Chem. Phys. 2005, 7, 3297.
        Minimal augmentation of diffuse functions: J. Zheng, X. Xu, D. G. Truhlar, Theor. Chem. Acc. 2011, 128, 295.

Your calculation utilizes the atom-pairwise dispersion correction
with the zero-damping scheme (D30)
Cite in your paper:
S.Grimme, J.Antony, S.Ehrlich and H.Krieg, J.Chem.Phys., 132, (2010), 154104 
   

XCFun DFT library Copyright 2009-2010 Ulf Ekstrom and contributors.
See http://admol.org/xcfun for more information. This is free soft-
ware; see the source code for copying conditions. There is ABSOLUTELY
NO WARRANTY; not even for MERCHANTABILITY or FITNESS FOR A PARTICULAR
PURPOSE. For details see the documentation. Scientific users of this 
library should cite U. Ekstrom, L. Visscher, R. Bast, A. J. Thorvald-
sen and K. Ruud; J.Chem.Theor.Comp. 2010, DOI: 10.1021/ct100117s
XCFun Version 0.99 
================================================================================
                                        WARNINGS
                       Please study these warnings very carefully!
================================================================================
Now building the actual basis set


INFO   : the flag for use of LIBINT has been found!

================================================================================
                                       INPUT FILE
================================================================================
NAME = 4_wb98x-ma-def2-TZVP-GasPhase_onBP86_2_waters.inp
|  1> ! wB97X-D3 MA-Def2-TZVP def2-TZVP/J RIJCOSX TightSCF Grid4 
|  2> 
|  3> %pal nprocs 1 end
|  4> 
|  5> %scf
|  6>         maxiter 400
|  7> end
|  8> 
|  9> * xyz  0  1
| 10> O  1.152646	0.055937	0.849348
| 11> H  0.558789	0.047918	0.062003
| 12> H  1.816728	0.726111	0.605901
| 13> O  -1.068887	-0.096147	-0.886074
| 14> H  -1.157299	-1.062779	-0.772597
| 15> H  -1.464183	0.248207	-0.060796
| 16> **                         ****END OF INPUT****
================================================================================

                       ****************************
                       * Single Point Calculation *
                       ****************************

---------------------------------
CARTESIAN COORDINATES (ANGSTROEM)
---------------------------------
  O      1.152646    0.055937    0.849348
  H      0.558789    0.047918    0.062003
  H      1.816728    0.726111    0.605901
  O     -1.068887   -0.096147   -0.886074
  H     -1.157299   -1.062779   -0.772597
  H     -1.464183    0.248207   -0.060796

----------------------------
CARTESIAN COORDINATES (A.U.)
----------------------------
  NO LB      ZA    FRAG    MASS        X           Y           Z
   0 O     8.0000    0    15.999          2.178185269359795          0.105705610753153          1.605035112393747
   1 H     1.0000    0     1.008          1.055958176647722          0.090551896885239          0.117168689481519
   2 H     1.0000    0     1.008          3.433118379826487          1.372150932827694          1.144986954269020
   3 O     8.0000    0    15.999         -2.019903698108685         -0.181691498598127         -1.674437194388139
   4 H     1.0000    0     1.008         -2.186978165060931         -2.008361250882694         -1.459996741889157
   5 H     1.0000    0     1.008         -2.766904879943220          0.469043254522192         -0.114887790037876

--------------------------------
INTERNAL COORDINATES (ANGSTROEM)
--------------------------------
 O      0   0   0   0.000000     0.000     0.000
 H      1   0   0   0.986226     0.000     0.000
 H      1   2   0   0.974374   102.505     0.000
 O      2   1   3   1.889162   156.937   214.535
 H      4   2   1   0.977277    95.457   287.564
 H      4   2   1   0.977713    84.139    29.456

---------------------------
INTERNAL COORDINATES (A.U.)
---------------------------
 O      0   0   0   0.000000     0.000     0.000
 H      1   0   0   1.863698     0.000     0.000
 H      1   2   0   1.841300   102.505     0.000
 O      2   1   3   3.569999   156.937   214.535
 H      4   2   1   1.846787    95.457   287.564
 H      4   2   1   1.847609    84.139    29.456

---------------------
BASIS SET INFORMATION
---------------------
There are 2 groups of distinct atoms

 Group   1 Type O   : 12s7p2d1f contracted to 6s4p2d1f pattern {621111/4111/11/1}
 Group   2 Type H   : 5s1p contracted to 3s1p pattern {311/1}

Atom   0O    basis set group =>   1
Atom   1H    basis set group =>   2
Atom   2H    basis set group =>   2
Atom   3O    basis set group =>   1
Atom   4H    basis set group =>   2
Atom   5H    basis set group =>   2
-------------------------------
AUXILIARY BASIS SET INFORMATION
-------------------------------
There are 2 groups of distinct atoms

 Group   1 Type O   : 12s5p4d2f1g contracted to 6s4p3d1f1g pattern {711111/2111/211/2/1}
 Group   2 Type H   : 5s2p1d contracted to 3s1p1d pattern {311/2/1}

Atom   0O    basis set group =>   1
Atom   1H    basis set group =>   2
Atom   2H    basis set group =>   2
Atom   3O    basis set group =>   1
Atom   4H    basis set group =>   2
Atom   5H    basis set group =>   2
------------------------------------------------------------------------------
                           ORCA GTO INTEGRAL CALCULATION
                           -- RI-GTO INTEGRALS CHOSEN --
------------------------------------------------------------------------------

                         BASIS SET STATISTICS AND STARTUP INFO

Gaussian basis set:
 # of primitive gaussian shells          ...   68
 # of primitive gaussian functions       ...  132
 # of contracted shells                  ...   42
 # of contracted basis functions         ...   94
 Highest angular momentum                ...    3
 Maximum contraction depth               ...    6
Auxiliary gaussian basis set:
 # of primitive gaussian shells          ...   80
 # of primitive gaussian functions       ...  204
 # of contracted shells                  ...   50
 # of contracted aux-basis functions     ...  142
 Highest angular momentum                ...    4
 Maximum contraction depth               ...    7
Ratio of auxiliary to basis functions    ...  1.51
Integral package used                  ... LIBINT
 One Electron integrals                  ... done
 Ordering auxiliary basis shells         ... done
 Integral threshhold             Thresh  ...  2.500e-11
 Primitive cut-off               TCut    ...  2.500e-12
 Pre-screening matrix                    ... done
 Shell pair data                         ... 
 Ordering of the shell pairs             ... done (   0.000 sec) 877 of 903 pairs
 Determination of significant pairs      ... done (   0.000 sec)
 Creation of shell pair data             ... done (   0.000 sec)
 Storage of shell pair data              ... done (   0.000 sec)
 Shell pair data done in (   0.001 sec)
 Computing two index integrals           ... done
 Cholesky decomposition of the V-matrix  ... done


Timings:
 Total evaluation time                   ...   0.112 sec (  0.002 min)
 One electron matrix time                ...   0.006 sec (  0.000 min) =  5.4%
 Schwartz matrix evaluation time         ...   0.090 sec (  0.001 min) = 80.2%
 Two index repulsion integral time       ...   0.001 sec (  0.000 min) =  0.5%
 Cholesky decomposition of V             ...   0.000 sec (  0.000 min) =  0.4%
 Three index repulsion integral time     ...   0.000 sec (  0.000 min) =  0.0%

-------------------------------------------------------------------------------
                                 ORCA SCF
-------------------------------------------------------------------------------

------------
SCF SETTINGS
------------
Hamiltonian:
 Density Functional     Method          .... DFT(GTOs)
 Exchange Functional    Exchange        .... WB97X-D3
 Correlation Functional Correlation     .... WB97X-D3
 Gradients option       PostSCFGGA      .... off
 Hybrid DFT is turned on
   Fraction HF Exchange ScalHFX         ....  0.195728
   Scaling of DF-GGA-X  ScalDFX         ....  0.000000
   Scaling of DF-GGA-C  ScalDFC         ....  1.000000
   Scaling of DF-LDA-C  ScalLDAC        ....  1.000000
   Perturbative correction              ....  0.000000
 Long-range corrected/Screened/Range-Separated Hybrid DFT is turned on
   Amount of maximum screened exact exchange              ....  0.804272
   Range separation parameter mu (erf(mu*r12)/r12)        ....  0.250000
 RI-approximation to the Coulomb term is turned on
   Number of auxiliary basis functions  .... 142
   RIJ-COSX (HFX calculated with COS-X)).... on


General Settings:
 Integral files         IntName         .... 4_wb98x-ma-def2-TZVP-GasPhase_onBP86_2_waters
 Hartree-Fock type      HFTyp           .... RHF
 Total Charge           Charge          ....    0
 Multiplicity           Mult            ....    1
 Number of Electrons    NEL             ....   20
 Basis Dimension        Dim             ....   94
 Nuclear Repulsion      ENuc            ....     37.2095934117 Eh

Convergence Acceleration:
 DIIS                   CNVDIIS         .... on
   Start iteration      DIISMaxIt       ....    12
   Startup error        DIISStart       ....  0.200000
   # of expansion vecs  DIISMaxEq       ....     5
   Bias factor          DIISBfac        ....   1.050
   Max. coefficient     DIISMaxC        ....  10.000
 Newton-Raphson         CNVNR           .... off
 SOSCF                  CNVSOSCF        .... on
   Start iteration      SOSCFMaxIt      ....   150
   Startup grad/error   SOSCFStart      ....  0.003300
 Level Shifting         CNVShift        .... on
   Level shift para.    LevelShift      ....    0.2500
   Turn off err/grad.   ShiftErr        ....    0.0010
 Zerner damping         CNVZerner       .... off
 Static damping         CNVDamp         .... on
   Fraction old density DampFac         ....    0.7000
   Max. Damping (<1)    DampMax         ....    0.9800
   Min. Damping (>=0)   DampMin         ....    0.0000
   Turn off err/grad.   DampErr         ....    0.1000
 Fernandez-Rico         CNVRico         .... off

SCF Procedure:
 Maximum # iterations   MaxIter         ....   400
 SCF integral mode      SCFMode         .... Direct
   Integral package                     .... LIBINT
 Reset frequeny         DirectResetFreq ....    20
 Integral Threshold     Thresh          ....  2.500e-11 Eh
 Primitive CutOff       TCut            ....  2.500e-12 Eh

Convergence Tolerance:
 Convergence Check Mode ConvCheckMode   .... Total+1el-Energy
 Energy Change          TolE            ....  1.000e-08 Eh
 1-El. energy change                    ....  1.000e-05 Eh
 Orbital Gradient       TolG            ....  1.000e-05
 Orbital Rotation angle TolX            ....  1.000e-05
 DIIS Error             TolErr          ....  5.000e-07


Diagonalization of the overlap matrix:
Smallest eigenvalue                        ... 2.749e-03
Time for diagonalization                   ...    0.002 sec
Threshold for overlap eigenvalues          ... 1.000e-08
Number of eigenvalues below threshold      ... 0
Time for construction of square roots      ...    0.000 sec
Total time needed                          ...    0.002 sec

-------------------
DFT GRID GENERATION
-------------------

General Integration Accuracy     IntAcc      ...  4.670
Radial Grid Type                 RadialGrid  ... Gauss-Chebyshev
Angular Grid (max. acc.)         AngularGrid ... Lebedev-302
Angular grid pruning method      GridPruning ... 3 (G Style)
Weight generation scheme         WeightScheme... Becke
Basis function cutoff            BFCut       ...    1.0000e-11
Integration weight cutoff        WCut        ...    1.0000e-14
Grids for H and He will be reduced by one unit

# of grid points (after initial pruning)     ...  26000 (   0.0 sec)
# of grid points (after weights+screening)   ...  25365 (   0.0 sec)
nearest neighbour list constructed           ...    0.0 sec
Grid point re-assignment to atoms done       ...    0.0 sec
Grid point division into batches done        ...    0.1 sec
Reduced shell lists constructed in    0.3 sec

Total number of grid points                  ...    25365
Total number of batches                      ...      399
Average number of points per batch           ...       63
Average number of grid points per atom       ...     4228
Average number of shells per batch           ...    31.11 (74.08%)
Average number of basis functions per batch  ...    67.81 (72.14%)
Average number of large shells per batch     ...    26.70 (85.81%)
Average number of large basis fcns per batch ...    57.20 (84.34%)
Maximum spatial batch extension              ...  15.52, 16.88, 17.99 au
Average spatial batch extension              ...   2.84,  2.93,  3.04 au

Time for grid setup =    0.284 sec

------------------------------
INITIAL GUESS: MODEL POTENTIAL
------------------------------
Loading Hartree-Fock densities                     ... done
Calculating cut-offs                               ... done
Setting up the integral package                    ... done
Initializing the effective Hamiltonian             ... done
Starting the Coulomb interaction                   ... done (   0.0 sec)
Reading the grid                                   ... done
Mapping shells                                     ... done
Starting the XC term evaluation                    ... done (   0.3 sec)
  promolecular density results
     # of electrons  =     19.997996080
     EX              =    -17.457248733
     EC              =     -0.638103433
     EX+EC           =    -18.095352166
Transforming the Hamiltonian                       ... done (   0.0 sec)
Diagonalizing the Hamiltonian                      ... done (   0.0 sec)
Back transforming the eigenvectors                 ... done (   0.0 sec)
Now organizing SCF variables                       ... done
                      ------------------
                      INITIAL GUESS DONE (   0.7 sec)
                      ------------------
--------------------
COSX GRID GENERATION
--------------------

General Integration Accuracy     IntAcc      ...  3.340
Radial Grid Type                 RadialGrid  ... Gauss-Chebyshev
Angular Grid (max. acc.)         AngularGrid ... Lebedev-50
Angular grid pruning method      GridPruning ... 3 (G Style)
Weight generation scheme         WeightScheme... Becke
Basis function cutoff            BFCut       ...    1.0000e-11
Integration weight cutoff        WCut        ...    1.0000e-14
Grids for H and He will be reduced by one unit

# of grid points (after initial pruning)     ...   2440 (   0.0 sec)
# of grid points (after weights+screening)   ...   2392 (   0.0 sec)
nearest neighbour list constructed           ...    0.0 sec
Grid point re-assignment to atoms done       ...    0.0 sec
Grid point division into batches done        ...    0.0 sec
Reduced shell lists constructed in    0.0 sec

Total number of grid points                  ...     2392
Total number of batches                      ...       41
Average number of points per batch           ...       58
Average number of grid points per atom       ...      399
Average number of shells per batch           ...    34.95 (83.22%)
Average number of basis functions per batch  ...    78.05 (83.03%)
Average number of large shells per batch     ...    30.81 (88.15%)
Average number of large basis fcns per batch ...    67.24 (86.15%)
Maximum spatial batch extension              ...  16.92, 17.20, 20.72 au
Average spatial batch extension              ...   6.11,  6.21,  6.62 au

Overlap Fitting                  UseSFitting ... on
Constructing numerical overlap ... done (      0.0 sec)
Inverting numerical overlap    ... done (      0.0 sec)
Obtaining analytic overlap     ... done (      0.0 sec)
Final contraction and storage  ... done (      0.0 sec)


General Integration Accuracy     IntAcc      ...  3.670
Radial Grid Type                 RadialGrid  ... Gauss-Chebyshev
Angular Grid (max. acc.)         AngularGrid ... Lebedev-50
Angular grid pruning method      GridPruning ... 3 (G Style)
Weight generation scheme         WeightScheme... Becke
Basis function cutoff            BFCut       ...    1.0000e-11
Integration weight cutoff        WCut        ...    1.0000e-14
Grids for H and He will be reduced by one unit

# of grid points (after initial pruning)     ...   3204 (   0.0 sec)
# of grid points (after weights+screening)   ...   3136 (   0.0 sec)
nearest neighbour list constructed           ...    0.0 sec
Grid point re-assignment to atoms done       ...    0.0 sec
Grid point division into batches done        ...    0.0 sec
Reduced shell lists constructed in    0.0 sec

Total number of grid points                  ...     3136
Total number of batches                      ...       52
Average number of points per batch           ...       60
Average number of grid points per atom       ...      523
Average number of shells per batch           ...    34.49 (82.12%)
Average number of basis functions per batch  ...    76.79 (81.69%)
Average number of large shells per batch     ...    30.19 (87.53%)
Average number of large basis fcns per batch ...    65.62 (85.45%)
Maximum spatial batch extension              ...  15.93, 19.28, 22.67 au
Average spatial batch extension              ...   5.33,  5.54,  6.24 au

Overlap Fitting                  UseSFitting ... on
Constructing numerical overlap ... done (      0.0 sec)
Inverting numerical overlap    ... done (      0.0 sec)
Obtaining analytic overlap     ... done (      0.0 sec)
Final contraction and storage  ... done (      0.0 sec)


General Integration Accuracy     IntAcc      ...  4.010
Radial Grid Type                 RadialGrid  ... Gauss-Chebyshev
Angular Grid (max. acc.)         AngularGrid ... Lebedev-110
Angular grid pruning method      GridPruning ... 3 (G Style)
Weight generation scheme         WeightScheme... Becke
Basis function cutoff            BFCut       ...    1.0000e-11
Integration weight cutoff        WCut        ...    1.0000e-14
Grids for H and He will be reduced by one unit

# of grid points (after initial pruning)     ...   5516 (   0.0 sec)
# of grid points (after weights+screening)   ...   5409 (   0.0 sec)
nearest neighbour list constructed           ...    0.0 sec
Grid point re-assignment to atoms done       ...    0.0 sec
Grid point division into batches done        ...    0.0 sec
Reduced shell lists constructed in    0.0 sec

Total number of grid points                  ...     5409
Total number of batches                      ...       87
Average number of points per batch           ...       62
Average number of grid points per atom       ...      902
Average number of shells per batch           ...    33.77 (80.41%)
Average number of basis functions per batch  ...    75.00 (79.79%)
Average number of large shells per batch     ...    29.33 (86.84%)
Average number of large basis fcns per batch ...    63.35 (84.47%)
Maximum spatial batch extension              ...  15.85, 19.83, 20.15 au
Average spatial batch extension              ...   4.49,  4.86,  5.07 au

Overlap Fitting                  UseSFitting ... on
Constructing numerical overlap ... done (      0.0 sec)
Inverting numerical overlap    ... done (      0.0 sec)
Obtaining analytic overlap     ... done (      0.0 sec)
Final contraction and storage  ... done (      0.0 sec)

Time for X-Grid setup             =    0.247 sec
--------------
SCF ITERATIONS
--------------
ITER       Energy         Delta-E        Max-DP      RMS-DP      [F,P]     Damp
               ***  Starting incremental Fock matrix formation  ***
  0   -152.7213924093   0.000000000000 0.04400462  0.00184633  0.3186281 0.7000
  1   -152.7969041932  -0.075511783915 0.02574980  0.00118832  0.1554373 0.7000
                               ***Turning on DIIS***
  2   -152.8278943925  -0.030990199337 0.03448556  0.00184198  0.0559061 0.0000
  3   -152.8762633405  -0.048368947985 0.01884316  0.00077734  0.0822455 0.0000
  4   -152.8862279244  -0.009964583893 0.00308890  0.00012378  0.0098520 0.0000
                      *** Initiating the SOSCF procedure ***
                           *** Shutting down DIIS ***
                      *** Re-Reading the Fockian *** 
                      *** Removing any level shift *** 
ITER      Energy       Delta-E        Grad      Rot      Max-DP    RMS-DP
  5   -152.88640520  -0.0001772733  0.000347  0.000347  0.000624  0.000030
               *** Restarting incremental Fock matrix formation ***
  6   -152.88641161  -0.0000064160  0.000171  0.000282  0.000339  0.000017
  7   -152.88641239  -0.0000007804  0.000145  0.000170  0.000188  0.000011
  8   -152.88641257  -0.0000001723  0.000050  0.000036  0.000052  0.000003
  9   -152.88641259  -0.0000000245  0.000005  0.000007  0.000008  0.000000
 10   -152.88641259   0.0000000008  0.000005  0.000005  0.000004  0.000000
                 **** Energy Check signals convergence ****
              ***Rediagonalizing the Fockian in SOSCF/NRSCF***

               *****************************************************
               *                     SUCCESS                       *
               *           SCF CONVERGED AFTER  11 CYCLES          *
               *****************************************************

Setting up the final grid:

General Integration Accuracy     IntAcc      ...  5.010
Radial Grid Type                 RadialGrid  ... Gauss-Chebyshev
Angular Grid (max. acc.)         AngularGrid ... Lebedev-434
Angular grid pruning method      GridPruning ... 3 (G Style)
Weight generation scheme         WeightScheme... Becke
Basis function cutoff            BFCut       ...    1.0000e-11
Integration weight cutoff        WCut        ...    1.0000e-14
Grids for H and He will be reduced by one unit

# of grid points (after initial pruning)     ...  48452 (   0.0 sec)
# of grid points (after weights+screening)   ...  47241 (   0.0 sec)
nearest neighbour list constructed           ...    0.0 sec
Grid point re-assignment to atoms done       ...    0.0 sec
Grid point division into batches done        ...    0.2 sec
Reduced shell lists constructed in    0.6 sec

Total number of grid points                  ...    47241
Total number of batches                      ...      741
Average number of points per batch           ...       63
Average number of grid points per atom       ...     7874
Average number of shells per batch           ...    30.38 (72.33%)
Average number of basis functions per batch  ...    65.98 (70.19%)
Average number of large shells per batch     ...    25.89 (85.23%)
Average number of large basis fcns per batch ...    55.37 (83.92%)
Maximum spatial batch extension              ...  15.26, 15.25, 16.91 au
Average spatial batch extension              ...   2.33,  2.33,  2.42 au

Final grid set up in    0.6 sec
Final integration                            ... done (   0.6 sec)
Change in XC energy                          ...    -0.000188571
Integrated number of electrons               ...    19.999999026
Previous integrated no of electrons          ...    19.999997079
Old exchange energy                            =     -5.654679650 Eh
New exchange energy                            =     -5.654501098 Eh
Exchange energy change after final integration =      0.000178553 Eh
Total energy after final integration           =   -152.886422609 Eh
Final COS-X integration done in                =     1.370 sec

----------------
TOTAL SCF ENERGY
----------------

Total Energy       :         -152.88642261 Eh           -4160.25106 eV

Components:
Nuclear Repulsion  :           37.20959341 Eh            1012.52451 eV
Electronic Energy  :         -190.09601602 Eh           -5172.77557 eV

One Electron Energy:         -283.77047490 Eh           -7721.78719 eV
Two Electron Energy:           93.67445888 Eh            2549.01162 eV

Virial components:
Potential Energy   :         -305.09340873 Eh           -8302.01372 eV
Kinetic Energy     :          152.20698612 Eh            4141.76266 eV
Virial Ratio       :            2.00446390


DFT components:
N(Alpha)           :        9.999999512810 electrons
N(Beta)            :        9.999999512810 electrons
N(Total)           :       19.999999025620 electrons
E(XC)              :      -12.958034030432 Eh       

---------------
SCF CONVERGENCE
---------------

  Last Energy change         ...   -1.1479e-09  Tolerance :   1.0000e-08
  Last MAX-Density change    ...    4.5082e-14  Tolerance :   1.0000e-07
  Last RMS-Density change    ...    7.0199e-16  Tolerance :   5.0000e-09
  Last Orbital Gradient      ...    3.6557e-07  Tolerance :   1.0000e-05
  Last Orbital Rotation      ...    4.8721e-07  Tolerance :   1.0000e-05

             **** THE GBW FILE WAS UPDATED (4_wb98x-ma-def2-TZVP-GasPhase_onBP86_2_waters.gbw) ****
             **** DENSITY FILE WAS UPDATED (4_wb98x-ma-def2-TZVP-GasPhase_onBP86_2_waters.scfp.tmp) ****
             **** ENERGY FILE WAS UPDATED (4_wb98x-ma-def2-TZVP-GasPhase_onBP86_2_waters.en.tmp) ****
----------------
ORBITAL ENERGIES
----------------

  NO   OCC          E(Eh)            E(eV) 
   0   2.0000     -19.267662      -524.2997 
   1   2.0000     -19.219612      -522.9922 
   2   2.0000      -1.154921       -31.4270 
   3   2.0000      -1.104639       -30.0588 
   4   2.0000      -0.651962       -17.7408 
   5   2.0000      -0.611660       -16.6441 
   6   2.0000      -0.525668       -14.3041 
   7   2.0000      -0.484505       -13.1841 
   8   2.0000      -0.438875       -11.9424 
   9   2.0000      -0.400633       -10.9018 
  10   0.0000       0.062491         1.7005 
  11   0.0000       0.106676         2.9028 
  12   0.0000       0.127201         3.4613 
  13   0.0000       0.140762         3.8303 
  14   0.0000       0.167557         4.5595 
  15   0.0000       0.184688         5.0256 
  16   0.0000       0.186051         5.0627 
  17   0.0000       0.215833         5.8731 
  18   0.0000       0.230893         6.2829 
  19   0.0000       0.262925         7.1545 
  20   0.0000       0.297273         8.0892 
  21   0.0000       0.300296         8.1715 
  22   0.0000       0.547742        14.9048 
  23   0.0000       0.563610        15.3366 
  24   0.0000       0.591666        16.1000 
  25   0.0000       0.636422        17.3179 
  26   0.0000       0.666894        18.1471 
  27   0.0000       0.675789        18.3891 
  28   0.0000       0.699941        19.0464 
  29   0.0000       0.713873        19.4255 
  30   0.0000       0.721891        19.6437 
  31   0.0000       0.733132        19.9495 
  32   0.0000       0.875719        23.8295 
  33   0.0000       0.910319        24.7710 
  34   0.0000       1.223769        33.3005 
  35   0.0000       1.245950        33.9040 
  36   0.0000       1.297217        35.2991 
  37   0.0000       1.356718        36.9182 
  38   0.0000       1.372543        37.3488 
  39   0.0000       1.422526        38.7089 
  40   0.0000       1.668670        45.4068 
  41   0.0000       1.762119        47.9497 
  42   0.0000       1.806608        49.1603 
  43   0.0000       1.827392        49.7259 
  44   0.0000       1.892093        51.4865 
  45   0.0000       1.982049        53.9343 
  46   0.0000       2.115300        57.5602 
  47   0.0000       2.188127        59.5420 
  48   0.0000       2.198751        59.8310 
  49   0.0000       2.266108        61.6639 
  50   0.0000       2.304703        62.7142 
  51   0.0000       2.393811        65.1389 
  52   0.0000       2.430564        66.1390 
  53   0.0000       2.485806        67.6422 
  54   0.0000       2.508543        68.2609 
  55   0.0000       2.566361        69.8342 
  56   0.0000       2.658005        72.3280 
  57   0.0000       2.696433        73.3737 
  58   0.0000       2.752405        74.8968 
  59   0.0000       2.769615        75.3651 
  60   0.0000       2.866850        78.0110 
  61   0.0000       2.913528        79.2811 
  62   0.0000       3.044710        82.8508 
  63   0.0000       3.106539        84.5332 
  64   0.0000       3.774560       102.7110 
  65   0.0000       3.835316       104.3642 
  66   0.0000       3.970745       108.0495 
  67   0.0000       4.026222       109.5591 
  68   0.0000       5.168119       140.6317 
  69   0.0000       5.212666       141.8438 
  70   0.0000       5.280067       143.6779 
  71   0.0000       5.323723       144.8659 
  72   0.0000       5.428636       147.7207 
  73   0.0000       5.462039       148.6296 
  74   0.0000       5.476097       149.0122 
  75   0.0000       5.488187       149.3412 
  76   0.0000       5.511834       149.9846 
  77   0.0000       5.542164       150.8100 
  78   0.0000       6.061581       164.9440 
  79   0.0000       6.078855       165.4140 
  80   0.0000       6.245796       169.9568 
  81   0.0000       6.349331       172.7741 
  82   0.0000       6.400832       174.1755 
  83   0.0000       6.411435       174.4640 
  84   0.0000       6.445999       175.4046 
  85   0.0000       6.486076       176.4951 
  86   0.0000       6.549978       178.2340 
  87   0.0000       6.565730       178.6626 
  88   0.0000       6.952535       189.1881 
  89   0.0000       6.996653       190.3886 
  90   0.0000       7.135550       194.1682 
  91   0.0000       7.175971       195.2681 
  92   0.0000      43.477561      1183.0846 
  93   0.0000      43.562288      1185.3901 

                    ********************************
                    * MULLIKEN POPULATION ANALYSIS *
                    ********************************

-----------------------
MULLIKEN ATOMIC CHARGES
-----------------------
   0 O :   -0.696137
   1 H :    0.332386
   2 H :    0.325428
   3 O :   -0.677001
   4 H :    0.358822
   5 H :    0.356502
Sum of atomic charges:   -0.0000000

--------------------------------
MULLIKEN REDUCED ORBITAL CHARGES
--------------------------------
  0 O s       :     3.835758  s :     3.835758
      pz      :     1.603990  p :     4.837913
      px      :     1.522014
      py      :     1.711909
      dz2     :     0.005350  d :     0.021269
      dxz     :     0.006738
      dyz     :     0.003419
      dx2y2   :     0.000920
      dxy     :     0.004841
      f0      :     0.000029  f :     0.001197
      f+1     :     0.000334
      f-1     :     0.000032
      f+2     :     0.000165
      f-2     :     0.000139
      f+3     :     0.000238
      f-3     :     0.000260
  1 H s       :     0.613540  s :     0.613540
      pz      :     0.020691  p :     0.054075
      px      :     0.020024
      py      :     0.013360
  2 H s       :     0.627409  s :     0.627409
      pz      :     0.013324  p :     0.047163
      px      :     0.016280
      py      :     0.017559
  3 O s       :     3.809183  s :     3.809183
      pz      :     1.620580  p :     4.843012
      px      :     1.841706
      py      :     1.380727
      dz2     :     0.007580  d :     0.023590
      dxz     :     0.005362
      dyz     :     0.003538
      dx2y2   :     0.005891
      dxy     :     0.001220
      f0      :     0.000018  f :     0.001214
      f+1     :     0.000295
      f-1     :     0.000249
      f+2     :     0.000047
      f-2     :     0.000134
      f+3     :     0.000077
      f-3     :     0.000395
  4 H s       :     0.596251  s :     0.596251
      pz      :     0.011997  p :     0.044927
      px      :     0.014694
      py      :     0.018237
  5 H s       :     0.598524  s :     0.598524
      pz      :     0.017941  p :     0.044975
      px      :     0.015418
      py      :     0.011615


                     *******************************
                     * LOEWDIN POPULATION ANALYSIS *
                     *******************************

----------------------
LOEWDIN ATOMIC CHARGES
----------------------
   0 O :   -0.410006
   1 H :    0.181205
   2 H :    0.186646
   3 O :   -0.358877
   4 H :    0.200010
   5 H :    0.201023

-------------------------------
LOEWDIN REDUCED ORBITAL CHARGES
-------------------------------
  0 O s       :     3.500753  s :     3.500753
      pz      :     1.645307  p :     4.875667
      px      :     1.523903
      py      :     1.706457
      dz2     :     0.006836  d :     0.031353
      dxz     :     0.011493
      dyz     :     0.002771
      dx2y2   :     0.001229
      dxy     :     0.009024
      f0      :     0.000143  f :     0.002234
      f+1     :     0.000724
      f-1     :     0.000090
      f+2     :     0.000348
      f-2     :     0.000250
      f+3     :     0.000340
      f-3     :     0.000340
  1 H s       :     0.647397  s :     0.647397
      pz      :     0.076916  p :     0.171398
      px      :     0.060072
      py      :     0.034410
  2 H s       :     0.658731  s :     0.658731
      pz      :     0.037895  p :     0.154624
      px      :     0.054561
      py      :     0.062169
  3 O s       :     3.496926  s :     3.496926
      pz      :     1.615366  p :     4.826303
      px      :     1.807279
      py      :     1.403658
      dz2     :     0.010396  d :     0.033417
      dxz     :     0.006655
      dyz     :     0.004758
      dx2y2   :     0.010193
      dxy     :     0.001414
      f0      :     0.000109  f :     0.002232
      f+1     :     0.000505
      f-1     :     0.000584
      f+2     :     0.000066
      f-2     :     0.000258
      f+3     :     0.000057
      f-3     :     0.000652
  4 H s       :     0.646883  s :     0.646883
      pz      :     0.033145  p :     0.153107
      px      :     0.040733
      py      :     0.079229
  5 H s       :     0.646030  s :     0.646030
      pz      :     0.072434  p :     0.152948
      px      :     0.049415
      py      :     0.031099


                      *****************************
                      * MAYER POPULATION ANALYSIS *
                      *****************************

  NA   - Mulliken gross atomic population
  ZA   - Total nuclear charge
  QA   - Mulliken gross atomic charge
  VA   - Mayer's total valence
  BVA  - Mayer's bonded valence
  FA   - Mayer's free valence

  ATOM       NA         ZA         QA         VA         BVA        FA
  0 O      8.6961     8.0000    -0.6961     1.7596     1.7596    -0.0000
  1 H      0.6676     1.0000     0.3324     0.9121     0.9121    -0.0000
  2 H      0.6746     1.0000     0.3254     0.9117     0.9117    -0.0000
  3 O      8.6770     8.0000    -0.6770     1.8211     1.8211    -0.0000
  4 H      0.6412     1.0000     0.3588     0.8910     0.8910    -0.0000
  5 H      0.6435     1.0000     0.3565     0.8937     0.8937     0.0000

  Mayer bond orders larger than 0.1
B(  0-O ,  1-H ) :   0.8601 B(  0-O ,  2-H ) :   0.9004 B(  3-O ,  4-H ) :   0.8877 
B(  3-O ,  5-H ) :   0.8875 

-------
TIMINGS
-------

Total SCF time: 0 days 0 hours 0 min 16 sec 

Total time                  ....      16.111 sec
Sum of individual times     ....      15.579 sec  ( 96.7%)

Fock matrix formation       ....      13.719 sec  ( 85.2%)
  Coulomb formation         ....       9.349 sec  ( 68.1% of F)
  Split-RI-J                ....       1.098 sec  (  8.0% of F)
  Chain of spheres X        ....       9.614 sec  ( 70.1% of F)
  COS-X 1 center corr.      ....       0.000 sec  (  0.0% of F)
  XC integration            ....       4.367 sec  ( 31.8% of F)
    Basis function eval.    ....       1.916 sec  ( 43.9% of XC)
    Density eval.           ....       0.384 sec  (  8.8% of XC)
    XC-Functional eval.     ....       1.201 sec  ( 27.5% of XC)
    XC-Potential eval.      ....       0.790 sec  ( 18.1% of XC)
Diagonalization             ....       0.011 sec  (  0.1%)
Density matrix formation    ....       0.001 sec  (  0.0%)
Population analysis         ....       0.003 sec  (  0.0%)
Initial guess               ....       0.664 sec  (  4.1%)
Orbital Transformation      ....       0.000 sec  (  0.0%)
Orbital Orthonormalization  ....       0.000 sec  (  0.0%)
DIIS solution               ....       0.002 sec  (  0.0%)
SOSCF solution              ....       0.014 sec  (  0.1%)
Grid generation             ....       1.164 sec  (  7.2%)

Entering the calculation of the dispersion correction...

Checking the input atom types...

Done


-------------------------------------------------------------------------------
                          DFT DISPERSION CORRECTION                            
                                                                               
                                DFTD3 V2.1  Rev 6                               
                              USING zero damping                               
-------------------------------------------------------------------------------
The omegaB97X-D3 functional is recognized. Fit by Chai et al.
Active option DFTDOPT                   ...         3   

molecular C6(AA) [au] = 178.155709 


            DFT-D V3
 parameters
 s6 scaling factor         :     1.0000 
 rs6 scaling factor        :     1.2810 
 s8 scaling factor         :     1.0000 
 rs8 scaling factor        :     1.0940 
 Damping factor alpha6     :    14.0000 
 Damping factor alpha8     :    16.0000 
 ad hoc parameters k1-k3   :    16.0000     1.3333    -4.0000 

 Edisp/kcal,au: -0.349424495409  -0.000556843319 
 E6   /kcal   :  -0.140290767 
 E8   /kcal   :  -0.209133729 
 % E8         :  59.850906718 

-------------------------   ----------------
Dispersion correction           -0.000556843
-------------------------   ----------------


-------------------------   --------------------
FINAL SINGLE POINT ENERGY      -152.886979452807
-------------------------   --------------------


                            ***************************************
                            *     ORCA property calculations      *
                            ***************************************

                                    ---------------------
                                    Active property flags
                                    ---------------------
   (+) Dipole Moment


------------------------------------------------------------------------------
                       ORCA ELECTRIC PROPERTIES CALCULATION
------------------------------------------------------------------------------

Dipole Moment Calculation                       ... on
Quadrupole Moment Calculation                   ... off
Polarizability Calculation                      ... off
GBWName                                         ... 4_wb98x-ma-def2-TZVP-GasPhase_onBP86_2_waters.gbw
Electron density file                           ... 4_wb98x-ma-def2-TZVP-GasPhase_onBP86_2_waters.scfp.tmp

-------------
DIPOLE MOMENT
-------------
                                X             Y             Z
Electronic contribution:     -0.10782      -0.02616      -0.10894
Nuclear contribution   :     -0.34417       0.03319      -0.07661
                        -----------------------------------------
Total Dipole Moment    :     -0.45199       0.00703      -0.18554
                        -----------------------------------------
Magnitude (a.u.)       :      0.48864
Magnitude (Debye)      :      1.24202


Timings for individual modules:

Sum of individual times         ...       16.932 sec (=   0.282 min)
GTO integral calculation        ...        0.136 sec (=   0.002 min)   0.8 %
SCF iterations                  ...       16.796 sec (=   0.280 min)  99.2 %
                             ****ORCA TERMINATED NORMALLY****
TOTAL RUN TIME: 0 days 0 hours 0 minutes 17 seconds 72 msec
cp: cannot stat ‘/scratch/slurm-2202313/*.{prop}’: No such file or directory
