53
Energy:  -1377.34627396
O    1.38160113   0.22761416   3.24038154
H    1.44785807   0.29529133   2.28787869
H    0.65845487  -0.38190803   3.38794179
O   -2.71710604  -2.72133419  -0.05921851
H   -3.18502772  -1.92248688   0.18393602
H   -1.81042257  -2.55660707   0.19966738
O   -3.77035698   0.71015632  -2.15300369
H   -3.13006776   1.37483455  -1.89910525
H   -3.24399914  -0.05849561  -2.37289795
O    0.49407784   1.93941429  -2.54940208
H    0.30171228   1.03918331  -2.28708257
H    1.03991825   2.28391507  -1.84257161
O    2.44678167   0.82835335  -4.17863969
H    2.50160188   0.00671857  -3.69064083
H    1.77732342   1.33580352  -3.71978043
O    2.28520969  -1.38556469  -2.53562149
H    1.40697854  -1.13026956  -2.25319222
H    2.79310879  -1.43412762  -1.72573754
O    1.77977572  -3.47060486   1.20981796
H    2.15108895  -3.01289365   1.96404523
H    0.99534533  -2.96926966   0.98718863
O    3.29911449  -1.49758551   0.06231003
H    2.81000270  -2.30104459   0.23966564
H    2.66574337  -0.79441110   0.20590194
O    3.27308361  -1.72312339   2.81995151
H    2.66540289  -1.02852311   3.07389335
H    3.48098989  -1.53718972   1.90429028
O   -0.49426873   3.85103062   0.82359218
H   -0.60768707   3.26154088   1.56915906
H   -1.03584918   3.47042906   0.13216979
O   -0.80364126   1.89697303   2.75708329
H    0.02655047   1.51312064   3.03934359
H   -1.02942876   1.41990112   1.95855073
O   -1.82333223   2.44706557  -1.16903757
H   -1.67910290   1.74544210  -0.53409328
H   -1.09047469   2.37203895  -1.78020259
O   -3.76819316  -0.22575442   0.42626575
H   -3.96915885   0.08433199  -0.45673541
H   -2.86405381   0.04978340   0.57740406
O   -0.85384824  -1.32748973   3.26700727
H   -0.67711015  -1.67852024   2.39421115
H   -1.45448134  -0.59783199   3.11511485
O   -2.24911136  -1.53848968  -2.50015028
H   -1.39870685  -1.16219718  -2.27332882
H   -2.47518387  -2.08966213  -1.75092935
O    1.76636195   2.71729964  -0.25482553
H    1.70530184   1.82174012   0.07755474
H    1.04567880   3.18114427   0.17143239
S   -0.04576699  -0.38922110   0.07754670
O   -0.02472206  -0.45206304  -1.41097874
O    1.24474708   0.17007680   0.56933860
O   -1.16747050   0.48507839   0.52193580
O   -0.23562251  -1.75997655   0.62989116
