53
Energy:  -1387.04202099
O    0.12203010  -1.23283354   3.12890461
H   -0.39793071  -0.78281746   2.46305317
H    0.74270400  -1.76410406   2.63015879
O   -3.59082454  -0.99181768   1.28397338
H   -2.76771637  -0.50425002   1.31563677
H   -3.66921769  -1.27138819   0.37187322
O   -3.17761656  -1.74014580  -1.33062174
H   -2.57145556  -1.01063465  -1.45951774
H   -2.63329236  -2.44550326  -0.98074482
O    2.06969279   1.88938536  -3.22271264
H    1.54604756   2.44991790  -2.65014754
H    2.53170000   1.30110319  -2.62546456
O    0.09454988   0.02773585  -3.73516797
H   -0.46308175   0.09274115  -2.95989181
H    0.73379993   0.73249991  -3.63077046
O    1.65652350  -1.87816730  -2.52967065
H    1.16510175  -1.92627234  -1.70965698
H    1.12222750  -1.32281496  -3.09742361
O    1.94666600  -2.48270434   1.54695601
H    2.68179430  -1.87654941   1.45533485
H    1.35593850  -2.25371222   0.82943565
O    3.04796278   0.13967064  -1.33274877
H    2.72449868  -0.64397887  -1.77715430
H    2.28868682   0.47641537  -0.85700215
O    3.79136219  -0.46354943   1.27315095
H    3.18297002   0.11396146   1.73420625
H    3.64050248  -0.27998252   0.34590967
O   -0.77139571   2.25082771   2.61505490
H   -1.08159029   1.48331335   2.13450013
H    0.16555419   2.09619807   2.73524816
O    1.74860529   0.99179156   2.44886142
H    1.24655670   0.26525005   2.81807206
H    1.44710680   1.05578865   1.54264132
O   -2.15314072   2.68523821  -1.80759926
H   -2.16635671   3.04886117  -0.92225440
H   -1.93444059   1.76153404  -1.68442169
O   -1.28878900   3.98029880   0.55210621
H   -0.53209189   3.82461591  -0.01305233
H   -1.14828947   3.40600294   1.30488505
O   -2.12855732  -2.89422346   2.60666083
H   -1.35796811  -2.39874080   2.88400727
H   -2.70589519  -2.23981610   2.21338761
O   -1.52282405  -3.52750373  -0.02397740
H   -0.82437314  -2.88988470  -0.17176153
H   -1.73692698  -3.43800878   0.90466808
O    0.49263991   3.18685325  -1.40445531
H    0.67754570   2.40060185  -0.89079158
H   -0.38143146   3.03787412  -1.76506078
S   -0.31618647  -0.09177070  -0.13403912
O    0.81230774   0.88028376  -0.09267572
O    0.22396666  -1.47490326  -0.25764704
O   -1.11392636   0.01970672   1.11946950
O   -1.18709395   0.20782998  -1.30530324
