49
Energy:  -1899.19681856
O    0.57587036  -1.85326178  -0.12747546
H   -0.18338209  -2.42639702  -0.23369960
H    1.16411946  -2.09942435  -0.84133737
O    0.00809200  -0.57101281  -3.44793164
H   -0.85808356  -0.94903226  -3.29603350
H   -0.01034558  -0.28850301  -4.36230581
O    1.59382195  -0.71682202   2.43620366
H    1.27945955  -1.22324482   3.18516566
H    2.51385182  -0.54176656   2.63402293
O   -1.71201692  -3.26758347  -0.58213095
H   -2.29671703  -2.94057783   0.10155389
H   -1.81600619  -4.21864622  -0.55216891
O    1.22009212   1.96189318   1.31358693
H    1.91109022   2.36255223   1.84105806
H    0.77951009   2.70083607   0.89396479
O    2.26155447  -1.78596429  -2.27143922
H    1.61699681  -1.45305109  -2.89589584
H    2.80238383  -2.38790082  -2.78271984
O    2.81827673  -0.06074381  -0.09044698
H    3.08253076  -0.51129002  -0.89257526
H    3.61956801  -0.00845145   0.43054211
O   -1.04334419   0.08278663   1.34708909
H   -1.67242278  -0.62887237   1.46555197
H   -1.58402829   0.86149147   1.21475877
O   -3.90336433  -0.01951735  -0.82302010
H   -3.44437158  -0.45630311  -1.54049882
H   -4.79751682   0.09533390  -1.14478456
O   -3.09775016  -1.73305151   1.21430487
H   -3.57237532  -1.17952457   0.59416719
H   -3.75765044  -1.99435373   1.85655452
O    3.38793712   2.87982861   2.78928994
H    3.95480415   3.55286153   2.41256682
H    3.25569551   3.15730272   3.69579538
O   -2.44985826  -1.57346879  -2.64266461
H   -2.22389770  -2.27744406  -2.03472342
H   -2.96839101  -2.00178367  -3.32376813
O    4.16463651   0.22909593   2.36575628
H    5.00069807  -0.06494695   2.72737999
H    4.10998746   1.15340588   2.60844219
O    0.24609748   0.84541981  -1.13766596
H    0.14921621   0.47655049  -2.01560747
H    0.00900593   1.76743138  -1.23723557
O   -0.42071385   3.41104877  -0.38649386
H   -1.31999733   3.21001671  -0.12744331
H   -0.46516156   4.30055031  -0.73726909
O   -2.69333708   2.10556195   0.53870353
H   -3.19062391   1.50521232  -0.01674042
H   -3.35956307   2.57976753   1.03620111
Ca   0.89518034   0.03374810   0.64381541
