49
Energy:  -1900.38468757
O    1.58532717  -4.20970107   1.47812232
H    2.34752787  -4.48482692   1.98761983
H    1.27635779  -5.01156033   1.05646905
O   -5.28222025   1.06474037  -0.87376885
H   -5.95951129   1.05671562  -1.55011513
H   -5.76625671   1.12426921  -0.05012033
O   -2.86153450   2.37898006  -1.31188805
H   -3.05425489   3.30309082  -1.47034940
H   -3.71190060   1.98718366  -1.11287815
O    0.65093697  -0.19943866   2.20799539
H    0.84805574   0.43885813   2.89352675
H    0.35192951  -0.97565488   2.68161419
O   -3.26050160  -0.85767352  -1.16845495
H   -2.98113142  -0.59529544  -2.04557632
H   -4.07931117  -0.38300718  -1.02536549
O    1.10255785   3.16072038   1.49877452
H    1.23846149   4.10821207   1.50341699
H    1.16728419   2.90448242   2.41876607
O   -1.96434180   0.55715238  -3.21695565
H   -2.30364123   1.31937673  -2.74778428
H   -2.21733913   0.70413955  -4.12833865
O   -0.36254424  -2.69640182   2.78591414
H   -0.80896018  -3.10939445   3.52509053
H    0.26343371  -3.35513028   2.48514801
O    2.76695564  -1.39366665  -2.49710642
H    3.10760984  -1.93550329  -3.20886453
H    3.41636451  -0.69821255  -2.39297398
O    1.69881635  -1.85132018   0.01278761
H    2.21059390  -1.97995505  -0.78581659
H    1.73978826  -2.69523951   0.46262459
O    4.27494526   0.83226105  -1.72967195
H    5.14398547   0.65847371  -1.36801061
H    4.42304611   1.49896648  -2.40034464
O    2.10173892   1.04406901  -0.00492032
H    2.08525488   1.90327990   0.41664434
H    2.89068848   1.05770401  -0.54677318
O    1.20073002   1.87877318   3.96976828
H    2.03038749   1.88568852   4.44710726
H    0.54625949   2.12758632   4.62244905
O   -1.16021064  -1.43578632   0.37191575
H   -1.98766665  -1.37336942  -0.10521371
H   -1.34166256  -2.04391379   1.08849654
O    0.28576169  -0.23297648  -1.90022149
H   -0.43133435   0.00570533  -2.48761923
H    0.95451576  -0.60354246  -2.47613875
O   -0.72955950   1.48837230   0.23149508
H   -0.37355792   2.27256143   0.64927748
H   -1.50165154   1.79816889  -0.24193053
Ca   0.45593214  -0.20335478   0.14891964
