49
Energy:  -1900.44318307
O   -2.60980246   2.24398375   2.06382922
H   -3.31173871   1.62508032   1.86264299
H   -2.88684397   2.66479233   2.87770881
O   -3.05576107   2.85143186  -0.66999017
H   -2.89352431   3.04158555   0.25399720
H   -3.44129226   3.65611793  -1.01651272
O    2.27215326   1.97296926   1.75852094
H    2.49347055   2.90114784   1.83425092
H    2.80759007   1.54338063   2.42559882
O    3.07674162  -1.45646995   1.93871979
H    3.35501085  -0.80800659   2.58547581
H    3.77458460  -2.11163777   1.94018610
O   -0.93248520   1.32093436  -1.46813187
H   -0.72881832   1.40645717  -2.39949512
H   -1.65587849   1.93090437  -1.32366530
O    0.66500437  -1.74624484   0.77342623
H    1.51163047  -1.70106299   1.21773996
H    0.39832026  -2.66167690   0.85766150
O   -0.24349899  -4.37812519   0.76408105
H    0.38376550  -5.06977676   0.55339360
H   -0.70950810  -4.70326864   1.53437261
O   -4.23403862   0.56010777   0.50980475
H   -5.16770634   0.35508909   0.55944130
H   -4.18176597   1.29439030  -0.10201924
O    1.75414025   0.59661088  -0.62469435
H    2.21734139   1.06882597   0.06717953
H    2.25222807   0.78644610  -1.41974338
O   -0.28375566   0.99600436   1.35852806
H    0.47841794   1.44143020   1.72855383
H   -1.03541389   1.45501896   1.73342450
O    2.90014637   1.15046696  -3.10200935
H    3.55619032   0.54525167  -3.44777319
H    3.25804726   2.02007053  -3.28069464
O    0.01066064  -1.32442714  -2.03096023
H   -0.48503941  -2.13260520  -2.16272341
H    0.06600751  -0.93207492  -2.90229731
O    0.26274187   0.69745615  -3.91502751
H    1.19146797   0.91820675  -3.84453746
H    0.05331320   0.83302619  -4.83914451
O    3.79541564   0.62139097   3.64044288
H    4.73029603   0.81967467   3.69442517
H    3.50994940   0.56061847   4.55206099
O   -2.02390022  -0.95393310  -0.02258072
H   -2.86363096  -0.54326272   0.18341439
H   -2.25753808  -1.80396410  -0.39553178
O   -1.76768640  -3.37057532  -1.33724851
H   -2.33849424  -3.97922734  -1.80623996
H   -1.32554003  -3.91180303  -0.68317588
Ca  -0.12965995  -0.19340732  -0.31167629
