49
Energy:  -1904.31454038
O   -2.68206326  -3.03635777   0.82182837
H   -2.93021017  -3.02029483  -0.10250758
H   -3.21431407  -3.73571972   1.20108261
O    1.58723478  -0.24957432  -0.81636995
H    1.68691452  -0.52378738  -1.72801845
H    2.28575759   0.39062789  -0.68058020
O    2.50240008   1.76768125   2.61555650
H    1.74247816   2.25615253   2.93201557
H    3.18132225   1.92917532   3.27070244
O   -2.60529732  -2.57752014  -1.95076174
H   -3.29572657  -2.77361154  -2.58407639
H   -1.82512081  -3.00257686  -2.30696849
O   -0.09576955   1.61869727   0.61068603
H    0.15964978   2.24382659  -0.06769893
H   -0.16499936   2.14435410   1.40763268
O    0.08856925  -3.26137990  -2.43626950
H    0.54024640  -2.58722525  -2.94394569
H    0.40109074  -4.08817479  -2.80365536
O    1.22680992  -0.56959137   2.02910577
H    1.58706970  -1.32471715   2.49411092
H    1.74847311   0.17217580   2.33550556
O   -0.09671272   2.75042931   3.09020865
H   -0.22753789   3.64749905   3.39742598
H   -0.79026421   2.24714157   3.51672903
O   -0.27044284   1.26967375  -3.26438460
H   -0.72060246   1.69493608  -3.99427508
H    0.17687082   1.98339690  -2.80969614
O   -2.17478408   1.03296196   3.87515632
H   -3.02629490   1.47018101   3.87598769
H   -2.09898520   0.65351817   4.75066120
O    0.95954815   3.03967010  -1.47315037
H    0.96461802   3.97755271  -1.66441547
H    1.84632489   2.85277977  -1.16504182
O    1.36990589  -0.99187211  -3.43568115
H    1.99817823  -1.05096134  -4.15541317
H    0.83231892  -0.22899891  -3.64841707
O    3.15376864   1.90441202  -0.13326583
H    4.07702078   2.08249060  -0.31250127
H    3.07168062   1.99551029   0.81604683
O   -0.06097955  -2.47610077   0.19035372
H    0.14604774  -2.89075377  -0.64716311
H   -0.82367183  -2.95574618   0.51357594
O   -1.27218446  -0.29502757  -1.24617320
H   -1.10990367   0.26595342  -2.00459071
H   -1.86171957  -0.97494704  -1.57234757
O   -1.67134131  -0.59657713   1.67967165
H   -1.95026427  -0.10696138   2.45343533
H   -2.29032473  -1.32427632   1.62012962
Ca  -0.05889452  -0.43081396   0.41093028
