49
Energy:  -1900.24603837
O   -3.42948639  -0.20430667  -2.23519860
H   -3.98510014  -0.61669867  -2.89660471
H   -3.96457394  -0.19923915  -1.44154408
O    0.53984385  -1.87204219   0.73683897
H    1.04573740  -2.60562044   0.38731571
H    0.16497474  -2.20576633   1.55190535
O    0.57878911   0.00087545   4.49322095
H    0.09548621   0.57544255   5.08695726
H    1.32317286  -0.30705095   5.01023740
O    1.90454740   0.20607612  -0.78824638
H    2.42926585  -0.43861027  -1.26288503
H    2.53700776   0.86310971  -0.49750146
O   -2.87088822   2.43740292  -1.52046785
H   -3.09145984   1.68111207  -2.06416276
H   -3.20908661   3.18934262  -2.00671921
O    3.16854698  -1.89344201  -2.00194027
H    4.04288391  -2.04423911  -2.36114359
H    2.99149594  -2.66804301  -1.46820057
O    0.95740598   0.78791301   1.85152464
H    0.88036879   0.60463014   2.78784964
H    1.72452006   1.35600092   1.78050373
O   -0.40753600   1.98158038  -0.43583233
H    0.12049451   2.77989020  -0.44665168
H   -1.24025297   2.23925627  -0.83132878
O   -0.81531288  -0.66718611  -1.57530025
H   -0.36225135  -1.17958332  -2.24493911
H   -1.71630370  -0.60187945  -1.89181632
O   -0.90510549  -1.91858662   3.11055944
H   -0.44765373  -1.38279994   3.75855818
H   -1.34134800  -2.59748667   3.62535945
O    1.28109706   4.18978903  -0.40801338
H    1.54321985   4.56544644  -1.24849241
H    1.04436228   4.94572476   0.12934094
O    0.70734129  -2.09640837  -3.26148211
H    1.64542265  -2.05746441  -3.07515288
H    0.65545013  -2.38406103  -4.17296173
O    2.98130165   2.28935444   0.69518244
H    2.56871604   3.08143214   0.35077298
H    3.86727583   2.56372964   0.93182529
O    2.07585616  -3.88768052  -0.39027632
H    2.63636291  -4.45126031   0.14305457
H    1.59250309  -4.49296235  -0.95262458
O   -4.17333096   0.72603971   0.34062125
H   -3.99900141   1.57016908  -0.07565590
H   -5.01921098   0.84200454   0.77336945
O   -1.71628568  -0.13335179   1.14954794
H   -2.61829864   0.13569356   0.97571165
H   -1.78197199  -0.72108749   1.90219919
Ca   0.06575434   0.04998691   0.12784607
