49
Energy:  -1899.54162037
O   -0.92178559  -3.83934159   0.19646728
H   -1.29855489  -3.96307694  -0.67471945
H   -0.96366057  -4.70570281   0.60130870
O    0.60560242   1.98548548  -3.83146774
H    0.81467022   2.91393677  -3.93394069
H    0.96000789   1.57141521  -4.61834411
O    0.62015321   0.58255902   1.50961984
H    0.37215335   1.25005578   2.14928850
H    1.41275332   0.18617807   1.87141959
O   -1.63785309  -1.20784345   0.95718191
H   -1.73715310  -2.15848688   1.00864473
H   -2.32343657  -0.86359845   1.52963499
O   -1.53066525   1.41756662  -0.32984054
H   -1.91660795   1.68540704  -1.16383191
H   -1.98661149   1.94503505   0.32599627
O    0.96951830  -1.83962064  -0.00521433
H    0.57122550  -2.70660143   0.07185062
H    1.70239010  -1.85663170   0.61028660
O    3.58140938   1.31166998  -0.43323175
H    4.09296907   2.08575493  -0.66845724
H    4.20515762   0.73790876   0.01170425
O    2.74730209  -1.16275850   1.99620624
H    2.89521353  -1.65405400   2.80427975
H    3.62443376  -0.92341858   1.69689321
O   -1.14164257  -0.98883976  -1.88891532
H   -1.42484984  -1.86309201  -2.15669975
H   -1.57047510  -0.39764819  -2.50764550
O   -3.41950068   0.11211231   2.46741460
H   -3.36141751   1.05984479   2.34633066
H   -4.21990394  -0.01618191   2.97645984
O   -0.26012229   2.51268173   3.30969423
H    0.25829326   3.30875059   3.42696118
H   -0.44592366   2.21398076   4.19991186
O   -1.90134334  -3.61185967  -2.40446909
H   -1.44257506  -4.10932273  -3.08144326
H   -2.82533297  -3.82538371  -2.53440175
O    5.22259023  -0.40974795   1.01097939
H    5.74525180  -1.03461556   0.50838890
H    5.84850440   0.00253056   1.60636979
O    1.10885028   0.77912783  -1.37049738
H    2.00170249   0.98125583  -1.09087078
H    1.02776727   1.19092687  -2.23077579
O   -1.99953140   1.34626852  -3.08390862
H   -2.71229269   1.62115571  -3.66065832
H   -1.20682720   1.67276646  -3.50964444
O   -2.61246426   2.70327952   1.82694699
H   -1.86654071   2.79714399   2.41941586
H   -3.11659564   3.50814692   1.94641194
Ca  -0.26314231  -0.19880468  -0.18861346
