7
Energy:   -448.16963493
O    1.18132333  -0.08838733   1.26824089
H    0.45948842  -0.02214415   1.89337931
H    1.96463107   0.09938890   1.78534912
O   -1.11785553   0.00016566  -1.32570680
H   -1.68427968   0.51850145  -0.75410945
H   -1.47002398   0.14125507  -2.20451452
Ca   0.71297024  -0.67748985  -0.71206735
