7
Energy:   -439.58917430
O   -0.76211799   0.20398411  -1.44681215
H   -0.50338369   0.63366283  -2.26208180
H   -1.45570421  -0.40303026  -1.70508246
O    0.75634193  -0.31129172   1.41462605
H    0.49799702  -0.94348345   2.08531478
H    1.67200731  -0.11349996   1.61126578
Ca  -0.22784297   1.11927560   0.36135345
