7
Energy:   -444.64005632
O   -1.08273069   1.04037947  -0.98142030
H   -1.53293602   1.03899906  -1.82613629
H   -1.77398686   1.20975852  -0.34133633
O    1.18207803  -0.91345522   0.95784659
H    1.82157688  -0.59989085   1.59733894
H    0.78065904  -1.67624513   1.37407513
Ca   0.62163602  -0.19046969  -0.86574367
