7
Energy:   -449.06077365
O    1.77817031  -0.53182762  -0.12075077
H    2.29038895  -1.11619910  -0.67965495
H    2.23433538   0.30824209  -0.17002714
O   -1.74808677   0.45076751   0.11793188
H   -2.45348372   0.42144371   0.76429641
H   -2.01681375   1.13070633  -0.49988755
Ca  -0.11385913  -0.69809183   0.66511133
