90
Energy:   -417.32292111
C    0.81983641  -2.09640168  -4.89161081
H    1.27375271  -2.16746721  -5.85794919
H    1.06535357  -2.96529081  -4.31745743
H    1.18272245  -1.22346274  -4.39042181
C   -0.70911229  -1.99994899  -5.04849535
N   -1.84748409  -1.92813557  -5.16530303
C    1.28383113   2.46848559  -3.54727800
H    1.64000889   3.34783798  -4.04202739
H    1.01328629   2.71039951  -2.54070846
H    0.42774750   2.08968859  -4.06547945
C    2.39270621   1.39988289  -3.53809367
N    3.21831410   0.60425962  -3.53125553
C   -2.59225486  -2.80112403  -1.70451231
H   -3.27981751  -3.50044722  -1.27660478
H   -2.97000557  -2.45988358  -2.64565972
H   -2.47411271  -1.96751286  -1.04418364
C   -1.22903391  -3.48553070  -1.91621059
N   -0.21405395  -3.99510258  -2.07382958
C   -2.97941669   1.05850817  -4.22257131
H   -1.92767154   0.86322373  -4.24699111
H   -3.15471970   2.09414008  -4.42661660
H   -3.47035864   0.46117539  -4.96221220
C   -3.53424976   0.70874803  -2.82921991
N   -3.94734820   0.44833571  -1.79180646
C    2.54617341  -2.11350590  -1.43064174
H    2.05331463  -1.51345070  -2.16679672
H    2.31070962  -3.14428720  -1.59479350
H    3.60421964  -1.97295604  -1.50602745
C    2.07161700  -1.69586828  -0.02637146
N    1.71828817  -1.38491809   1.01917160
C    4.68308968   0.72066369  -0.18627971
H    5.50370781   1.34538743   0.09868754
H    4.85475260   0.33228969  -1.16841848
H    4.59397275  -0.08942430   0.50705622
C    3.38320620   1.54641938  -0.18075930
N    2.41538386   2.16123203  -0.17664911
C    1.00480098   5.17260714  -0.23982041
H    0.76813410   4.75771586  -1.19729323
H    2.01748767   4.93530163   0.01127887
H    0.88500922   6.23538835  -0.27214903
C    0.06032144   4.58167146   0.82336040
N   -0.64288651   4.14169299   1.61494683
C   -4.43854931  -0.84140680   1.26551380
H   -4.64598285  -1.48112086   2.09776222
H   -3.38631923  -0.83864653   1.07134036
H   -4.95962513  -1.19910729   0.40213124
C   -4.90446598   0.59015435   1.58978887
N   -5.25136212   1.65601670   1.83122640
C    1.36487071   1.41252310   3.13898345
H    1.18639801   2.22232659   2.46276900
H    1.02632275   1.68347246   4.11718118
H    0.83394914   0.54555480   2.80523604
C    2.87312684   1.10483262   3.18470011
N    3.99609209   0.87574308   3.21873824
C   -2.95802905   3.24483494   3.93774167
H   -2.15832771   3.95567938   3.94658011
H   -3.45070767   3.25041534   4.88754993
H   -3.65795942   3.50491268   3.17135003
C   -2.39253476   1.83939868   3.66103762
N   -1.97149856   0.79298750   3.45501887
C   -0.26955763  -2.22097900   3.80471327
H   -0.19343398  -3.10377595   4.40452567
H   -0.81011185  -1.47010201   4.34219254
H    0.71121946  -1.85948073   3.57603361
C   -1.01271194  -2.55140074   2.49698886
N   -1.56602411  -2.79741474   1.52332859
C   -0.90308408   0.76690912   0.23551495
H   -0.75223060  -0.01453932   0.95069447
H   -1.92747255   1.07536858   0.25501159
H   -0.27543466   1.59874602   0.47841958
C   -0.54919205   0.25043545  -1.17147310
N   -0.28570334  -0.13410267  -2.21903966
C   -3.61100383   3.68011475  -0.29309624
H   -3.21541946   3.38853229   0.65737357
H   -4.38764997   3.00206178  -0.57938984
H   -4.00965050   4.67072873  -0.22480378
C   -2.48880451   3.64992128  -1.34730545
N   -1.65327612   3.62744087  -2.13221212
C    4.40562847  -2.45190465   3.39246225
H    4.48368139  -3.32631938   4.00418671
H    3.41479453  -2.05426980   3.46341105
H    5.10910527  -1.71845929   3.72724186
C    4.70687061  -2.82131173   1.92808813
N    4.93115907  -3.09635209   0.83779503
C    1.43729935  -5.08412934   0.78694346
H    2.32967702  -4.91085628   0.22255112
H    0.67902957  -4.39651769   0.47530864
H    1.09984706  -6.08603368   0.62198059
C    1.72996378  -4.88116614   2.28519360
N    1.94786575  -4.73005081   3.40070892
