90
Energy:   -421.04707052
C   -0.62588999  -4.27985461  -3.51980115
H   -1.21958846  -3.70819009  -4.20216614
H   -0.10635177  -5.04690636  -4.05516152
H    0.08252620  -3.63797585  -3.03913780
C   -1.53874605  -4.92246977  -2.45898092
N   -2.21840888  -5.40092597  -1.66915203
C    3.94574560   2.90579227   0.00807368
H    4.05525630   3.87598134   0.44584159
H    4.81187113   2.31644030   0.22576592
H    3.07816898   2.42778614   0.41269702
C    3.79022024   3.04564326  -1.51765682
N    3.67442454   3.14976869  -2.65363253
C    0.03727809   0.35123157   1.37488088
H    0.67176726   1.20820157   1.46390950
H    0.62334275  -0.49885289   1.09419654
H   -0.43957068   0.16141696   2.31375508
C   -1.03310317   0.61451317   0.29944295
N   -1.83005068   0.81053828  -0.50126948
C    0.32579744  -0.53582259  -3.09668657
H    0.80876487  -1.23749207  -3.74422235
H   -0.01156968   0.30340373  -3.66833482
H   -0.51148213  -1.00487006  -2.62355182
C    1.32130026  -0.05872301  -2.02293143
N    2.06249737   0.29649931  -1.22347191
C    3.17793477  -2.97783423  -0.14312835
H    2.50787136  -2.25973201   0.28142366
H    4.18766430  -2.68283466   0.05262818
H    2.99569357  -3.93751315   0.29356790
C    2.95136015  -3.05472338  -1.66442779
N    2.78266505  -3.11197084  -2.79710438
C    0.48162680   3.93677184   3.62769520
H    0.95015245   3.94601527   4.58961956
H    0.14349427   4.92279074   3.38617458
H    1.18590357   3.61080635   2.89105430
C   -0.71967602   2.97348300   3.65106464
N   -1.61410058   2.25627067   3.66846425
C   -4.21670552   1.49313373  -3.01578877
H   -3.15918262   1.37423702  -2.90439278
H   -4.43033573   2.48532133  -3.35464715
H   -4.58180573   0.78571074  -3.73073886
C   -4.90581002   1.25440753  -1.65941684
N   -5.41887964   1.07666502  -0.64953629
C    0.05489864   3.32448232  -2.39579773
H   -0.23048707   4.24930484  -2.85204163
H   -0.73186697   2.60943115  -2.51663138
H    0.94546883   2.95697790  -2.86133433
C    0.31624022   3.55150046  -0.89521006
N    0.51082090   3.72052579   0.22204567
C    4.03420634  -0.19677061   2.08696744
H    3.62094629  -0.16583163   1.10047918
H    4.06323443  -1.20991339   2.42989334
H    5.02666222   0.20280736   2.07060060
C    3.15881702   0.64177653   3.03677385
N    2.50704987   1.26611299   3.74394790
C   -3.24824615   3.76637700   0.83344853
H   -3.23804509   4.65195140   1.43391011
H   -2.42365535   3.14126106   1.10580705
H   -4.16466079   3.23764894   0.99322945
C   -3.13077018   4.15248538  -0.65272768
N   -3.04330398   4.43996061  -1.75925342
C   -4.17226777   0.34893601   2.45147883
H   -4.16612848   0.99377378   3.30532117
H   -5.16274651  -0.02349681   2.29290792
H   -3.85471558   0.89643875   1.58875033
C   -3.21259083  -0.83112022   2.69249223
N   -2.49806773  -1.70972573   2.87193767
C    4.82225882  -0.16760720  -3.44207909
H    5.53614670  -0.68147375  -4.05134541
H    4.75562643   0.85345540  -3.75495349
H    3.86499571  -0.63484178  -3.54326337
C    5.26843888  -0.22512194  -1.96925343
N    5.60064021  -0.26794428  -0.87266779
C   -3.70607453  -2.19658061  -0.70100016
H   -2.95511296  -1.79223983  -0.05488451
H   -3.78257775  -3.25197277  -0.54227481
H   -4.64716226  -1.73457335  -0.48698551
C   -3.32232686  -1.92449790  -2.16739326
N   -3.03660928  -1.72191995  -3.25918957
C    0.19095443  -1.20156667   4.95425394
H   -0.77732807  -1.64630179   5.05192613
H    0.08501691  -0.17427818   4.67433484
H    0.70851762  -1.26509708   5.88859398
C    0.99212555  -1.94857306   3.87180011
N    1.58863387  -2.50475327   3.06586403
C   -0.82005402  -4.49122024   1.50114239
H    0.04446774  -4.69262455   2.09858578
H   -1.13122037  -5.38938887   1.00985050
H   -1.61112960  -4.13473286   2.12725361
C   -0.47791407  -3.42173063   0.44722957
N   -0.22317533  -2.62544700  -0.33745643
