90
Energy:   -416.44512882
C   -2.00214785  -4.48044530  -2.31977104
H   -1.28739433  -4.79964629  -1.59029293
H   -2.17724774  -5.27224305  -3.01783653
H   -2.91981241  -4.22539325  -1.83218587
C   -1.45809370  -3.24851971  -3.06674121
N   -1.05302066  -2.33129511  -3.62289445
C   -1.43498070   5.82838845  -1.13868761
H   -1.52032781   6.80165934  -1.57499006
H   -1.15142260   5.92175586  -0.11117779
H   -2.37646287   5.32422314  -1.20447340
C   -0.36522394   5.01884638  -1.89490325
N    0.43125860   4.41610550  -2.45794016
C   -4.11640165  -2.92192393   1.37520664
H   -4.40520043  -2.87488699   2.40442137
H   -4.83225650  -3.50088460   0.82999524
H   -4.07560008  -1.93220383   0.97062236
C   -2.72917272  -3.58080967   1.26090236
N   -1.69631772  -4.07138006   1.17579763
C   -0.27250334   1.23396409  -2.98419530
H   -0.38134678   2.02668412  -3.69458129
H   -0.61392364   1.56471065  -2.02558277
H   -0.85258718   0.39147648  -3.29822788
C    1.21042957   0.82956370  -2.88948364
N    2.31454053   0.52846923  -2.81896650
C    2.61565556  -2.79280961  -3.61074455
H    1.85843462  -2.15273285  -4.01301110
H    3.22130532  -3.17282946  -4.40677995
H    3.22756193  -2.23778271  -2.93073365
C    1.95311582  -3.96592307  -2.86479153
N    1.45982486  -4.83935937  -2.30939561
C    2.13277644   4.25199797   4.27030679
H    1.52537827   5.08784017   3.99221424
H    2.93965057   4.15040463   3.57494212
H    2.52632256   4.40833106   5.25294635
C    1.27926642   2.97022342   4.25709105
N    0.64378941   2.01588401   4.24725133
C   -0.99899649   2.58661430   1.20184406
H   -1.82110547   1.90970302   1.30590230
H   -1.20362804   3.27730173   0.41065767
H   -0.86092230   3.12340794   2.11709658
C    0.28002102   1.79420395   0.87351488
N    1.23230770   1.20421842   0.62905889
C    3.20093035   3.87355171  -0.41914570
H    3.95942021   3.45027345   0.20569735
H    3.64401570   4.58102195  -1.08851878
H    2.72860989   3.09644778  -0.98299139
C    2.15134677   4.58297771   0.45646213
N    1.36988409   5.11117762   1.10839196
C    3.08116755  -0.31807979   3.14970392
H    2.43181694  -0.16974818   3.98710567
H    3.81866847  -1.05313288   3.39605419
H    2.50932225  -0.65404524   2.31004967
C    3.77732802   1.00990199   2.79838498
N    4.29565112   1.99864479   2.53681206
C   -4.83662163   1.20432158   0.18423208
H   -4.80046317   1.57707768   1.18655221
H   -4.46472368   0.20125408   0.16309924
H   -5.84800982   1.21715824  -0.16480695
C   -3.96827333   2.09302521  -0.72559049
N   -3.32174856   2.75470545  -1.40299475
C   -0.71523008  -0.98090882   3.36097182
H   -0.01871667  -0.57409598   2.65792662
H   -0.75200109  -2.04469130   3.25182133
H   -0.40384639  -0.73487919   4.35465623
C   -2.11292818  -0.38946135   3.09976328
N   -3.15357795   0.05089817   2.90528165
C    4.61441524   0.22119565  -0.51299659
H    4.93294727   0.33708053  -1.52788980
H    5.43303854   0.42957698   0.14376228
H    3.81306739   0.90081723  -0.31086986
C    4.13110266  -1.22365490  -0.28846186
N    3.77125448  -2.29941180  -0.12128555
C   -3.84648921  -0.30471218  -3.43227134
H   -4.64229994   0.31611059  -3.78746785
H   -3.35024443  -0.75926603  -4.26414935
H   -3.14803060   0.29063231  -2.88216262
C   -4.42059746  -1.40086809  -2.51551514
N   -4.84804714  -2.21700600  -1.83294848
C    0.45563394  -1.88977322  -0.34872742
H    0.28434110  -2.93997285  -0.46115371
H    0.93707099  -1.70527742   0.58886458
H    1.08072580  -1.54309899  -1.14495367
C   -0.89040927  -1.14275725  -0.39037867
N   -1.89259962  -0.58656991  -0.42138992
C    1.82173021  -5.12639300   1.06383499
H    2.12109395  -6.07195876   1.46531590
H    2.53751631  -4.80507932   0.33630020
H    0.86177309  -5.22313657   0.60120977
C    1.74229382  -4.08869636   2.19894536
N    1.68314982  -3.31608405   3.04408663
