
                                 *****************
                                 * O   R   C   A *
                                 *****************

           --- An Ab Initio, DFT and Semiempirical electronic structure package ---

                  #######################################################
                  #                        -***-                        #
                  #          Department of theory and spectroscopy      #
                  #               Directorship: Frank Neese             #
                  #        Max Planck Institute fuer Kohlenforschung    #
                  #                Kaiser Wilhelm Platz 1               #
                  #                 D-45470 Muelheim/Ruhr               #
                  #                      Germany                        #
                  #                                                     #
                  #                  All rights reserved                #
                  #                        -***-                        #
                  #######################################################


                         Program Version 4.2.0 -  RELEASE  -


 With contributions from (in alphabetic order):
   Daniel Aravena         : Magnetic Suceptibility
   Michael Atanasov       : Ab Initio Ligand Field Theory (pilot matlab implementation)
   Alexander A. Auer      : GIAO ZORA, VPT2
   Ute Becker             : Parallelization
   Giovanni Bistoni       : ED, misc. LED, open-shell LED, HFLED
   Martin Brehm           : Molecular dynamics
   Dmytro Bykov           : SCF Hessian
   Vijay G. Chilkuri      : MRCI spin determinant printing, contributions to CSF-ICE
   Dipayan Datta          : RHF DLPNO-CCSD density
   Achintya Kumar Dutta   : EOM-CC, STEOM-CC
   Dmitry Ganyushin       : Spin-Orbit,Spin-Spin,Magnetic field MRCI
   Miquel Garcia          : C-PCM Hessian, Gaussian charge scheme
   Yang Guo               : DLPNO-NEVPT2, CIM, IAO-localization
   Andreas Hansen         : Spin unrestricted coupled pair/coupled cluster methods
   Benjamin Helmich-Paris : CASSCF linear response (MC-RPA)
   Lee Huntington         : MR-EOM, pCC
   Robert Izsak           : Overlap fitted RIJCOSX, COSX-SCS-MP3, EOM
   Christian Kollmar      : KDIIS, OOCD, Brueckner-CCSD(T), CCSD density
   Simone Kossmann        : Meta GGA functionals, TD-DFT gradient, OOMP2, MP2 Hessian
   Martin Krupicka        : AUTO-CI
   Lucas Lang             : DCDCAS
   Dagmar Lenk            : GEPOL surface, SMD
   Dimitrios Liakos       : Extrapolation schemes; Compound Job, initial MDCI parallelization
   Dimitrios Manganas     : Further ROCIS development; embedding schemes
   Dimitrios Pantazis     : SARC Basis sets
   Taras Petrenko         : DFT Hessian,TD-DFT gradient, ASA, ECA, R-Raman, ABS, FL, XAS/XES, NRVS
   Peter Pinski           : DLPNO-MP2, DLPNO-MP2 Gradient
   Christoph Reimann      : Effective Core Potentials
   Marius Retegan         : Local ZFS, SOC
   Christoph Riplinger    : Optimizer, TS searches, QM/MM, DLPNO-CCSD(T), (RO)-DLPNO pert. Triples
   Tobias Risthaus        : Range-separated hybrids, TD-DFT gradient, RPA, STAB
   Michael Roemelt        : Original ROCIS implementation
   Masaaki Saitow         : Open-shell DLPNO-CCSD energy and density
   Barbara Sandhoefer     : DKH picture change effects
   Avijit Sen             : IP-ROCIS
   Kantharuban Sivalingam : CASSCF convergence, NEVPT2, FIC-MRCI
   Bernardo de Souza      : ESD, SOC TD-DFT
   Georgi Stoychev        : AutoAux, RI-MP2 NMR
   Willem Van den Heuvel  : Paramagnetic NMR
   Boris Wezisla          : Elementary symmetry handling
   Frank Wennmohs         : Technical directorship


 We gratefully acknowledge several colleagues who have allowed us to
 interface, adapt or use parts of their codes:
   Stefan Grimme, W. Hujo, H. Kruse,             : VdW corrections, initial TS optimization,
                  C. Bannwarth                     DFT functionals, gCP, sTDA/sTD-DF
   Ed Valeev, F. Pavosevic, A. Kumar             : LibInt (2-el integral package), F12 methods
   Garnet Chan, S. Sharma, J. Yang, R. Olivares  : DMRG
   Ulf Ekstrom                                   : XCFun DFT Library
   Mihaly Kallay                                 : mrcc  (arbitrary order and MRCC methods)
   Andreas Klamt, Michael Diedenhofen            : otool_cosmo (COSMO solvation model)
   Jiri Pittner, Ondrej Demel                    : Mk-CCSD
   Frank Weinhold                                : gennbo (NPA and NBO analysis)
   Christopher J. Cramer and Donald G. Truhlar   : smd solvation model
   Lars Goerigk                                  : TD-DFT with DH, B97 family of functionals
   V. Asgeirsson, H. Jonsson                     : NEB implementation
   FAccTs GmbH                                   : IRC, NEB, NEB-TS, Multilevel, MM, QM/MM, CI optimization
   S Lehtola, MJT Oliveira, MAL Marques          : LibXC Library


 Your calculation uses the libint2 library for the computation of 2-el integrals
 For citations please refer to: http://libint.valeyev.net

 Your ORCA version has been built with support for libXC version: 4.2.3
 For citations please refer to: https://tddft.org/programs/libxc/

 This ORCA versions uses:
   CBLAS   interface :  Fast vector & matrix operations
   LAPACKE interface :  Fast linear algebra routines
   SCALAPACK package :  Parallel linear algebra routines


----- Orbital basis set information -----
Your calculation utilizes the basis: def2-TZVP
   F. Weigend and R. Ahlrichs, Phys. Chem. Chem. Phys. 7, 3297 (2005).

================================================================================
                                        WARNINGS
                       Please study these warnings very carefully!
================================================================================


WARNING: The frozen-core approximation for MP2-gradient calculations is turned on by default.

INFO   : the flag for use of LIBINT has been found!

================================================================================
                                       INPUT FILE
================================================================================
NAME = 12h2o.su.etal.mol2,4,6,7,8,10-orca.engrad-mp2.def2tzvp.frozencore.inp
|  1> # 12h2o.su.etal.mol2,4,6,7,8,10
|  2> ! MP2 def2-TZVP EnGrad TightSCF
|  3> 
|  4> %pal
|  5>     nprocs 6
|  6> end
|  7> 
|  8> %maxcore 8000
|  9> 
| 10> %scf
| 11>     ConvForced true
| 12> end
| 13> 
| 14> *xyz 0 1
| 15> O   0.923410000  -1.794470000  -2.768350000
| 16> H   1.359750000  -2.338250000  -3.430940000
| 17> H   1.303000000  -0.879480000  -2.865760000
| 18> O  -0.885520000   1.737840000   0.052730000
| 19> H  -1.032320000   2.090180000  -0.841890000
| 20> H  -1.284090000   0.839590000   0.017130000
| 21> O   1.737840000   0.885520000  -0.052730000
| 22> H   2.090180000   1.032320000   0.841890000
| 23> H   0.839590000   1.284090000  -0.017130000
| 24> O  -1.737840000  -0.885520000  -0.052730000
| 25> H  -2.090180000  -1.032320000   0.841890000
| 26> H  -0.839590000  -1.284090000  -0.017130000
| 27> O   1.752130000   0.741530000  -2.896280000
| 28> H   2.036450000   0.920500000  -1.984040000
| 29> H   0.921210000   1.242140000  -2.984230000
| 30> O  -0.923410000   1.794470000  -2.768350000
| 31> H  -1.359750000   2.338250000  -3.430940000
| 32> H  -1.303000000   0.879480000  -2.865760000
| 33> *
| 34> 
| 35>                          ****END OF INPUT****
================================================================================

                     *******************************
                     * Energy+Gradient Calculation *
                     *******************************

---------------------------------
CARTESIAN COORDINATES (ANGSTROEM)
---------------------------------
  O      0.923410   -1.794470   -2.768350
  H      1.359750   -2.338250   -3.430940
  H      1.303000   -0.879480   -2.865760
  O     -0.885520    1.737840    0.052730
  H     -1.032320    2.090180   -0.841890
  H     -1.284090    0.839590    0.017130
  O      1.737840    0.885520   -0.052730
  H      2.090180    1.032320    0.841890
  H      0.839590    1.284090   -0.017130
  O     -1.737840   -0.885520   -0.052730
  H     -2.090180   -1.032320    0.841890
  H     -0.839590   -1.284090   -0.017130
  O      1.752130    0.741530   -2.896280
  H      2.036450    0.920500   -1.984040
  H      0.921210    1.242140   -2.984230
  O     -0.923410    1.794470   -2.768350
  H     -1.359750    2.338250   -3.430940
  H     -1.303000    0.879480   -2.865760

----------------------------
CARTESIAN COORDINATES (A.U.)
----------------------------
  NO LB      ZA    FRAG     MASS         X           Y           Z
   0 O     8.0000    0    15.999    1.744992   -3.391057   -5.231423
   1 H     1.0000    0     1.008    2.569555   -4.418652   -6.483537
   2 H     1.0000    0     1.008    2.462313   -1.661976   -5.415502
   3 O     8.0000    0    15.999   -1.673390    3.284042    0.099645
   4 H     1.0000    0     1.008   -1.950802    3.949868   -1.590942
   5 H     1.0000    0     1.008   -2.426578    1.586595    0.032371
   6 O     8.0000    0    15.999    3.284042    1.673390   -0.099645
   7 H     1.0000    0     1.008    3.949868    1.950802    1.590942
   8 H     1.0000    0     1.008    1.586595    2.426578   -0.032371
   9 O     8.0000    0    15.999   -3.284042   -1.673390   -0.099645
  10 H     1.0000    0     1.008   -3.949868   -1.950802    1.590942
  11 H     1.0000    0     1.008   -1.586595   -2.426578   -0.032371
  12 O     8.0000    0    15.999    3.311046    1.401289   -5.473176
  13 H     1.0000    0     1.008    3.848333    1.739493   -3.749292
  14 H     1.0000    0     1.008    1.740835    2.347304   -5.639377
  15 O     8.0000    0    15.999   -1.744992    3.391057   -5.231423
  16 H     1.0000    0     1.008   -2.569555    4.418652   -6.483537
  17 H     1.0000    0     1.008   -2.462313    1.661976   -5.415502

--------------------------------
INTERNAL COORDINATES (ANGSTROEM)
--------------------------------
 O      0   0   0     0.000000000000     0.00000000     0.00000000
 H      1   0   0     0.961828878803     0.00000000     0.00000000
 H      1   2   0     0.995381322057   106.21731035     0.00000000
 O      3   1   2     4.489717992580   106.64087787   176.77928518
 H      4   3   1     0.972645187106    71.75107181   239.98847868
 H      4   3   1     0.983350632989    68.99381625   353.14737776
 O      4   3   1     2.760360281485    48.07983898   112.57248196
 H      7   4   3     0.972645187106   105.22009255   197.51466366
 H      7   4   3     0.983350632989     5.92595386   121.86881638
 O      6   4   3     1.785153773264   170.81379649    41.84808259
 H     10   6   4     0.972645187106   101.65007623   109.44492584
 H     10   6   4     0.983350632989    99.09581498     3.33484705
 O      3   1   2     1.682356278379   171.61043709   164.26103839
 H     13   3   1     0.972136791249   103.79460456    70.64587838
 H     13   3   1     0.974050112161   105.61118924   321.69395179
 O     15  13   3     1.937600461318   161.54375213    39.05245435
 H     16  15  13     0.961828878803   121.08403650   202.75419110
 H     16  15  13     0.995381322057    95.17003195   315.21089530

---------------------------
INTERNAL COORDINATES (A.U.)
---------------------------
 O      0   0   0     0.000000000000     0.00000000     0.00000000
 H      1   0   0     1.817593168635     0.00000000     0.00000000
 H      1   2   0     1.880998097508   106.21731035     0.00000000
 O      3   1   2     8.484337424516   106.64087787   176.77928518
 H      4   3   1     1.838033029106    71.75107181   239.98847868
 H      4   3   1     1.858263389967    68.99381625   353.14737776
 O      4   3   1     5.216324962960    48.07983898   112.57248196
 H      7   4   3     1.838033029106   105.22009255   197.51466366
 H      7   4   3     1.858263389967     5.92595386   121.86881638
 O      6   4   3     3.373451738406   170.81379649    41.84808259
 H     10   6   4     1.838033029106   101.65007623   109.44492584
 H     10   6   4     1.858263389967    99.09581498     3.33484705
 O      3   1   2     3.179192625819   171.61043709   164.26103839
 H     13   3   1     1.837072300170   103.79460456    70.64587838
 H     13   3   1     1.840687952699   105.61118924   321.69395179
 O     15  13   3     3.661534228851   161.54375213    39.05245435
 H     16  15  13     1.817593168635   121.08403650   202.75419110
 H     16  15  13     1.880998097508    95.17003195   315.21089530

---------------------
BASIS SET INFORMATION
---------------------
There are 2 groups of distinct atoms

 Group   1 Type O   : 11s6p2d1f contracted to 5s3p2d1f pattern {62111/411/11/1}
 Group   2 Type H   : 5s1p contracted to 3s1p pattern {311/1}

Atom   0O    basis set group =>   1
Atom   1H    basis set group =>   2
Atom   2H    basis set group =>   2
Atom   3O    basis set group =>   1
Atom   4H    basis set group =>   2
Atom   5H    basis set group =>   2
Atom   6O    basis set group =>   1
Atom   7H    basis set group =>   2
Atom   8H    basis set group =>   2
Atom   9O    basis set group =>   1
Atom  10H    basis set group =>   2
Atom  11H    basis set group =>   2
Atom  12O    basis set group =>   1
Atom  13H    basis set group =>   2
Atom  14H    basis set group =>   2
Atom  15O    basis set group =>   1
Atom  16H    basis set group =>   2
Atom  17H    basis set group =>   2


           ************************************************************
           *        Program running with 6 parallel MPI-processes     *
           *              working on a common directory               *
           ************************************************************
------------------------------------------------------------------------------
                           ORCA GTO INTEGRAL CALCULATION
------------------------------------------------------------------------------

                         BASIS SET STATISTICS AND STARTUP INFO

 # of primitive gaussian shells          ...  192
 # of primitive gaussian functions       ...  372
 # of contracted shells                  ...  114
 # of contracted basis functions         ...  258
 Highest angular momentum                ...    3
 Maximum contraction depth               ...    6
 Integral package used                   ... LIBINT
 Integral threshhold            Thresh   ...  2.500e-11
 Primitive cut-off              TCut     ...  2.500e-12


------------------------------ INTEGRAL EVALUATION ----------------------------


 * One electron integrals 
 Pre-screening matrix                    ... done
 Shell pair data                         ... done (   0.002 sec)



           ************************************************************
           *        Program running with 6 parallel MPI-processes     *
           *              working on a common directory               *
           ************************************************************
-------------------------------------------------------------------------------
                                 ORCA SCF
-------------------------------------------------------------------------------

------------
SCF SETTINGS
------------
Hamiltonian:
 Ab initio Hamiltonian  Method          .... Hartree-Fock(GTOs)


General Settings:
 Integral files         IntName         .... 12h2o.su.etal.mol2,4,6,7,8,10-orca.engrad-mp2.def2tzvp.frozencore
 Hartree-Fock type      HFTyp           .... RHF
 Total Charge           Charge          ....    0
 Multiplicity           Mult            ....    1
 Number of Electrons    NEL             ....   60
 Basis Dimension        Dim             ....  258
 Nuclear Repulsion      ENuc            ....    284.4716060010 Eh

Convergence Acceleration:
 DIIS                   CNVDIIS         .... on
   Start iteration      DIISMaxIt       ....    12
   Startup error        DIISStart       ....  0.200000
   # of expansion vecs  DIISMaxEq       ....     5
   Bias factor          DIISBfac        ....   1.050
   Max. coefficient     DIISMaxC        ....  10.000
 Newton-Raphson         CNVNR           .... off
 SOSCF                  CNVSOSCF        .... on
   Start iteration      SOSCFMaxIt      ....   150
   Startup grad/error   SOSCFStart      ....  0.003300
 Level Shifting         CNVShift        .... on
   Level shift para.    LevelShift      ....    0.2500
   Turn off err/grad.   ShiftErr        ....    0.0010
 Zerner damping         CNVZerner       .... off
 Static damping         CNVDamp         .... on
   Fraction old density DampFac         ....    0.7000
   Max. Damping (<1)    DampMax         ....    0.9800
   Min. Damping (>=0)   DampMin         ....    0.0000
   Turn off err/grad.   DampErr         ....    0.1000
 Fernandez-Rico         CNVRico         .... off

SCF Procedure:
 Maximum # iterations   MaxIter         ....   125
 SCF integral mode      SCFMode         .... Direct
   Integral package                     .... LIBINT
 Reset frequency        DirectResetFreq ....    20
 Integral Threshold     Thresh          ....  2.500e-11 Eh
 Primitive CutOff       TCut            ....  2.500e-12 Eh

Convergence Tolerance:
 Convergence Check Mode ConvCheckMode   .... Total+1el-Energy
 Convergence forced     ConvForced      .... 1
 Energy Change          TolE            ....  1.000e-08 Eh
 1-El. energy change                    ....  1.000e-05 Eh
 Orbital Gradient       TolG            ....  1.000e-05
 Orbital Rotation angle TolX            ....  1.000e-05
 DIIS Error             TolErr          ....  5.000e-07


Diagonalization of the overlap matrix:
Smallest eigenvalue                        ... 3.887e-03
Time for diagonalization                   ...    0.010 sec
Threshold for overlap eigenvalues          ... 1.000e-08
Number of eigenvalues below threshold      ... 0
Time for construction of square roots      ...    0.005 sec
Total time needed                          ...    0.015 sec

-------------------
DFT GRID GENERATION
-------------------

General Integration Accuracy     IntAcc      ...  4.340
Radial Grid Type                 RadialGrid  ... Gauss-Chebyshev
Angular Grid (max. acc.)         AngularGrid ... Lebedev-110
Angular grid pruning method      GridPruning ... 3 (G Style)
Weight generation scheme         WeightScheme... Becke
Basis function cutoff            BFCut       ...    1.0000e-11
Integration weight cutoff        WCut        ...    1.0000e-14
Grids for H and He will be reduced by one unit

# of grid points (after initial pruning)     ...  19824 (   0.0 sec)
# of grid points (after weights+screening)   ...  18660 (   0.0 sec)
nearest neighbour list constructed           ...    0.0 sec
Grid point re-assignment to atoms done       ...    0.0 sec
Grid point division into batches done        ...    0.0 sec
Reduced shell lists constructed in    0.0 sec

Total number of grid points                  ...    18660
Total number of batches                      ...      302
Average number of points per batch           ...       61
Average number of grid points per atom       ...     1037
Average number of shells per batch           ...    58.00 (50.88%)
Average number of basis functions per batch  ...   116.81 (45.27%)
Average number of large shells per batch     ...    41.44 (71.45%)
Average number of large basis fcns per batch ...    82.33 (70.48%)
Maximum spatial batch extension              ...  20.95, 12.41, 14.52 au
Average spatial batch extension              ...   0.67,  0.52,  0.59 au

Time for grid setup =    0.058 sec

------------------------------
INITIAL GUESS: MODEL POTENTIAL
------------------------------
Loading Hartree-Fock densities                     ... done
Calculating cut-offs                               ... done
Setting up the integral package                    ... done
Initializing the effective Hamiltonian             ... done
Starting the Coulomb interaction                   ... done (   0.0 sec)
Reading the grid                                   ... done
Mapping shells                                     ... done
Starting the XC term evaluation                    ... done (   0.0 sec)
Transforming the Hamiltonian                       ... done (   0.0 sec)
Diagonalizing the Hamiltonian                      ... done (   0.0 sec)
Back transforming the eigenvectors                 ... done (   0.0 sec)
Now organizing SCF variables                       ... done
                      ------------------
                      INITIAL GUESS DONE (   0.2 sec)
                      ------------------
--------------
SCF ITERATIONS
--------------
ITER       Energy         Delta-E        Max-DP      RMS-DP      [F,P]     Damp
               ***  Starting incremental Fock matrix formation  ***
  0   -455.8623351852   0.000000000000 0.04397246  0.00096110  0.3497767 0.7000
  1   -456.0653377696  -0.203002584377 0.02937489  0.00066688  0.2167452 0.7000
                               ***Turning on DIIS***
  2   -456.1731819275  -0.107844157964 0.01646603  0.00037393  0.1634262 0.7000
  3   -457.1828595860  -1.009677658479 0.00747309  0.00017222  0.1218058 0.7000
  4   -456.9801526934   0.202706892651 0.01697303  0.00039849  0.0861656 0.0000
  5   -456.4211414360   0.559011257383 0.00221082  0.00006438  0.0054381 0.0000
                      *** Initiating the SOSCF procedure ***
                           *** Shutting down DIIS ***
                      *** Re-Reading the Fockian *** 
                      *** Removing any level shift *** 
ITER      Energy       Delta-E        Grad      Rot      Max-DP    RMS-DP
  6   -456.39146506   0.0296763786  0.001063  0.001063  0.001496  0.000040
               *** Restarting incremental Fock matrix formation ***
  7   -456.38178251   0.0096825429  0.000377  0.000511  0.000698  0.000017
  8   -456.38179143  -0.0000089160  0.000134  0.000395  0.000593  0.000015
  9   -456.38179361  -0.0000021747  0.000082  0.000046  0.000124  0.000003
 10   -456.38179379  -0.0000001868  0.000012  0.000011  0.000020  0.000000
 11   -456.38179380  -0.0000000046  0.000003  0.000003  0.000006  0.000000
                  ***Gradient check signals convergence***
              ***Rediagonalizing the Fockian in SOSCF/NRSCF***

               *****************************************************
               *                     SUCCESS                       *
               *           SCF CONVERGED AFTER  12 CYCLES          *
               *****************************************************


----------------
TOTAL SCF ENERGY
----------------

Total Energy       :         -456.38179380 Eh          -12418.77997 eV

Components:
Nuclear Repulsion  :          284.47160600 Eh            7740.86594 eV
Electronic Energy  :         -740.85339980 Eh          -20159.64591 eV
One Electron Energy:        -1197.42399078 Eh          -32583.56331 eV
Two Electron Energy:          456.57059098 Eh           12423.91740 eV

Virial components:
Potential Energy   :         -912.15805013 Eh          -24821.08242 eV
Kinetic Energy     :          455.77625633 Eh           12402.30246 eV
Virial Ratio       :            2.00132858


---------------
SCF CONVERGENCE
---------------

  Last Energy change         ...   -1.2096e-10  Tolerance :   1.0000e-08
  Last MAX-Density change    ...    1.3914e-06  Tolerance :   1.0000e-07
  Last RMS-Density change    ...    3.9185e-08  Tolerance :   5.0000e-09
  Last Orbital Gradient      ...    1.0094e-06  Tolerance :   1.0000e-05
  Last Orbital Rotation      ...    1.1680e-06  Tolerance :   1.0000e-05

             **** THE GBW FILE WAS UPDATED (12h2o.su.etal.mol2,4,6,7,8,10-orca.engrad-mp2.def2tzvp.frozencore.gbw) ****
             **** DENSITY FILE WAS UPDATED (12h2o.su.etal.mol2,4,6,7,8,10-orca.engrad-mp2.def2tzvp.frozencore.scfp) ****
             **** ENERGY FILE WAS UPDATED (12h2o.su.etal.mol2,4,6,7,8,10-orca.engrad-mp2.def2tzvp.frozencore.en.tmp) ****
             **** THE GBW FILE WAS UPDATED (12h2o.su.etal.mol2,4,6,7,8,10-orca.engrad-mp2.def2tzvp.frozencore.gbw) ****
             **** DENSITY FILE WAS UPDATED (12h2o.su.etal.mol2,4,6,7,8,10-orca.engrad-mp2.def2tzvp.frozencore.scfp) ****
----------------
ORBITAL ENERGIES
----------------

  NO   OCC          E(Eh)            E(eV) 
   0   2.0000     -20.610734      -560.8466 
   1   2.0000     -20.592889      -560.3610 
   2   2.0000     -20.543719      -559.0230 
   3   2.0000     -20.542512      -558.9902 
   4   2.0000     -20.537308      -558.8486 
   5   2.0000     -20.507446      -558.0360 
   6   2.0000      -1.391312       -37.8595 
   7   2.0000      -1.374052       -37.3898 
   8   2.0000      -1.338021       -36.4094 
   9   2.0000      -1.330635       -36.2084 
  10   2.0000      -1.318710       -35.8839 
  11   2.0000      -1.288487       -35.0615 
  12   2.0000      -0.756566       -20.5872 
  13   2.0000      -0.730648       -19.8819 
  14   2.0000      -0.708237       -19.2721 
  15   2.0000      -0.702351       -19.1119 
  16   2.0000      -0.692420       -18.8417 
  17   2.0000      -0.674378       -18.3507 
  18   2.0000      -0.636953       -17.3324 
  19   2.0000      -0.613914       -16.7054 
  20   2.0000      -0.592230       -16.1154 
  21   2.0000      -0.585593       -15.9348 
  22   2.0000      -0.557945       -15.1825 
  23   2.0000      -0.545067       -14.8320 
  24   2.0000      -0.526830       -14.3358 
  25   2.0000      -0.523973       -14.2580 
  26   2.0000      -0.495134       -13.4733 
  27   2.0000      -0.488025       -13.2798 
  28   2.0000      -0.476914       -12.9775 
  29   2.0000      -0.458351       -12.4724 
  30   0.0000       0.099112         2.6970 
  31   0.0000       0.125246         3.4081 
  32   0.0000       0.156941         4.2706 
  33   0.0000       0.170648         4.6436 
  34   0.0000       0.196622         5.3504 
  35   0.0000       0.215251         5.8573 
  36   0.0000       0.232363         6.3229 
  37   0.0000       0.247463         6.7338 
  38   0.0000       0.309264         8.4155 
  39   0.0000       0.321855         8.7581 
  40   0.0000       0.345732         9.4078 
  41   0.0000       0.359237         9.7753 
  42   0.0000       0.430651        11.7186 
  43   0.0000       0.492663        13.4060 
  44   0.0000       0.501989        13.6598 
  45   0.0000       0.509173        13.8553 
  46   0.0000       0.512648        13.9499 
  47   0.0000       0.536007        14.5855 
  48   0.0000       0.548750        14.9323 
  49   0.0000       0.559355        15.2208 
  50   0.0000       0.570720        15.5301 
  51   0.0000       0.572088        15.5673 
  52   0.0000       0.603191        16.4137 
  53   0.0000       0.607342        16.5266 
  54   0.0000       0.620796        16.8927 
  55   0.0000       0.645048        17.5527 
  56   0.0000       0.656629        17.8678 
  57   0.0000       0.665295        18.1036 
  58   0.0000       0.679575        18.4922 
  59   0.0000       0.695914        18.9368 
  60   0.0000       0.719808        19.5870 
  61   0.0000       0.730936        19.8898 
  62   0.0000       0.742726        20.2106 
  63   0.0000       0.757135        20.6027 
  64   0.0000       0.772995        21.0343 
  65   0.0000       0.794344        21.6152 
  66   0.0000       0.802244        21.8302 
  67   0.0000       0.819526        22.3004 
  68   0.0000       0.834175        22.6991 
  69   0.0000       0.859173        23.3793 
  70   0.0000       0.903758        24.5925 
  71   0.0000       0.911750        24.8100 
  72   0.0000       0.958810        26.0905 
  73   0.0000       0.980887        26.6913 
  74   0.0000       1.017354        27.6836 
  75   0.0000       1.054187        28.6859 
  76   0.0000       1.072410        29.1817 
  77   0.0000       1.167195        31.7610 
  78   0.0000       1.358153        36.9572 
  79   0.0000       1.366112        37.1738 
  80   0.0000       1.393908        37.9302 
  81   0.0000       1.406171        38.2639 
  82   0.0000       1.422383        38.7050 
  83   0.0000       1.429687        38.9038 
  84   0.0000       1.445261        39.3276 
  85   0.0000       1.462994        39.8101 
  86   0.0000       1.478915        40.2433 
  87   0.0000       1.509458        41.0745 
  88   0.0000       1.520787        41.3827 
  89   0.0000       1.539392        41.8890 
  90   0.0000       1.568926        42.6926 
  91   0.0000       1.572146        42.7803 
  92   0.0000       1.593631        43.3649 
  93   0.0000       1.615758        43.9670 
  94   0.0000       1.638805        44.5941 
  95   0.0000       1.674318        45.5605 
  96   0.0000       1.797112        48.9019 
  97   0.0000       1.813515        49.3483 
  98   0.0000       1.816660        49.4338 
  99   0.0000       1.857415        50.5428 
 100   0.0000       1.877389        51.0864 
 101   0.0000       1.904948        51.8363 
 102   0.0000       1.948632        53.0250 
 103   0.0000       1.950268        53.0695 
 104   0.0000       1.971362        53.6435 
 105   0.0000       2.000689        54.4415 
 106   0.0000       2.004251        54.5385 
 107   0.0000       2.013485        54.7897 
 108   0.0000       2.052478        55.8508 
 109   0.0000       2.084688        56.7272 
 110   0.0000       2.123643        57.7873 
 111   0.0000       2.134042        58.0702 
 112   0.0000       2.185289        59.4647 
 113   0.0000       2.207273        60.0630 
 114   0.0000       2.248768        61.1921 
 115   0.0000       2.257695        61.4350 
 116   0.0000       2.295368        62.4601 
 117   0.0000       2.302359        62.6504 
 118   0.0000       2.325877        63.2903 
 119   0.0000       2.339276        63.6549 
 120   0.0000       2.363530        64.3149 
 121   0.0000       2.378358        64.7184 
 122   0.0000       2.394125        65.1474 
 123   0.0000       2.401237        65.3410 
 124   0.0000       2.412545        65.6487 
 125   0.0000       2.425321        65.9963 
 126   0.0000       2.440735        66.4158 
 127   0.0000       2.453415        66.7608 
 128   0.0000       2.516995        68.4909 
 129   0.0000       2.563271        69.7502 
 130   0.0000       2.576070        70.0984 
 131   0.0000       2.590523        70.4917 
 132   0.0000       2.615779        71.1790 
 133   0.0000       2.623892        71.3997 
 134   0.0000       2.642010        71.8927 
 135   0.0000       2.652361        72.1744 
 136   0.0000       2.662255        72.4437 
 137   0.0000       2.668106        72.6028 
 138   0.0000       2.684354        73.0450 
 139   0.0000       2.717147        73.9373 
 140   0.0000       2.737856        74.5008 
 141   0.0000       2.749523        74.8183 
 142   0.0000       2.778924        75.6184 
 143   0.0000       2.823927        76.8430 
 144   0.0000       2.889567        78.6291 
 145   0.0000       2.907025        79.1042 
 146   0.0000       2.934993        79.8652 
 147   0.0000       2.946372        80.1749 
 148   0.0000       2.958449        80.5035 
 149   0.0000       2.976487        80.9943 
 150   0.0000       2.996045        81.5265 
 151   0.0000       3.014531        82.0296 
 152   0.0000       3.030945        82.4762 
 153   0.0000       3.064003        83.3757 
 154   0.0000       3.074745        83.6681 
 155   0.0000       3.123088        84.9835 
 156   0.0000       3.126114        85.0659 
 157   0.0000       3.131217        85.2047 
 158   0.0000       3.169383        86.2433 
 159   0.0000       3.193702        86.9050 
 160   0.0000       3.262798        88.7852 
 161   0.0000       3.291086        89.5550 
 162   0.0000       3.307867        90.0116 
 163   0.0000       3.327646        90.5499 
 164   0.0000       3.389723        92.2391 
 165   0.0000       3.410974        92.8173 
 166   0.0000       3.483592        94.7934 
 167   0.0000       3.553318        96.6907 
 168   0.0000       3.976811       108.2145 
 169   0.0000       4.016768       109.3018 
 170   0.0000       4.074914       110.8841 
 171   0.0000       4.082534       111.0914 
 172   0.0000       4.133629       112.4818 
 173   0.0000       4.182874       113.8218 
 174   0.0000       4.270261       116.1997 
 175   0.0000       4.278614       116.4270 
 176   0.0000       4.340374       118.1076 
 177   0.0000       4.351158       118.4010 
 178   0.0000       4.379368       119.1687 
 179   0.0000       4.434088       120.6577 
 180   0.0000       5.503301       149.7524 
 181   0.0000       5.513931       150.0417 
 182   0.0000       5.554446       151.1442 
 183   0.0000       5.562440       151.3617 
 184   0.0000       5.564502       151.4178 
 185   0.0000       5.597332       152.3111 
 186   0.0000       5.597780       152.3233 
 187   0.0000       5.640306       153.4805 
 188   0.0000       5.671843       154.3387 
 189   0.0000       5.687722       154.7708 
 190   0.0000       5.688219       154.7843 
 191   0.0000       5.714190       155.4910 
 192   0.0000       5.767077       156.9301 
 193   0.0000       5.789112       157.5297 
 194   0.0000       5.807386       158.0270 
 195   0.0000       5.813914       158.2046 
 196   0.0000       5.835544       158.7932 
 197   0.0000       5.846164       159.0822 
 198   0.0000       5.856293       159.3578 
 199   0.0000       5.858858       159.4276 
 200   0.0000       5.861168       159.4905 
 201   0.0000       5.873124       159.8158 
 202   0.0000       5.874491       159.8530 
 203   0.0000       5.884285       160.1195 
 204   0.0000       5.894495       160.3974 
 205   0.0000       5.909907       160.8167 
 206   0.0000       5.911297       160.8546 
 207   0.0000       5.915897       160.9797 
 208   0.0000       5.925908       161.2522 
 209   0.0000       5.981037       162.7523 
 210   0.0000       6.385546       173.7595 
 211   0.0000       6.439310       175.2225 
 212   0.0000       6.482733       176.4041 
 213   0.0000       6.488147       176.5514 
 214   0.0000       6.511805       177.1952 
 215   0.0000       6.526911       177.6063 
 216   0.0000       6.650611       180.9723 
 217   0.0000       6.680350       181.7816 
 218   0.0000       6.714191       182.7024 
 219   0.0000       6.727460       183.0635 
 220   0.0000       6.756600       183.8564 
 221   0.0000       6.785739       184.6493 
 222   0.0000       6.838423       186.0830 
 223   0.0000       6.848528       186.3579 
 224   0.0000       6.858284       186.6234 
 225   0.0000       6.863841       186.7746 
 226   0.0000       6.868207       186.8934 
 227   0.0000       6.880924       187.2395 
 228   0.0000       6.893978       187.5947 
 229   0.0000       6.904744       187.8876 
 230   0.0000       6.919122       188.2789 
 231   0.0000       6.934821       188.7061 
 232   0.0000       6.947501       189.0511 
 233   0.0000       6.966542       189.5692 
 234   0.0000       6.982032       189.9907 
 235   0.0000       6.994141       190.3203 
 236   0.0000       7.012166       190.8107 
 237   0.0000       7.025330       191.1689 
 238   0.0000       7.062599       192.1831 
 239   0.0000       7.133575       194.1145 
 240   0.0000       7.344865       199.8639 
 241   0.0000       7.363376       200.3676 
 242   0.0000       7.410176       201.6411 
 243   0.0000       7.456405       202.8991 
 244   0.0000       7.473802       203.3725 
 245   0.0000       7.494848       203.9452 
 246   0.0000       7.508660       204.3210 
 247   0.0000       7.532671       204.9744 
 248   0.0000       7.587961       206.4789 
 249   0.0000       7.597620       206.7418 
 250   0.0000       7.605054       206.9441 
 251   0.0000       7.612481       207.1461 
 252   0.0000      44.882226      1221.3075 
 253   0.0000      44.915093      1222.2018 
 254   0.0000      44.976374      1223.8694 
 255   0.0000      45.010214      1224.7902 
 256   0.0000      45.047999      1225.8184 
 257   0.0000      45.116939      1227.6943 

                    ********************************
                    * MULLIKEN POPULATION ANALYSIS *
                    ********************************

-----------------------
MULLIKEN ATOMIC CHARGES
-----------------------
   0 O :   -0.770678
   1 H :    0.330313
   2 H :    0.400144
   3 O :   -0.766685
   4 H :    0.388321
   5 H :    0.381476
   6 O :   -0.763158
   7 H :    0.346394
   8 H :    0.387815
   9 O :   -0.724951
  10 H :    0.362761
  11 H :    0.390653
  12 O :   -0.757427
  13 H :    0.403671
  14 H :    0.375721
  15 O :   -0.752749
  16 H :    0.373430
  17 H :    0.394951
Sum of atomic charges:   -0.0000000

--------------------------------
MULLIKEN REDUCED ORBITAL CHARGES
--------------------------------
  0 O s       :     3.808161  s :     3.808161
      pz      :     1.717682  p :     4.937649
      px      :     1.801931
      py      :     1.418036
      dz2     :     0.004011  d :     0.023407
      dxz     :     0.005428
      dyz     :     0.004737
      dx2y2   :     0.002269
      dxy     :     0.006963
      f0      :     0.000087  f :     0.001461
      f+1     :     0.000185
      f-1     :     0.000326
      f+2     :     0.000069
      f-2     :     0.000359
      f+3     :     0.000347
      f-3     :     0.000088
  1 H s       :     0.623574  s :     0.623574
      pz      :     0.017104  p :     0.046113
      px      :     0.015129
      py      :     0.013879
  2 H s       :     0.542895  s :     0.542895
      pz      :     0.010554  p :     0.056961
      px      :     0.013859
      py      :     0.032548
  3 O s       :     3.797116  s :     3.797116
      pz      :     1.593144  p :     4.944266
      px      :     1.838370
      py      :     1.512751
      dz2     :     0.011214  d :     0.023988
      dxz     :     0.002159
      dyz     :     0.002837
      dx2y2   :     0.003237
      dxy     :     0.004541
      f0      :     0.000153  f :     0.001316
      f+1     :     0.000107
      f-1     :     0.000449
      f+2     :     0.000066
      f-2     :     0.000039
      f+3     :     0.000407
      f-3     :     0.000095
  4 H s       :     0.563364  s :     0.563364
      pz      :     0.024339  p :     0.048315
      px      :     0.012843
      py      :     0.011133
  5 H s       :     0.565066  s :     0.565066
      pz      :     0.009615  p :     0.053458
      px      :     0.014855
      py      :     0.028988
  6 O s       :     3.809225  s :     3.809225
      pz      :     1.533527  p :     4.929552
      px      :     1.514404
      py      :     1.881621
      dz2     :     0.010209  d :     0.022936
      dxz     :     0.002563
      dyz     :     0.002317
      dx2y2   :     0.002819
      dxy     :     0.005028
      f0      :     0.000207  f :     0.001445
      f+1     :     0.000435
      f-1     :     0.000125
      f+2     :     0.000078
      f-2     :     0.000037
      f+3     :     0.000116
      f-3     :     0.000447
  7 H s       :     0.608589  s :     0.608589
      pz      :     0.018501  p :     0.045017
      px      :     0.012305
      py      :     0.014211
  8 H s       :     0.558474  s :     0.558474
      pz      :     0.008879  p :     0.053711
      px      :     0.029312
      py      :     0.015520
  9 O s       :     3.808732  s :     3.808732
      pz      :     1.550332  p :     4.888757
      px      :     1.490506
      py      :     1.847919
      dz2     :     0.012145  d :     0.026033
      dxz     :     0.003018
      dyz     :     0.002315
      dx2y2   :     0.003625
      dxy     :     0.004930
      f0      :     0.000170  f :     0.001429
      f+1     :     0.000471
      f-1     :     0.000119
      f+2     :     0.000069
      f-2     :     0.000041
      f+3     :     0.000107
      f-3     :     0.000452
 10 H s       :     0.593394  s :     0.593394
      pz      :     0.019027  p :     0.043845
      px      :     0.011435
      py      :     0.013384
 11 H s       :     0.567382  s :     0.567382
      pz      :     0.009470  p :     0.041965
      px      :     0.018905
      py      :     0.013590
 12 O s       :     3.792319  s :     3.792319
      pz      :     1.577081  p :     4.939685
      px      :     1.576833
      py      :     1.785772
      dz2     :     0.011555  d :     0.024067
      dxz     :     0.001163
      dyz     :     0.002279
      dx2y2   :     0.002359
      dxy     :     0.006711
      f0      :     0.000228  f :     0.001355
      f+1     :     0.000377
      f-1     :     0.000150
      f+2     :     0.000051
      f-2     :     0.000055
      f+3     :     0.000049
      f-3     :     0.000445
 13 H s       :     0.548646  s :     0.548646
      pz      :     0.024880  p :     0.047683
      px      :     0.010994
      py      :     0.011808
 14 H s       :     0.574610  s :     0.574610
      pz      :     0.010142  p :     0.049669
      px      :     0.023589
      py      :     0.015938
 15 O s       :     3.807860  s :     3.807860
      pz      :     1.732786  p :     4.919618
      px      :     1.795640
      py      :     1.391192
      dz2     :     0.004010  d :     0.023801
      dxz     :     0.005389
      dyz     :     0.004510
      dx2y2   :     0.002512
      dxy     :     0.007379
      f0      :     0.000085  f :     0.001471
      f+1     :     0.000179
      f-1     :     0.000334
      f+2     :     0.000062
      f-2     :     0.000347
      f+3     :     0.000371
      f-3     :     0.000093
 16 H s       :     0.581617  s :     0.581617
      pz      :     0.017033  p :     0.044953
      px      :     0.014663
      py      :     0.013257
 17 H s       :     0.564760  s :     0.564760
      pz      :     0.010241  p :     0.040289
      px      :     0.011876
      py      :     0.018172


                     *******************************
                     * LOEWDIN POPULATION ANALYSIS *
                     *******************************

----------------------
LOEWDIN ATOMIC CHARGES
----------------------
   0 O :   -0.380036
   1 H :    0.146431
   2 H :    0.152465
   3 O :   -0.328109
   4 H :    0.153213
   5 H :    0.149020
   6 O :   -0.348915
   7 H :    0.162508
   8 H :    0.152781
   9 O :   -0.301064
  10 H :    0.171757
  11 H :    0.188452
  12 O :   -0.300661
  13 H :    0.163683
  14 H :    0.151834
  15 O :   -0.298751
  16 H :    0.167522
  17 H :    0.197871

-------------------------------
LOEWDIN REDUCED ORBITAL CHARGES
-------------------------------
  0 O s       :     3.467310  s :     3.467310
      pz      :     1.704730  p :     4.881507
      px      :     1.780159
      py      :     1.396618
      dz2     :     0.004202  d :     0.029220
      dxz     :     0.005715
      dyz     :     0.007263
      dx2y2   :     0.003265
      dxy     :     0.008775
      f0      :     0.000073  f :     0.002000
      f+1     :     0.000266
      f-1     :     0.000437
      f+2     :     0.000034
      f-2     :     0.000636
      f+3     :     0.000470
      f-3     :     0.000084
  1 H s       :     0.689212  s :     0.689212
      pz      :     0.065491  p :     0.164356
      px      :     0.053229
      py      :     0.045636
  2 H s       :     0.651128  s :     0.651128
      pz      :     0.033333  p :     0.196407
      px      :     0.047678
      py      :     0.115397
  3 O s       :     3.456364  s :     3.456364
      pz      :     1.570802  p :     4.840534
      px      :     1.783350
      py      :     1.486382
      dz2     :     0.013741  d :     0.029292
      dxz     :     0.001289
      dyz     :     0.003817
      dx2y2   :     0.004769
      dxy     :     0.005676
      f0      :     0.000335  f :     0.001919
      f+1     :     0.000194
      f-1     :     0.000704
      f+2     :     0.000037
      f-2     :     0.000044
      f+3     :     0.000540
      f-3     :     0.000065
  4 H s       :     0.673750  s :     0.673750
      pz      :     0.092300  p :     0.173037
      px      :     0.043125
      py      :     0.037611
  5 H s       :     0.664694  s :     0.664694
      pz      :     0.030420  p :     0.186286
      px      :     0.052586
      py      :     0.103280
  6 O s       :     3.463056  s :     3.463056
      pz      :     1.523694  p :     4.854126
      px      :     1.489262
      py      :     1.841170
      dz2     :     0.014481  d :     0.029712
      dxz     :     0.004204
      dyz     :     0.001624
      dx2y2   :     0.003570
      dxy     :     0.005833
      f0      :     0.000408  f :     0.002020
      f+1     :     0.000732
      f-1     :     0.000188
      f+2     :     0.000046
      f-2     :     0.000046
      f+3     :     0.000064
      f-3     :     0.000535
  7 H s       :     0.678828  s :     0.678828
      pz      :     0.078562  p :     0.158664
      px      :     0.036783
      py      :     0.043319
  8 H s       :     0.659342  s :     0.659342
      pz      :     0.028841  p :     0.187877
      px      :     0.106272
      py      :     0.052763
  9 O s       :     3.468828  s :     3.468828
      pz      :     1.546961  p :     4.797522
      px      :     1.464218
      py      :     1.786343
      dz2     :     0.015587  d :     0.032634
      dxz     :     0.004258
      dyz     :     0.001439
      dx2y2   :     0.005185
      dxy     :     0.006166
      f0      :     0.000368  f :     0.002080
      f+1     :     0.000747
      f-1     :     0.000213
      f+2     :     0.000042
      f-2     :     0.000047
      f+3     :     0.000071
      f-3     :     0.000593
 10 H s       :     0.669629  s :     0.669629
      pz      :     0.080056  p :     0.158615
      px      :     0.035653
      py      :     0.042906
 11 H s       :     0.656972  s :     0.656972
      pz      :     0.028798  p :     0.154576
      px      :     0.076582
      py      :     0.049197
 12 O s       :     3.447061  s :     3.447061
      pz      :     1.545848  p :     4.821509
      px      :     1.546654
      py      :     1.729006
      dz2     :     0.014616  d :     0.030064
      dxz     :     0.001722
      dyz     :     0.001733
      dx2y2   :     0.003483
      dxy     :     0.008510
      f0      :     0.000406  f :     0.002027
      f+1     :     0.000543
      f-1     :     0.000323
      f+2     :     0.000020
      f-2     :     0.000048
      f+3     :     0.000025
      f-3     :     0.000662
 13 H s       :     0.663751  s :     0.663751
      pz      :     0.094486  p :     0.172566
      px      :     0.036693
      py      :     0.041387
 14 H s       :     0.674359  s :     0.674359
      pz      :     0.031410  p :     0.173807
      px      :     0.084549
      py      :     0.057847
 15 O s       :     3.461235  s :     3.461235
      pz      :     1.687484  p :     4.804419
      px      :     1.748029
      py      :     1.368906
      dz2     :     0.005354  d :     0.031050
      dxz     :     0.005284
      dyz     :     0.006710
      dx2y2   :     0.004094
      dxy     :     0.009608
      f0      :     0.000090  f :     0.002047
      f+1     :     0.000270
      f-1     :     0.000443
      f+2     :     0.000033
      f-2     :     0.000599
      f+3     :     0.000524
      f-3     :     0.000089
 16 H s       :     0.668283  s :     0.668283
      pz      :     0.066731  p :     0.164196
      px      :     0.052805
      py      :     0.044660
 17 H s       :     0.652502  s :     0.652502
      pz      :     0.033096  p :     0.149628
      px      :     0.043396
      py      :     0.073135


                      *****************************
                      * MAYER POPULATION ANALYSIS *
                      *****************************

  NA   - Mulliken gross atomic population
  ZA   - Total nuclear charge
  QA   - Mulliken gross atomic charge
  VA   - Mayer's total valence
  BVA  - Mayer's bonded valence
  FA   - Mayer's free valence

  ATOM       NA         ZA         QA         VA         BVA        FA
  0 O      8.7707     8.0000    -0.7707     1.6827     1.6827     0.0000
  1 H      0.6697     1.0000     0.3303     0.9069     0.9069    -0.0000
  2 H      0.5999     1.0000     0.4001     0.8792     0.8792     0.0000
  3 O      8.7667     8.0000    -0.7667     1.7067     1.7067    -0.0000
  4 H      0.6117     1.0000     0.3883     0.8738     0.8738     0.0000
  5 H      0.6185     1.0000     0.3815     0.8935     0.8935     0.0000
  6 O      8.7632     8.0000    -0.7632     1.6971     1.6971    -0.0000
  7 H      0.6536     1.0000     0.3464     0.8969     0.8969    -0.0000
  8 H      0.6122     1.0000     0.3878     0.8924     0.8924    -0.0000
  9 O      8.7250     8.0000    -0.7250     1.7709     1.7709    -0.0000
 10 H      0.6372     1.0000     0.3628     0.8814     0.8814     0.0000
 11 H      0.6093     1.0000     0.3907     0.8654     0.8654     0.0000
 12 O      8.7574     8.0000    -0.7574     1.7300     1.7300    -0.0000
 13 H      0.5963     1.0000     0.4037     0.8658     0.8658    -0.0000
 14 H      0.6243     1.0000     0.3757     0.8873     0.8873    -0.0000
 15 O      8.7527     8.0000    -0.7527     1.7464     1.7464     0.0000
 16 H      0.6266     1.0000     0.3734     0.8764     0.8764     0.0000
 17 H      0.6050     1.0000     0.3950     0.8597     0.8597     0.0000

  Mayer bond orders larger than 0.100000
B(  0-O ,  1-H ) :   0.9006 B(  0-O ,  2-H ) :   0.7992 B(  3-O ,  4-H ) :   0.8489 
B(  3-O ,  5-H ) :   0.8243 B(  6-O ,  7-H ) :   0.8888 B(  6-O ,  8-H ) :   0.8038 
B(  9-O , 10-H ) :   0.8760 B(  9-O , 11-H ) :   0.8506 B( 12-O , 13-H ) :   0.8305 
B( 12-O , 14-H ) :   0.8549 B( 15-O , 16-H ) :   0.8673 B( 15-O , 17-H ) :   0.8455 


-------
TIMINGS
-------

Total SCF time: 0 days 0 hours 0 min 14 sec 

Total time                  ....      14.194 sec
Sum of individual times     ....      13.925 sec  ( 98.1%)

Fock matrix formation       ....      13.536 sec  ( 95.4%)
Diagonalization             ....       0.076 sec  (  0.5%)
Density matrix formation    ....       0.010 sec  (  0.1%)
Population analysis         ....       0.025 sec  (  0.2%)
Initial guess               ....       0.154 sec  (  1.1%)
Orbital Transformation      ....       0.000 sec  (  0.0%)
Orbital Orthonormalization  ....       0.000 sec  (  0.0%)
DIIS solution               ....       0.027 sec  (  0.2%)
SOSCF solution              ....       0.038 sec  (  0.3%)


           ************************************************************
           *        Program running with 6 parallel MPI-processes     *
           *              working on a common directory               *
           ************************************************************

------------------------------------------------------------------------------
                                ORCA  MP2 
------------------------------------------------------------------------------

Freezing NCore=12 chemical core electrons
MP2 will be done in the AO integral direct mode
The Q1-step will be done using symmetric double matrices
Dimension of the basis                    ...  258
Memory devoted for MP2                    ... 8000 MB   
Memory needed for all in one shot         ...  264 MB
Number of MOs that can be treated together...  120      
MP2 density construction                  ... relaxed
The MP2 gradient is requested => amplitudes will be stored on disk
Total number of MOs              ...   24
Number of MOs treated per batch  ...    4 
Number of batches necessary      ...    1 
OPERATORS   0/  0 PASS   0
-----------------------------------------------
 MP2 CORRELATION ENERGY   :     -1.553044702 Eh
-----------------------------------------------


---------------------
MP2 DENSITY FORMATION
---------------------

Completing the external part of the density      ... done
Storing the unrelaxed density                    ... done

Calculating G(D)                                 ... done
Completing the Lagrangian                        ... done
Solving the Z-vector equations                   ... 

------------------------------------------------------------------------------
                           ORCA CP-SCF CALCULATION
------------------------------------------------------------------------------

Input orbitals are from        ... 12h2o.su.etal.mol2,4,6,7,8,10-orca.engrad-mp2.def2tzvp.frozencore.gbw
Input Perturbation             ... 12h2o.su.etal.mol2,4,6,7,8,10-orca.engrad-mp2.def2tzvp.frozencore.pin.tmp
Wavefunction output            ... 12h2o.su.etal.mol2,4,6,7,8,10-orca.engrad-mp2.def2tzvp.frozencore.pout.tmp
Perturbation mode              ... Real perturbation (singlet)
Solver                         ... POPLE
Max. number of iterations      ... 128
Convergence tolerance          ... 1.000e-08
Integral handling              ... Direct
Number of perturbations        ... 1
Number of operators            ... 1
Orbital ranges used for CP-SCF:
 Operator 0:  Orbitals   0... 29  to  30...257
Variables per vector in CP-SCF ... 6840
Number of vectors sought       ... 1
     CP-SCF ITERATION   0: 
     CP-SCF ITERATION   1:      0.000762617890
     CP-SCF ITERATION   2:      0.000020382764
     CP-SCF ITERATION   3:      0.000001298194
     CP-SCF ITERATION   4:      0.000000090797
     CP-SCF ITERATION   5:      0.000000006876
                                                 ... done
Finalizing the relaxed density                   ... done
Transforming P to the AO basis                   ... done
Storing the relaxed density                      ... done

------------------------------------
ENERGY WEIGHTED DENSITY FINALIZATION
------------------------------------

Gathering the parts of the W-matrix              ...                                                      done
Forming the Z-density                            ... done
Transforming Z to the AO basis                   ... done
Calculating G(Z)                                 ... done
Finalizing the W-matrix                          ...                                                      done
Transforming W to the AO basis and storing       ... done

                *********************************************
                * UNRELAXED MP2 DENSITY POPULATION ANALYSIS *
                *********************************************

------------------------------------------------------------------------------
                           ORCA POPULATION ANALYSIS
------------------------------------------------------------------------------
Input electron density              ... 12h2o.su.etal.mol2,4,6,7,8,10-orca.engrad-mp2.def2tzvp.frozencore.pmp2ur
BaseName (.gbw .S,...)              ... 12h2o.su.etal.mol2,4,6,7,8,10-orca.engrad-mp2.def2tzvp.frozencore

                    ********************************
                    * MULLIKEN POPULATION ANALYSIS *
                    ********************************

-----------------------
MULLIKEN ATOMIC CHARGES
-----------------------
   0 O :   -0.765141
   1 H :    0.328047
   2 H :    0.395462
   3 O :   -0.759250
   4 H :    0.385334
   5 H :    0.377098
   6 O :   -0.757231
   7 H :    0.344044
   8 H :    0.383094
   9 O :   -0.718697
  10 H :    0.360374
  11 H :    0.387876
  12 O :   -0.750369
  13 H :    0.400616
  14 H :    0.372451
  15 O :   -0.746932
  16 H :    0.371193
  17 H :    0.392032
Sum of atomic charges:   -0.0000000

--------------------------------
MULLIKEN REDUCED ORBITAL CHARGES
--------------------------------
  0 O s       :     3.803230  s :     3.803230
      pz      :     1.707267  p :     4.907374
      px      :     1.790617
      py      :     1.409491
      dz2     :     0.009496  d :     0.050508
      dxz     :     0.010774
      dyz     :     0.010114
      dx2y2   :     0.007785
      dxy     :     0.012339
      f0      :     0.000455  f :     0.004029
      f+1     :     0.000547
      f-1     :     0.000690
      f+2     :     0.000438
      f-2     :     0.000724
      f+3     :     0.000713
      f-3     :     0.000461
  1 H s       :     0.624105  s :     0.624105
      pz      :     0.017620  p :     0.047848
      px      :     0.015875
      py      :     0.014352
  2 H s       :     0.545923  s :     0.545923
      pz      :     0.011380  p :     0.058615
      px      :     0.014582
      py      :     0.032653
  3 O s       :     3.791823  s :     3.791823
      pz      :     1.583245  p :     4.911786
      px      :     1.825275
      py      :     1.503266
      dz2     :     0.016526  d :     0.051717
      dxz     :     0.007849
      dyz     :     0.008299
      dx2y2   :     0.008927
      dxy     :     0.010117
      f0      :     0.000541  f :     0.003923
      f+1     :     0.000483
      f-1     :     0.000821
      f+2     :     0.000434
      f-2     :     0.000408
      f+3     :     0.000769
      f-3     :     0.000467
  4 H s       :     0.564783  s :     0.564783
      pz      :     0.024459  p :     0.049884
      px      :     0.013681
      py      :     0.011744
  5 H s       :     0.567772  s :     0.567772
      pz      :     0.010444  p :     0.055130
      px      :     0.015542
      py      :     0.029144
  6 O s       :     3.804198  s :     3.804198
      pz      :     1.524168  p :     4.898691
      px      :     1.504959
      py      :     1.869564
      dz2     :     0.015529  d :     0.050321
      dxz     :     0.008014
      dyz     :     0.007920
      dx2y2   :     0.008372
      dxy     :     0.010485
      f0      :     0.000589  f :     0.004022
      f+1     :     0.000803
      f-1     :     0.000496
      f+2     :     0.000442
      f-2     :     0.000404
      f+3     :     0.000483
      f-3     :     0.000805
  7 H s       :     0.609282  s :     0.609282
      pz      :     0.018651  p :     0.046674
      px      :     0.012942
      py      :     0.015081
  8 H s       :     0.561577  s :     0.561577
      pz      :     0.009664  p :     0.055329
      px      :     0.029442
      py      :     0.016224
  9 O s       :     3.803655  s :     3.803655
      pz      :     1.540948  p :     4.858048
      px      :     1.481824
      py      :     1.835275
      dz2     :     0.017219  d :     0.052993
      dxz     :     0.008308
      dyz     :     0.007884
      dx2y2   :     0.009164
      dxy     :     0.010418
      f0      :     0.000551  f :     0.004001
      f+1     :     0.000834
      f-1     :     0.000492
      f+2     :     0.000432
      f-2     :     0.000406
      f+3     :     0.000477
      f-3     :     0.000808
 10 H s       :     0.594190  s :     0.594190
      pz      :     0.019172  p :     0.045436
      px      :     0.012036
      py      :     0.014228
 11 H s       :     0.568682  s :     0.568682
      pz      :     0.010253  p :     0.043442
      px      :     0.018910
      py      :     0.014279
 12 O s       :     3.787160  s :     3.787160
      pz      :     1.567281  p :     4.907500
      px      :     1.567088
      py      :     1.773131
      dz2     :     0.016845  d :     0.051743
      dxz     :     0.006686
      dyz     :     0.007937
      dx2y2   :     0.008097
      dxy     :     0.012178
      f0      :     0.000614  f :     0.003966
      f+1     :     0.000749
      f-1     :     0.000530
      f+2     :     0.000416
      f-2     :     0.000424
      f+3     :     0.000426
      f-3     :     0.000808
 13 H s       :     0.550250  s :     0.550250
      pz      :     0.024910  p :     0.049135
      px      :     0.011635
      py      :     0.012590
 14 H s       :     0.576289  s :     0.576289
      pz      :     0.010938  p :     0.051260
      px      :     0.023803
      py      :     0.016518
 15 O s       :     3.803008  s :     3.803008
      pz      :     1.721724  p :     4.888746
      px      :     1.783772
      py      :     1.383250
      dz2     :     0.009584  d :     0.051137
      dxz     :     0.010902
      dyz     :     0.009921
      dx2y2   :     0.008007
      dxy     :     0.012724
      f0      :     0.000458  f :     0.004041
      f+1     :     0.000546
      f-1     :     0.000697
      f+2     :     0.000432
      f-2     :     0.000713
      f+3     :     0.000732
      f-3     :     0.000464
 16 H s       :     0.582338  s :     0.582338
      pz      :     0.017489  p :     0.046469
      px      :     0.015344
      py      :     0.013636
 17 H s       :     0.566235  s :     0.566235
      pz      :     0.011046  p :     0.041733
      px      :     0.012603
      py      :     0.018085


                     *******************************
                     * LOEWDIN POPULATION ANALYSIS *
                     *******************************

----------------------
LOEWDIN ATOMIC CHARGES
----------------------
   0 O :   -0.377649
   1 H :    0.145114
   2 H :    0.149879
   3 O :   -0.323918
   4 H :    0.151168
   5 H :    0.146411
   6 O :   -0.345729
   7 H :    0.161024
   8 H :    0.150115
   9 O :   -0.296707
  10 H :    0.170408
  11 H :    0.186833
  12 O :   -0.296457
  13 H :    0.161777
  14 H :    0.149629
  15 O :   -0.294318
  16 H :    0.166352
  17 H :    0.196070

-------------------------------
LOEWDIN REDUCED ORBITAL CHARGES
-------------------------------
  0 O s       :     3.463686  s :     3.463686
      pz      :     1.694308  p :     4.851806
      px      :     1.769192
      py      :     1.388305
      dz2     :     0.009767  d :     0.057395
      dxz     :     0.011384
      dyz     :     0.012865
      dx2y2   :     0.008882
      dxy     :     0.014496
      f0      :     0.000451  f :     0.004763
      f+1     :     0.000648
      f-1     :     0.000849
      f+2     :     0.000410
      f-2     :     0.001045
      f+3     :     0.000888
      f-3     :     0.000471
  1 H s       :     0.687179  s :     0.687179
      pz      :     0.066818  p :     0.167708
      px      :     0.054258
      py      :     0.046632
  2 H s       :     0.651317  s :     0.651317
      pz      :     0.034164  p :     0.198804
      px      :     0.048532
      py      :     0.116109
  3 O s       :     3.452649  s :     3.452649
      pz      :     1.560855  p :     4.808430
      px      :     1.770433
      py      :     1.477141
      dz2     :     0.019673  d :     0.058113
      dxz     :     0.006904
      dyz     :     0.009322
      dx2y2   :     0.010628
      dxy     :     0.011586
      f0      :     0.000755  f :     0.004727
      f+1     :     0.000587
      f-1     :     0.001146
      f+2     :     0.000412
      f-2     :     0.000419
      f+3     :     0.000959
      f-3     :     0.000450
  4 H s       :     0.672854  s :     0.672854
      pz      :     0.093662  p :     0.175978
      px      :     0.043902
      py      :     0.038414
  5 H s       :     0.664518  s :     0.664518
      pz      :     0.031251  p :     0.189071
      px      :     0.053439
      py      :     0.104382
  6 O s       :     3.459355  s :     3.459355
      pz      :     1.513559  p :     4.823351
      px      :     1.480092
      py      :     1.829700
      dz2     :     0.020432  d :     0.058230
      dxz     :     0.009681
      dyz     :     0.007168
      dx2y2   :     0.009316
      dxy     :     0.011633
      f0      :     0.000822  f :     0.004792
      f+1     :     0.001170
      f-1     :     0.000576
      f+2     :     0.000417
      f-2     :     0.000419
      f+3     :     0.000442
      f-3     :     0.000947
  7 H s       :     0.677057  s :     0.677057
      pz      :     0.080197  p :     0.161920
      px      :     0.037606
      py      :     0.044117
  8 H s       :     0.659346  s :     0.659346
      pz      :     0.029650  p :     0.190539
      px      :     0.107284
      py      :     0.053605
  9 O s       :     3.464943  s :     3.464943
      pz      :     1.537289  p :     4.766295
      px      :     1.455332
      py      :     1.773674
      dz2     :     0.021309  d :     0.060624
      dxz     :     0.009573
      dyz     :     0.006928
      dx2y2   :     0.010890
      dxy     :     0.011924
      f0      :     0.000780  f :     0.004845
      f+1     :     0.001178
      f-1     :     0.000601
      f+2     :     0.000412
      f-2     :     0.000417
      f+3     :     0.000451
      f-3     :     0.001004
 10 H s       :     0.667891  s :     0.667891
      pz      :     0.081608  p :     0.161701
      px      :     0.036403
      py      :     0.043690
 11 H s       :     0.655746  s :     0.655746
      pz      :     0.029565  p :     0.157421
      px      :     0.077786
      py      :     0.050071
 12 O s       :     3.443340  s :     3.443340
      pz      :     1.536124  p :     4.789492
      px      :     1.536912
      py      :     1.716456
      dz2     :     0.020573  d :     0.058787
      dxz     :     0.007198
      dyz     :     0.007321
      dx2y2   :     0.009181
      dxy     :     0.014515
      f0      :     0.000833  f :     0.004838
      f+1     :     0.000969
      f-1     :     0.000726
      f+2     :     0.000390
      f-2     :     0.000424
      f+3     :     0.000408
      f-3     :     0.001087
 13 H s       :     0.662947  s :     0.662947
      pz      :     0.095681  p :     0.175276
      px      :     0.037432
      py      :     0.042163
 14 H s       :     0.673575  s :     0.673575
      pz      :     0.032202  p :     0.176796
      px      :     0.085783
      py      :     0.058810
 15 O s       :     3.457472  s :     3.457472
      pz      :     1.675982  p :     4.772564
      px      :     1.735926
      py      :     1.360656
      dz2     :     0.011058  d :     0.059472
      dxz     :     0.011084
      dyz     :     0.012331
      dx2y2   :     0.009692
      dxy     :     0.015306
      f0      :     0.000474  f :     0.004811
      f+1     :     0.000657
      f-1     :     0.000853
      f+2     :     0.000409
      f-2     :     0.001007
      f+3     :     0.000937
      f-3     :     0.000474
 16 H s       :     0.666526  s :     0.666526
      pz      :     0.067896  p :     0.167122
      px      :     0.053766
      py      :     0.045460
 17 H s       :     0.651433  s :     0.651433
      pz      :     0.033916  p :     0.152497
      px      :     0.044345
      py      :     0.074235


                      *****************************
                      * MAYER POPULATION ANALYSIS *
                      *****************************

  NA   - Mulliken gross atomic population
  ZA   - Total nuclear charge
  QA   - Mulliken gross atomic charge
  VA   - Mayer's total valence
  BVA  - Mayer's bonded valence
  FA   - Mayer's free valence

  ATOM       NA         ZA         QA         VA         BVA        FA
  0 O      8.7651     8.0000    -0.7651     1.9978     1.6048     0.3931
  1 H      0.6720     1.0000     0.3280     0.9130     0.8647     0.0482
  2 H      0.6045     1.0000     0.3955     0.8868     0.8412     0.0456
  3 O      8.7593     8.0000    -0.7593     2.0220     1.6287     0.3934
  4 H      0.6147     1.0000     0.3853     0.8798     0.8353     0.0445
  5 H      0.6229     1.0000     0.3771     0.9012     0.8543     0.0469
  6 O      8.7572     8.0000    -0.7572     2.0117     1.6184     0.3932
  7 H      0.6560     1.0000     0.3440     0.9028     0.8550     0.0478
  8 H      0.6169     1.0000     0.3831     0.9003     0.8534     0.0469
  9 O      8.7187     8.0000    -0.7187     2.0795     1.6904     0.3891
 10 H      0.6396     1.0000     0.3604     0.8871     0.8408     0.0463
 11 H      0.6121     1.0000     0.3879     0.8714     0.8261     0.0453
 12 O      8.7504     8.0000    -0.7504     2.0430     1.6526     0.3903
 13 H      0.5994     1.0000     0.4006     0.8717     0.8285     0.0432
 14 H      0.6275     1.0000     0.3725     0.8938     0.8480     0.0458
 15 O      8.7469     8.0000    -0.7469     2.0602     1.6674     0.3927
 16 H      0.6288     1.0000     0.3712     0.8818     0.8372     0.0446
 17 H      0.6080     1.0000     0.3920     0.8657     0.8197     0.0460

  Mayer bond orders larger than 0.100000
B(  0-O ,  1-H ) :   0.8590 B(  0-O ,  2-H ) :   0.7635 B(  3-O ,  4-H ) :   0.8111 
B(  3-O ,  5-H ) :   0.7870 B(  6-O ,  7-H ) :   0.8476 B(  6-O ,  8-H ) :   0.7675 
B(  9-O , 10-H ) :   0.8358 B(  9-O , 11-H ) :   0.8120 B( 12-O , 13-H ) :   0.7944 
B( 12-O , 14-H ) :   0.8166 B( 15-O , 16-H ) :   0.8288 B( 15-O , 17-H ) :   0.8061 



                *******************************************
                * RELAXED MP2 DENSITY POPULATION ANALYSIS *
                *******************************************

------------------------------------------------------------------------------
                           ORCA POPULATION ANALYSIS
------------------------------------------------------------------------------
Input electron density              ... 12h2o.su.etal.mol2,4,6,7,8,10-orca.engrad-mp2.def2tzvp.frozencore.pmp2re
BaseName (.gbw .S,...)              ... 12h2o.su.etal.mol2,4,6,7,8,10-orca.engrad-mp2.def2tzvp.frozencore

                    ********************************
                    * MULLIKEN POPULATION ANALYSIS *
                    ********************************

-----------------------
MULLIKEN ATOMIC CHARGES
-----------------------
   0 O :   -0.745501
   1 H :    0.321979
   2 H :    0.370991
   3 O :   -0.723987
   4 H :    0.371776
   5 H :    0.355389
   6 O :   -0.733206
   7 H :    0.336603
   8 H :    0.357431
   9 O :   -0.695372
  10 H :    0.354928
  11 H :    0.379450
  12 O :   -0.717946
  13 H :    0.386563
  14 H :    0.356863
  15 O :   -0.724187
  16 H :    0.364393
  17 H :    0.383834
Sum of atomic charges:   -0.0000000

--------------------------------
MULLIKEN REDUCED ORBITAL CHARGES
--------------------------------
  0 O s       :     3.804098  s :     3.804098
      pz      :     1.701608  p :     4.888833
      px      :     1.784328
      py      :     1.402897
      dz2     :     0.009296  d :     0.048606
      dxz     :     0.010453
      dyz     :     0.009541
      dx2y2   :     0.007659
      dxy     :     0.011658
      f0      :     0.000453  f :     0.003963
      f+1     :     0.000539
      f-1     :     0.000673
      f+2     :     0.000438
      f-2     :     0.000705
      f+3     :     0.000696
      f-3     :     0.000459
  1 H s       :     0.629384  s :     0.629384
      pz      :     0.017760  p :     0.048637
      px      :     0.016489
      py      :     0.014388
  2 H s       :     0.570266  s :     0.570266
      pz      :     0.012131  p :     0.058744
      px      :     0.015091
      py      :     0.031522
  3 O s       :     3.787965  s :     3.787965
      pz      :     1.579793  p :     4.882143
      px      :     1.804836
      py      :     1.497514
      dz2     :     0.015537  d :     0.050023
      dxz     :     0.007903
      dyz     :     0.008088
      dx2y2   :     0.008732
      dxy     :     0.009764
      f0      :     0.000529  f :     0.003856
      f+1     :     0.000478
      f-1     :     0.000794
      f+2     :     0.000433
      f-2     :     0.000406
      f+3     :     0.000749
      f-3     :     0.000465
  4 H s       :     0.577779  s :     0.577779
      pz      :     0.023800  p :     0.050445
      px      :     0.014579
      py      :     0.012065
  5 H s       :     0.589032  s :     0.589032
      pz      :     0.011139  p :     0.055579
      px      :     0.016109
      py      :     0.028331
  6 O s       :     3.805819  s :     3.805819
      pz      :     1.513477  p :     4.875147
      px      :     1.498917
      py      :     1.862753
      dz2     :     0.014375  d :     0.048287
      dxz     :     0.007721
      dyz     :     0.007930
      dx2y2   :     0.008183
      dxy     :     0.010078
      f0      :     0.000577  f :     0.003954
      f+1     :     0.000774
      f-1     :     0.000490
      f+2     :     0.000441
      f-2     :     0.000403
      f+3     :     0.000482
      f-3     :     0.000787
  7 H s       :     0.615982  s :     0.615982
      pz      :     0.017929  p :     0.047414
      px      :     0.013426
      py      :     0.016060
  8 H s       :     0.586912  s :     0.586912
      pz      :     0.010342  p :     0.055657
      px      :     0.028523
      py      :     0.016793
  9 O s       :     3.807019  s :     3.807019
      pz      :     1.534992  p :     4.833568
      px      :     1.478580
      py      :     1.819996
      dz2     :     0.015993  d :     0.050858
      dxz     :     0.008048
      dyz     :     0.007946
      dx2y2   :     0.008888
      dxy     :     0.009983
      f0      :     0.000536  f :     0.003927
      f+1     :     0.000806
      f-1     :     0.000486
      f+2     :     0.000432
      f-2     :     0.000405
      f+3     :     0.000474
      f-3     :     0.000787
 10 H s       :     0.598987  s :     0.598987
      pz      :     0.018504  p :     0.046085
      px      :     0.012402
      py      :     0.015179
 11 H s       :     0.576591  s :     0.576591
      pz      :     0.010930  p :     0.043959
      px      :     0.018121
      py      :     0.014907
 12 O s       :     3.783915  s :     3.783915
      pz      :     1.563876  p :     4.880145
      px      :     1.562257
      py      :     1.754012
      dz2     :     0.015720  d :     0.049990
      dxz     :     0.006668
      dyz     :     0.007923
      dx2y2   :     0.008087
      dxy     :     0.011593
      f0      :     0.000597  f :     0.003896
      f+1     :     0.000728
      f-1     :     0.000521
      f+2     :     0.000416
      f-2     :     0.000423
      f+3     :     0.000426
      f-3     :     0.000785
 13 H s       :     0.563933  s :     0.563933
      pz      :     0.024099  p :     0.049504
      px      :     0.012054
      py      :     0.013351
 14 H s       :     0.591301  s :     0.591301
      pz      :     0.011630  p :     0.051836
      px      :     0.023250
      py      :     0.016956
 15 O s       :     3.806424  s :     3.806424
      pz      :     1.712629  p :     4.864781
      px      :     1.772212
      py      :     1.379940
      dz2     :     0.009367  d :     0.049015
      dxz     :     0.010645
      dyz     :     0.009330
      dx2y2   :     0.007762
      dxy     :     0.011911
      f0      :     0.000456  f :     0.003968
      f+1     :     0.000538
      f-1     :     0.000678
      f+2     :     0.000431
      f-2     :     0.000692
      f+3     :     0.000711
      f-3     :     0.000463
 16 H s       :     0.588463  s :     0.588463
      pz      :     0.017606  p :     0.047143
      px      :     0.015973
      py      :     0.013564
 17 H s       :     0.573955  s :     0.573955
      pz      :     0.011841  p :     0.042211
      px      :     0.013261
      py      :     0.017108


                     *******************************
                     * LOEWDIN POPULATION ANALYSIS *
                     *******************************

----------------------
LOEWDIN ATOMIC CHARGES
----------------------
   0 O :   -0.379803
   1 H :    0.147050
   2 H :    0.142005
   3 O :   -0.316296
   4 H :    0.147431
   5 H :    0.139721
   6 O :   -0.344895
   7 H :    0.162703
   8 H :    0.142418
   9 O :   -0.291527
  10 H :    0.172467
  11 H :    0.187348
  12 O :   -0.288730
  13 H :    0.158324
  14 H :    0.145563
  15 O :   -0.288481
  16 H :    0.168122
  17 H :    0.196579

-------------------------------
LOEWDIN REDUCED ORBITAL CHARGES
-------------------------------
  0 O s       :     3.465229  s :     3.465229
      pz      :     1.693872  p :     4.853159
      px      :     1.767477
      py      :     1.391810
      dz2     :     0.009725  d :     0.056613
      dxz     :     0.011280
      dyz     :     0.012488
      dx2y2   :     0.008878
      dxy     :     0.014243
      f0      :     0.000454  f :     0.004802
      f+1     :     0.000648
      f-1     :     0.000862
      f+2     :     0.000410
      f-2     :     0.001046
      f+3     :     0.000905
      f-3     :     0.000476
  1 H s       :     0.684935  s :     0.684935
      pz      :     0.066936  p :     0.168015
      px      :     0.054806
      py      :     0.046273
  2 H s       :     0.659079  s :     0.659079
      pz      :     0.034832  p :     0.198915
      px      :     0.049063
      py      :     0.115020
  3 O s       :     3.453354  s :     3.453354
      pz      :     1.562075  p :     4.800548
      px      :     1.758790
      py      :     1.479684
      dz2     :     0.019314  d :     0.057635
      dxz     :     0.006976
      dyz     :     0.009149
      dx2y2   :     0.010652
      dxy     :     0.011543
      f0      :     0.000756  f :     0.004759
      f+1     :     0.000588
      f-1     :     0.001158
      f+2     :     0.000413
      f-2     :     0.000418
      f+3     :     0.000973
      f-3     :     0.000453
  4 H s       :     0.676178  s :     0.676178
      pz      :     0.093122  p :     0.176391
      px      :     0.044576
      py      :     0.038693
  5 H s       :     0.670368  s :     0.670368
      pz      :     0.031793  p :     0.189911
      px      :     0.053932
      py      :     0.104186
  6 O s       :     3.460720  s :     3.460720
      pz      :     1.512409  p :     4.821883
      px      :     1.482463
      py      :     1.827011
      dz2     :     0.019949  d :     0.057464
      dxz     :     0.009454
      dyz     :     0.007225
      dx2y2   :     0.009288
      dxy     :     0.011548
      f0      :     0.000823  f :     0.004828
      f+1     :     0.001184
      f-1     :     0.000576
      f+2     :     0.000420
      f-2     :     0.000418
      f+3     :     0.000445
      f-3     :     0.000963
  7 H s       :     0.675211  s :     0.675211
      pz      :     0.079454  p :     0.162086
      px      :     0.037648
      py      :     0.044984
  8 H s       :     0.666406  s :     0.666406
      pz      :     0.029957  p :     0.191176
      px      :     0.106890
      py      :     0.054329
  9 O s       :     3.466596  s :     3.466596
      pz      :     1.538698  p :     4.760551
      px      :     1.458664
      py      :     1.763188
      dz2     :     0.020668  d :     0.059521
      dxz     :     0.009331
      dyz     :     0.007005
      dx2y2   :     0.010775
      dxy     :     0.011742
      f0      :     0.000777  f :     0.004860
      f+1     :     0.001186
      f-1     :     0.000602
      f+2     :     0.000414
      f-2     :     0.000416
      f+3     :     0.000454
      f-3     :     0.001011
 10 H s       :     0.665873  s :     0.665873
      pz      :     0.080921  p :     0.161660
      px      :     0.036307
      py      :     0.044432
 11 H s       :     0.655522  s :     0.655522
      pz      :     0.029963  p :     0.157130
      px      :     0.076576
      py      :     0.050591
 12 O s       :     3.443634  s :     3.443634
      pz      :     1.537774  p :     4.782047
      px      :     1.538080
      py      :     1.706193
      dz2     :     0.020126  d :     0.058186
      dxz     :     0.007100
      dyz     :     0.007361
      dx2y2   :     0.009273
      dxy     :     0.014326
      f0      :     0.000836  f :     0.004863
      f+1     :     0.000977
      f-1     :     0.000728
      f+2     :     0.000391
      f-2     :     0.000425
      f+3     :     0.000409
      f-3     :     0.001098
 13 H s       :     0.666303  s :     0.666303
      pz      :     0.094829  p :     0.175372
      px      :     0.037834
      py      :     0.042709
 14 H s       :     0.676988  s :     0.676988
      pz      :     0.032769  p :     0.177449
      px      :     0.085422
      py      :     0.059258
 15 O s       :     3.459135  s :     3.459135
      pz      :     1.671128  p :     4.766052
      px      :     1.729277
      py      :     1.365647
      dz2     :     0.011016  d :     0.058464
      dxz     :     0.011079
      dyz     :     0.011971
      dx2y2   :     0.009502
      dxy     :     0.014896
      f0      :     0.000477  f :     0.004830
      f+1     :     0.000657
      f-1     :     0.000859
      f+2     :     0.000409
      f-2     :     0.001008
      f+3     :     0.000943
      f-3     :     0.000477
 16 H s       :     0.665022  s :     0.665022
      pz      :     0.067896  p :     0.166856
      px      :     0.054256
      py      :     0.044704
 17 H s       :     0.651169  s :     0.651169
      pz      :     0.034578  p :     0.152252
      px      :     0.044956
      py      :     0.072717


                      *****************************
                      * MAYER POPULATION ANALYSIS *
                      *****************************

  NA   - Mulliken gross atomic population
  ZA   - Total nuclear charge
  QA   - Mulliken gross atomic charge
  VA   - Mayer's total valence
  BVA  - Mayer's bonded valence
  FA   - Mayer's free valence

  ATOM       NA         ZA         QA         VA         BVA        FA
  0 O      8.7455     8.0000    -0.7455     2.0051     1.6168     0.3882
  1 H      0.6780     1.0000     0.3220     0.9167     0.8683     0.0483
  2 H      0.6290     1.0000     0.3710     0.9171     0.8723     0.0448
  3 O      8.7240     8.0000    -0.7240     2.0628     1.6755     0.3872
  4 H      0.6282     1.0000     0.3718     0.8974     0.8532     0.0442
  5 H      0.6446     1.0000     0.3554     0.9302     0.8842     0.0460
  6 O      8.7332     8.0000    -0.7332     2.0297     1.6419     0.3878
  7 H      0.6634     1.0000     0.3366     0.9077     0.8597     0.0479
  8 H      0.6426     1.0000     0.3574     0.9334     0.8878     0.0456
  9 O      8.6954     8.0000    -0.6954     2.1104     1.7272     0.3832
 10 H      0.6451     1.0000     0.3549     0.8908     0.8444     0.0465
 11 H      0.6206     1.0000     0.3794     0.8808     0.8357     0.0451
 12 O      8.7179     8.0000    -0.7179     2.0864     1.7022     0.3843
 13 H      0.6134     1.0000     0.3866     0.8908     0.8479     0.0429
 14 H      0.6431     1.0000     0.3569     0.9154     0.8701     0.0454
 15 O      8.7242     8.0000    -0.7242     2.0990     1.7126     0.3864
 16 H      0.6356     1.0000     0.3644     0.8871     0.8425     0.0446
 17 H      0.6162     1.0000     0.3838     0.8747     0.8288     0.0458

  Mayer bond orders larger than 0.100000
B(  0-O ,  1-H ) :   0.8620 B(  0-O ,  2-H ) :   0.7649 B(  2-H , 12-O ) :   0.1061 
B(  3-O ,  4-H ) :   0.8155 B(  3-O ,  5-H ) :   0.7870 B(  3-O ,  8-H ) :   0.1112 
B(  6-O ,  7-H ) :   0.8505 B(  6-O ,  8-H ) :   0.7651 B(  9-O , 10-H ) :   0.8390 
B(  9-O , 11-H ) :   0.8154 B( 12-O , 13-H ) :   0.7986 B( 12-O , 14-H ) :   0.8194 
B( 15-O , 16-H ) :   0.8319 B( 15-O , 17-H ) :   0.8096 


----------------------------------
MP2 DERIVATIVE INTEGRAL GENERATION
----------------------------------


Input Wavefunction Amplitudes       ... 12h2o.su.etal.mol2,4,6,7,8,10-orca.engrad-mp2.def2tzvp.frozencore.mp2tsaa.tmp
Input Correlated Electron Density   ... 12h2o.su.etal.mol2,4,6,7,8,10-orca.engrad-mp2.def2tzvp.frozencore.pmp2re
Input Energy Weighted Density       ... 12h2o.su.etal.mol2,4,6,7,8,10-orca.engrad-mp2.def2tzvp.frozencore.wmp2.tmp
Input SCF Electron Density          ... 12h2o.su.etal.mol2,4,6,7,8,10-orca.engrad-mp2.def2tzvp.frozencore.scfp

One-Electron Terms    ...
                        ... One-Electron Terms done
Prescreening matrices              ... done

Batch handling in the gradient evaluation:
Memory available                      ... 8000.0 MB
Memory per occupied orbital in Q2     ...   12.2 MB
Memory per occupied orbital in Q3     ...    0.1 MB
Total memory requirement per |i>      ...   12.3 MB
Max. Number of orbitals possible      ...    651
Number of orbitals treated per batch  ...     24
Number of batches to be done          ...      1
Batch   0: i=    6 ...    29

---------------------------------------
MP2 TOTAL ENERGY:     -457.934838498 Eh
---------------------------------------

The final MP2 gradient
  0:   0.00036975  -0.00695054   0.00007304
  1:  -0.00023642  -0.00193092  -0.00074514
  2:   0.00266958   0.01306400  -0.00036450
  3:   0.00107630   0.00220212   0.00286196
  4:  -0.00046003   0.00185986  -0.00401181
  5:  -0.00122612  -0.00710870   0.00068077
  6:  -0.00077524  -0.00325280  -0.00966120
  7:   0.00119718   0.00124559   0.01083599
  8:  -0.00021759   0.00095964  -0.00209069
  9:  -0.01314159   0.00664543  -0.01177474
 10:  -0.00081481   0.00053831   0.00751092
 11:   0.01292859  -0.00394029   0.00513347
 12:   0.00243134  -0.00678737   0.00122028
 13:  -0.00050663   0.00147000  -0.00211285
 14:  -0.00561136   0.00070681  -0.00085044
 15:   0.00854760   0.02465497   0.00149595
 16:   0.00224153   0.00016522   0.00289011
 17:  -0.00847208  -0.02354133  -0.00109114

-----------------------------------
NORM OF THE MP2 GRADIENT:  0.050854
-----------------------------------

-------------------------   --------------------
FINAL SINGLE POINT ENERGY      -457.934838498312
-------------------------   --------------------


                            ***************************************
                            *     ORCA property calculations      *
                            ***************************************

                                    ---------------------
                                    Active property flags
                                    ---------------------
   (+) Dipole Moment


------------------------------------------------------------------------------
                       ORCA ELECTRIC PROPERTIES CALCULATION
------------------------------------------------------------------------------

Dipole Moment Calculation                       ... on
Quadrupole Moment Calculation                   ... off
Polarizability Calculation                      ... off
GBWName                                         ... 12h2o.su.etal.mol2,4,6,7,8,10-orca.engrad-mp2.def2tzvp.frozencore.gbw
Electron density file                           ... 12h2o.su.etal.mol2,4,6,7,8,10-orca.engrad-mp2.def2tzvp.frozencore.scfp
The origin for moment calculation is the CENTER OF MASS  = ( 0.253699,  0.783244 -2.668479)

-------------
DIPOLE MOMENT
-------------
                                X             Y             Z
Electronic contribution:     -0.23991       0.19571      -0.00792
Nuclear contribution   :     -0.90891       0.11126       0.19520
                        -----------------------------------------
Total Dipole Moment    :     -1.14883       0.30697       0.18728
                        -----------------------------------------
Magnitude (a.u.)       :      1.20379
Magnitude (Debye)      :      3.05978



--------------------
Rotational spectrum 
--------------------
 
Rotational constants in cm-1:     0.050966     0.038685     0.035538 
Rotational constants in MHz :  1527.916857  1159.739875  1065.390447 

 Dipole components along the rotational axes: 
x,y,z [a.u.] :     0.961043     0.026781    -0.724420 
x,y,z [Debye]:     2.442776     0.068072    -1.841329 

 

                         *** MP2 UNRELAXED DENSITY ***

------------------------------------------------------------------------------
                       ORCA ELECTRIC PROPERTIES CALCULATION
------------------------------------------------------------------------------

Dipole Moment Calculation                       ... on
Quadrupole Moment Calculation                   ... off
Polarizability Calculation                      ... off
GBWName                                         ... 12h2o.su.etal.mol2,4,6,7,8,10-orca.engrad-mp2.def2tzvp.frozencore.gbw
Electron density file                           ... 12h2o.su.etal.mol2,4,6,7,8,10-orca.engrad-mp2.def2tzvp.frozencore.pmp2ur
The origin for moment calculation is the CENTER OF MASS  = ( 0.253699,  0.783244 -2.668479)

-------------
DIPOLE MOMENT
-------------
                                X             Y             Z
Electronic contribution:     -0.23500       0.19665      -0.00971
Nuclear contribution   :     -0.90891       0.11126       0.19520
                        -----------------------------------------
Total Dipole Moment    :     -1.14392       0.30791       0.18549
                        -----------------------------------------
Magnitude (a.u.)       :      1.19906
Magnitude (Debye)      :      3.04778



--------------------
Rotational spectrum 
--------------------
 
Rotational constants in cm-1:     0.050966     0.038685     0.035538 
Rotational constants in MHz :  1527.916857  1159.739875  1065.390447 

 Dipole components along the rotational axes: 
x,y,z [a.u.] :     0.956847     0.024380    -0.722223 
x,y,z [Debye]:     2.432111     0.061969    -1.835745 

 

                           *** MP2 RELAXED DENSITY ***

------------------------------------------------------------------------------
                       ORCA ELECTRIC PROPERTIES CALCULATION
------------------------------------------------------------------------------

Dipole Moment Calculation                       ... on
Quadrupole Moment Calculation                   ... off
Polarizability Calculation                      ... off
GBWName                                         ... 12h2o.su.etal.mol2,4,6,7,8,10-orca.engrad-mp2.def2tzvp.frozencore.gbw
Electron density file                           ... 12h2o.su.etal.mol2,4,6,7,8,10-orca.engrad-mp2.def2tzvp.frozencore.pmp2re
The origin for moment calculation is the CENTER OF MASS  = ( 0.253699,  0.783244 -2.668479)

-------------
DIPOLE MOMENT
-------------
                                X             Y             Z
Electronic contribution:     -0.24928       0.19278      -0.00832
Nuclear contribution   :     -0.90891       0.11126       0.19520
                        -----------------------------------------
Total Dipole Moment    :     -1.15819       0.30405       0.18688
                        -----------------------------------------
Magnitude (a.u.)       :      1.21193
Magnitude (Debye)      :      3.08048



--------------------
Rotational spectrum 
--------------------
 
Rotational constants in cm-1:     0.050966     0.038685     0.035538 
Rotational constants in MHz :  1527.916857  1159.739875  1065.390447 

 Dipole components along the rotational axes: 
x,y,z [a.u.] :     0.966016     0.031932    -0.731143 
x,y,z [Debye]:     2.455417     0.081164    -1.858418 

 

Timings for individual modules:

Sum of individual times         ...       75.063 sec (=   1.251 min)
GTO integral calculation        ...        0.984 sec (=   0.016 min)   1.3 %
SCF iterations                  ...       14.844 sec (=   0.247 min)  19.8 %
MP2 module                      ...       59.235 sec (=   0.987 min)  78.9 %
                             ****ORCA TERMINATED NORMALLY****
TOTAL RUN TIME: 0 days 0 hours 1 minutes 16 seconds 5 msec
