
                                 *****************
                                 * O   R   C   A *
                                 *****************

           --- An Ab Initio, DFT and Semiempirical electronic structure package ---

                  #######################################################
                  #                        -***-                        #
                  #          Department of theory and spectroscopy      #
                  #               Directorship: Frank Neese             #
                  #        Max Planck Institute fuer Kohlenforschung    #
                  #                Kaiser Wilhelm Platz 1               #
                  #                 D-45470 Muelheim/Ruhr               #
                  #                      Germany                        #
                  #                                                     #
                  #                  All rights reserved                #
                  #                        -***-                        #
                  #######################################################


                         Program Version 4.2.0 -  RELEASE  -


 With contributions from (in alphabetic order):
   Daniel Aravena         : Magnetic Suceptibility
   Michael Atanasov       : Ab Initio Ligand Field Theory (pilot matlab implementation)
   Alexander A. Auer      : GIAO ZORA, VPT2
   Ute Becker             : Parallelization
   Giovanni Bistoni       : ED, misc. LED, open-shell LED, HFLED
   Martin Brehm           : Molecular dynamics
   Dmytro Bykov           : SCF Hessian
   Vijay G. Chilkuri      : MRCI spin determinant printing, contributions to CSF-ICE
   Dipayan Datta          : RHF DLPNO-CCSD density
   Achintya Kumar Dutta   : EOM-CC, STEOM-CC
   Dmitry Ganyushin       : Spin-Orbit,Spin-Spin,Magnetic field MRCI
   Miquel Garcia          : C-PCM Hessian, Gaussian charge scheme
   Yang Guo               : DLPNO-NEVPT2, CIM, IAO-localization
   Andreas Hansen         : Spin unrestricted coupled pair/coupled cluster methods
   Benjamin Helmich-Paris : CASSCF linear response (MC-RPA)
   Lee Huntington         : MR-EOM, pCC
   Robert Izsak           : Overlap fitted RIJCOSX, COSX-SCS-MP3, EOM
   Christian Kollmar      : KDIIS, OOCD, Brueckner-CCSD(T), CCSD density
   Simone Kossmann        : Meta GGA functionals, TD-DFT gradient, OOMP2, MP2 Hessian
   Martin Krupicka        : AUTO-CI
   Lucas Lang             : DCDCAS
   Dagmar Lenk            : GEPOL surface, SMD
   Dimitrios Liakos       : Extrapolation schemes; Compound Job, initial MDCI parallelization
   Dimitrios Manganas     : Further ROCIS development; embedding schemes
   Dimitrios Pantazis     : SARC Basis sets
   Taras Petrenko         : DFT Hessian,TD-DFT gradient, ASA, ECA, R-Raman, ABS, FL, XAS/XES, NRVS
   Peter Pinski           : DLPNO-MP2, DLPNO-MP2 Gradient
   Christoph Reimann      : Effective Core Potentials
   Marius Retegan         : Local ZFS, SOC
   Christoph Riplinger    : Optimizer, TS searches, QM/MM, DLPNO-CCSD(T), (RO)-DLPNO pert. Triples
   Tobias Risthaus        : Range-separated hybrids, TD-DFT gradient, RPA, STAB
   Michael Roemelt        : Original ROCIS implementation
   Masaaki Saitow         : Open-shell DLPNO-CCSD energy and density
   Barbara Sandhoefer     : DKH picture change effects
   Avijit Sen             : IP-ROCIS
   Kantharuban Sivalingam : CASSCF convergence, NEVPT2, FIC-MRCI
   Bernardo de Souza      : ESD, SOC TD-DFT
   Georgi Stoychev        : AutoAux, RI-MP2 NMR
   Willem Van den Heuvel  : Paramagnetic NMR
   Boris Wezisla          : Elementary symmetry handling
   Frank Wennmohs         : Technical directorship


 We gratefully acknowledge several colleagues who have allowed us to
 interface, adapt or use parts of their codes:
   Stefan Grimme, W. Hujo, H. Kruse,             : VdW corrections, initial TS optimization,
                  C. Bannwarth                     DFT functionals, gCP, sTDA/sTD-DF
   Ed Valeev, F. Pavosevic, A. Kumar             : LibInt (2-el integral package), F12 methods
   Garnet Chan, S. Sharma, J. Yang, R. Olivares  : DMRG
   Ulf Ekstrom                                   : XCFun DFT Library
   Mihaly Kallay                                 : mrcc  (arbitrary order and MRCC methods)
   Andreas Klamt, Michael Diedenhofen            : otool_cosmo (COSMO solvation model)
   Jiri Pittner, Ondrej Demel                    : Mk-CCSD
   Frank Weinhold                                : gennbo (NPA and NBO analysis)
   Christopher J. Cramer and Donald G. Truhlar   : smd solvation model
   Lars Goerigk                                  : TD-DFT with DH, B97 family of functionals
   V. Asgeirsson, H. Jonsson                     : NEB implementation
   FAccTs GmbH                                   : IRC, NEB, NEB-TS, Multilevel, MM, QM/MM, CI optimization
   S Lehtola, MJT Oliveira, MAL Marques          : LibXC Library


 Your calculation uses the libint2 library for the computation of 2-el integrals
 For citations please refer to: http://libint.valeyev.net

 Your ORCA version has been built with support for libXC version: 4.2.3
 For citations please refer to: https://tddft.org/programs/libxc/

 This ORCA versions uses:
   CBLAS   interface :  Fast vector & matrix operations
   LAPACKE interface :  Fast linear algebra routines
   SCALAPACK package :  Parallel linear algebra routines


----- Orbital basis set information -----
Your calculation utilizes the basis: def2-TZVP
   F. Weigend and R. Ahlrichs, Phys. Chem. Chem. Phys. 7, 3297 (2005).

================================================================================
                                        WARNINGS
                       Please study these warnings very carefully!
================================================================================


WARNING: The frozen-core approximation for MP2-gradient calculations is turned on by default.

INFO   : the flag for use of LIBINT has been found!

================================================================================
                                       INPUT FILE
================================================================================
NAME = 12mecn.remya.etal.2.mol7,8-orca.engrad-mp2.def2tzvp.frozencore.inp
|  1> # 12mecn.remya.etal.2.mol7,8
|  2> ! MP2 def2-TZVP EnGrad TightSCF
|  3> 
|  4> %pal
|  5>     nprocs 6
|  6> end
|  7> 
|  8> %maxcore 8000
|  9> 
| 10> %scf
| 11>     ConvForced true
| 12> end
| 13> 
| 14> *xyz 0 1
| 15> C   1.502241000   0.651296000   1.710523000
| 16> H   1.309219000   1.637164000   2.143202000
| 17> H   2.493408000   0.297996000   2.009069000
| 18> H   0.746597000  -0.059850000   2.055508000
| 19> C   1.447974000   0.738517000   0.269805000
| 20> N   1.405612000   0.808047000  -0.894380000
| 21> C   1.912641000  -2.468050000  -1.750510000
| 22> H   2.876947000  -2.793500000  -2.151200000
| 23> H   1.688016000  -1.463720000  -2.122170000
| 24> H   1.123460000  -3.154780000  -2.069590000
| 25> C   1.977850000  -2.444240000  -0.306900000
| 26> N   2.036566000  -2.426130000   0.858249000
| 27> *
| 28> 
| 29>                          ****END OF INPUT****
================================================================================

                     *******************************
                     * Energy+Gradient Calculation *
                     *******************************

---------------------------------
CARTESIAN COORDINATES (ANGSTROEM)
---------------------------------
  C      1.502241    0.651296    1.710523
  H      1.309219    1.637164    2.143202
  H      2.493408    0.297996    2.009069
  H      0.746597   -0.059850    2.055508
  C      1.447974    0.738517    0.269805
  N      1.405612    0.808047   -0.894380
  C      1.912641   -2.468050   -1.750510
  H      2.876947   -2.793500   -2.151200
  H      1.688016   -1.463720   -2.122170
  H      1.123460   -3.154780   -2.069590
  C      1.977850   -2.444240   -0.306900
  N      2.036566   -2.426130    0.858249

----------------------------
CARTESIAN COORDINATES (A.U.)
----------------------------
  NO LB      ZA    FRAG     MASS         X           Y           Z
   0 C     6.0000    0    12.011    2.838824    1.230771    3.232420
   1 H     1.0000    0     1.008    2.474065    3.093792    4.050065
   2 H     1.0000    0     1.008    4.711858    0.563131    3.796590
   3 H     1.0000    0     1.008    1.410864   -0.113100    3.884347
   4 C     6.0000    0    12.011    2.736274    1.395595    0.509858
   5 N     7.0000    0    14.007    2.656222    1.526988   -1.690133
   6 C     6.0000    0    12.011    3.614368   -4.663939   -3.307984
   7 H     1.0000    0     1.008    5.436642   -5.278950   -4.065179
   8 H     1.0000    0     1.008    3.189888   -2.766030   -4.010320
   9 H     1.0000    0     1.008    2.123032   -5.961670   -3.910958
  10 C     6.0000    0    12.011    3.737595   -4.618944   -0.579957
  11 N     7.0000    0    14.007    3.848552   -4.584721    1.621856

--------------------------------
INTERNAL COORDINATES (ANGSTROEM)
--------------------------------
 C      0   0   0     0.000000000000     0.00000000     0.00000000
 H      1   0   0     1.093802689222     0.00000000     0.00000000
 H      1   2   0     1.093783628514   110.06434897     0.00000000
 H      1   2   3     1.093499491667   109.84161325   120.35254918
 C      1   2   3     1.444375562537   109.48217161   240.18923880
 N      5   1   2     1.167028566132   179.91347457   134.11316134
 C      6   5   1     3.423864561742   100.78101550    48.38462541
 H      7   6   5     1.093780709391   120.45509116   254.87877430
 H      7   6   5     1.094196643719    34.54064748   175.23349591
 H      7   6   5     1.093716960672   124.53318360   102.39974590
 C      7   6   5     1.445278160729    74.99869114   358.76555973
 N     11   7   6     1.166768071622   179.69652586   250.14973882

---------------------------
INTERNAL COORDINATES (A.U.)
---------------------------
 C      0   0   0     0.000000000000     0.00000000     0.00000000
 H      1   0   0     2.066987527176     0.00000000     0.00000000
 H      1   2   0     2.066951507658   110.06434897     0.00000000
 H      1   2   3     2.066414566834   109.84161325   120.35254918
 C      1   2   3     2.729474247723   109.48217161   240.18923880
 N      5   1   2     2.205364380453   179.91347457   134.11316134
 C      6   5   1     6.470166341330   100.78101550    48.38462541
 H      7   6   5     2.066945991315   120.45509116   254.87877430
 H      7   6   5     2.067731993284    34.54064748   175.23349591
 H      7   6   5     2.066825523694   124.53318360   102.39974590
 C      7   6   5     2.731179911116    74.99869114   358.76555973
 N     11   7   6     2.204872117169   179.69652586   250.14973882

---------------------
BASIS SET INFORMATION
---------------------
There are 3 groups of distinct atoms

 Group   1 Type C   : 11s6p2d1f contracted to 5s3p2d1f pattern {62111/411/11/1}
 Group   2 Type H   : 5s1p contracted to 3s1p pattern {311/1}
 Group   3 Type N   : 11s6p2d1f contracted to 5s3p2d1f pattern {62111/411/11/1}

Atom   0C    basis set group =>   1
Atom   1H    basis set group =>   2
Atom   2H    basis set group =>   2
Atom   3H    basis set group =>   2
Atom   4C    basis set group =>   1
Atom   5N    basis set group =>   3
Atom   6C    basis set group =>   1
Atom   7H    basis set group =>   2
Atom   8H    basis set group =>   2
Atom   9H    basis set group =>   2
Atom  10C    basis set group =>   1
Atom  11N    basis set group =>   3


           ************************************************************
           *        Program running with 6 parallel MPI-processes     *
           *              working on a common directory               *
           ************************************************************
------------------------------------------------------------------------------
                           ORCA GTO INTEGRAL CALCULATION
------------------------------------------------------------------------------

                         BASIS SET STATISTICS AND STARTUP INFO

 # of primitive gaussian shells          ...  156
 # of primitive gaussian functions       ...  324
 # of contracted shells                  ...   90
 # of contracted basis functions         ...  222
 Highest angular momentum                ...    3
 Maximum contraction depth               ...    6
 Integral package used                   ... LIBINT
 Integral threshhold            Thresh   ...  2.500e-11
 Primitive cut-off              TCut     ...  2.500e-12


------------------------------ INTEGRAL EVALUATION ----------------------------


 * One electron integrals 
 Pre-screening matrix                    ... done
 Shell pair data                         ... done (   0.001 sec)



           ************************************************************
           *        Program running with 6 parallel MPI-processes     *
           *              working on a common directory               *
           ************************************************************
-------------------------------------------------------------------------------
                                 ORCA SCF
-------------------------------------------------------------------------------

------------
SCF SETTINGS
------------
Hamiltonian:
 Ab initio Hamiltonian  Method          .... Hartree-Fock(GTOs)


General Settings:
 Integral files         IntName         .... 12mecn.remya.etal.2.mol7,8-orca.engrad-mp2.def2tzvp.frozencore
 Hartree-Fock type      HFTyp           .... RHF
 Total Charge           Charge          ....    0
 Multiplicity           Mult            ....    1
 Number of Electrons    NEL             ....   44
 Basis Dimension        Dim             ....  222
 Nuclear Repulsion      ENuc            ....    186.6973368189 Eh

Convergence Acceleration:
 DIIS                   CNVDIIS         .... on
   Start iteration      DIISMaxIt       ....    12
   Startup error        DIISStart       ....  0.200000
   # of expansion vecs  DIISMaxEq       ....     5
   Bias factor          DIISBfac        ....   1.050
   Max. coefficient     DIISMaxC        ....  10.000
 Newton-Raphson         CNVNR           .... off
 SOSCF                  CNVSOSCF        .... on
   Start iteration      SOSCFMaxIt      ....   150
   Startup grad/error   SOSCFStart      ....  0.003300
 Level Shifting         CNVShift        .... on
   Level shift para.    LevelShift      ....    0.2500
   Turn off err/grad.   ShiftErr        ....    0.0010
 Zerner damping         CNVZerner       .... off
 Static damping         CNVDamp         .... on
   Fraction old density DampFac         ....    0.7000
   Max. Damping (<1)    DampMax         ....    0.9800
   Min. Damping (>=0)   DampMin         ....    0.0000
   Turn off err/grad.   DampErr         ....    0.1000
 Fernandez-Rico         CNVRico         .... off

SCF Procedure:
 Maximum # iterations   MaxIter         ....   125
 SCF integral mode      SCFMode         .... Direct
   Integral package                     .... LIBINT
 Reset frequency        DirectResetFreq ....    20
 Integral Threshold     Thresh          ....  2.500e-11 Eh
 Primitive CutOff       TCut            ....  2.500e-12 Eh

Convergence Tolerance:
 Convergence Check Mode ConvCheckMode   .... Total+1el-Energy
 Convergence forced     ConvForced      .... 1
 Energy Change          TolE            ....  1.000e-08 Eh
 1-El. energy change                    ....  1.000e-05 Eh
 Orbital Gradient       TolG            ....  1.000e-05
 Orbital Rotation angle TolX            ....  1.000e-05
 DIIS Error             TolErr          ....  5.000e-07


Diagonalization of the overlap matrix:
Smallest eigenvalue                        ... 1.509e-04
Time for diagonalization                   ...    0.007 sec
Threshold for overlap eigenvalues          ... 1.000e-08
Number of eigenvalues below threshold      ... 0
Time for construction of square roots      ...    0.004 sec
Total time needed                          ...    0.011 sec

-------------------
DFT GRID GENERATION
-------------------

General Integration Accuracy     IntAcc      ...  4.340
Radial Grid Type                 RadialGrid  ... Gauss-Chebyshev
Angular Grid (max. acc.)         AngularGrid ... Lebedev-110
Angular grid pruning method      GridPruning ... 3 (G Style)
Weight generation scheme         WeightScheme... Becke
Basis function cutoff            BFCut       ...    1.0000e-11
Integration weight cutoff        WCut        ...    1.0000e-14
Grids for H and He will be reduced by one unit

# of grid points (after initial pruning)     ...  14792 (   0.0 sec)
# of grid points (after weights+screening)   ...  14016 (   0.0 sec)
nearest neighbour list constructed           ...    0.0 sec
Grid point re-assignment to atoms done       ...    0.0 sec
Grid point division into batches done        ...    0.0 sec
Reduced shell lists constructed in    0.0 sec

Total number of grid points                  ...    14016
Total number of batches                      ...      225
Average number of points per batch           ...       62
Average number of grid points per atom       ...     1168
Average number of shells per batch           ...    52.64 (58.49%)
Average number of basis functions per batch  ...   129.36 (58.27%)
Average number of large shells per batch     ...    40.82 (77.55%)
Average number of large basis fcns per batch ...    97.28 (75.20%)
Maximum spatial batch extension              ...  17.60, 16.35, 19.64 au
Average spatial batch extension              ...   0.79,  0.80,  0.88 au

Time for grid setup =    0.038 sec

------------------------------
INITIAL GUESS: MODEL POTENTIAL
------------------------------
Loading Hartree-Fock densities                     ... done
Calculating cut-offs                               ... done
Setting up the integral package                    ... done
Initializing the effective Hamiltonian             ... done
Starting the Coulomb interaction                   ... done (   0.0 sec)
Reading the grid                                   ... done
Mapping shells                                     ... done
Starting the XC term evaluation                    ... done (   0.0 sec)
Transforming the Hamiltonian                       ... done (   0.0 sec)
Diagonalizing the Hamiltonian                      ... done (   0.0 sec)
Back transforming the eigenvectors                 ... done (   0.0 sec)
Now organizing SCF variables                       ... done
                      ------------------
                      INITIAL GUESS DONE (   0.2 sec)
                      ------------------
--------------
SCF ITERATIONS
--------------
ITER       Energy         Delta-E        Max-DP      RMS-DP      [F,P]     Damp
               ***  Starting incremental Fock matrix formation  ***
  0   -263.6362852522   0.000000000000 0.03653463  0.00103410  0.2668483 0.7000
  1   -263.7495038799  -0.113218627639 0.02624926  0.00081461  0.1876751 0.7000
                               ***Turning on DIIS***
  2   -263.8162955451  -0.066791665265 0.01580713  0.00054533  0.1416924 0.7000
  3   -264.4611983877  -0.644902842589 0.01075850  0.00036302  0.1052170 0.7000
  4   -264.4204279895   0.040770398225 0.02897840  0.00088566  0.0742163 0.0000
  5   -263.9726258653   0.447802124191 0.00504129  0.00013543  0.0058112 0.0000
                      *** Initiating the SOSCF procedure ***
                           *** Shutting down DIIS ***
                      *** Re-Reading the Fockian *** 
                      *** Removing any level shift *** 
ITER      Energy       Delta-E        Grad      Rot      Max-DP    RMS-DP
  6   -263.95998610   0.0126397656  0.001260  0.001260  0.003560  0.000083
               *** Restarting incremental Fock matrix formation ***
  7   -263.95418500   0.0058011038  0.000527  0.000834  0.002405  0.000058
  8   -263.95419772  -0.0000127240  0.000239  0.000496  0.002050  0.000049
  9   -263.95420088  -0.0000031591  0.000127  0.000152  0.000598  0.000013
 10   -263.95420126  -0.0000003838  0.000024  0.000043  0.000081  0.000002
 11   -263.95420129  -0.0000000265  0.000012  0.000062  0.000040  0.000001
 12   -263.95420130  -0.0000000143  0.000005  0.000010  0.000021  0.000000
                  ***Gradient check signals convergence***
              ***Rediagonalizing the Fockian in SOSCF/NRSCF***

               *****************************************************
               *                     SUCCESS                       *
               *           SCF CONVERGED AFTER  13 CYCLES          *
               *****************************************************


----------------
TOTAL SCF ENERGY
----------------

Total Energy       :         -263.95420130 Eh           -7182.55897 eV

Components:
Nuclear Repulsion  :          186.69733682 Eh            5080.29281 eV
Electronic Energy  :         -450.65153812 Eh          -12262.85178 eV
One Electron Energy:         -726.17512330 Eh          -19760.22970 eV
Two Electron Energy:          275.52358518 Eh            7497.37791 eV

Virial components:
Potential Energy   :         -527.39227927 Eh          -14351.07351 eV
Kinetic Energy     :          263.43807796 Eh            7168.51454 eV
Virial Ratio       :            2.00195918


---------------
SCF CONVERGENCE
---------------

  Last Energy change         ...   -1.0684e-09  Tolerance :   1.0000e-08
  Last MAX-Density change    ...    1.1470e-05  Tolerance :   1.0000e-07
  Last RMS-Density change    ...    2.8443e-07  Tolerance :   5.0000e-09
  Last Orbital Gradient      ...    1.6790e-06  Tolerance :   1.0000e-05
  Last Orbital Rotation      ...    5.5220e-06  Tolerance :   1.0000e-05

             **** THE GBW FILE WAS UPDATED (12mecn.remya.etal.2.mol7,8-orca.engrad-mp2.def2tzvp.frozencore.gbw) ****
             **** DENSITY FILE WAS UPDATED (12mecn.remya.etal.2.mol7,8-orca.engrad-mp2.def2tzvp.frozencore.scfp) ****
             **** ENERGY FILE WAS UPDATED (12mecn.remya.etal.2.mol7,8-orca.engrad-mp2.def2tzvp.frozencore.en.tmp) ****
             **** THE GBW FILE WAS UPDATED (12mecn.remya.etal.2.mol7,8-orca.engrad-mp2.def2tzvp.frozencore.gbw) ****
             **** DENSITY FILE WAS UPDATED (12mecn.remya.etal.2.mol7,8-orca.engrad-mp2.def2tzvp.frozencore.scfp) ****
----------------
ORBITAL ENERGIES
----------------

  NO   OCC          E(Eh)            E(eV) 
   0   2.0000     -15.570884      -423.7053 
   1   2.0000     -15.569171      -423.6587 
   2   2.0000     -11.282563      -307.0141 
   3   2.0000     -11.281257      -306.9786 
   4   2.0000     -11.273283      -306.7616 
   5   2.0000     -11.272343      -306.7360 
   6   2.0000      -1.217159       -33.1206 
   7   2.0000      -1.212393       -32.9909 
   8   2.0000      -1.036568       -28.2064 
   9   2.0000      -1.033671       -28.1276 
  10   2.0000      -0.693691       -18.8763 
  11   2.0000      -0.689633       -18.7659 
  12   2.0000      -0.629426       -17.1276 
  13   2.0000      -0.624715       -16.9994 
  14   2.0000      -0.619841       -16.8667 
  15   2.0000      -0.615785       -16.7564 
  16   2.0000      -0.558210       -15.1897 
  17   2.0000      -0.555134       -15.1060 
  18   2.0000      -0.463136       -12.6026 
  19   2.0000      -0.458546       -12.4777 
  20   2.0000      -0.455721       -12.4008 
  21   2.0000      -0.450862       -12.2686 
  22   0.0000       0.126011         3.4289 
  23   0.0000       0.144492         3.9318 
  24   0.0000       0.173518         4.7217 
  25   0.0000       0.177881         4.8404 
  26   0.0000       0.180304         4.9063 
  27   0.0000       0.183137         4.9834 
  28   0.0000       0.209680         5.7057 
  29   0.0000       0.214261         5.8303 
  30   0.0000       0.227573         6.1926 
  31   0.0000       0.235625         6.4117 
  32   0.0000       0.238437         6.4882 
  33   0.0000       0.265576         7.2267 
  34   0.0000       0.274348         7.4654 
  35   0.0000       0.312643         8.5075 
  36   0.0000       0.323297         8.7974 
  37   0.0000       0.325463         8.8563 
  38   0.0000       0.326650         8.8886 
  39   0.0000       0.367813        10.0087 
  40   0.0000       0.394128        10.7248 
  41   0.0000       0.394525        10.7356 
  42   0.0000       0.417334        11.3562 
  43   0.0000       0.452994        12.3266 
  44   0.0000       0.475743        12.9456 
  45   0.0000       0.497879        13.5480 
  46   0.0000       0.502588        13.6761 
  47   0.0000       0.522713        14.2237 
  48   0.0000       0.549578        14.9548 
  49   0.0000       0.557439        15.1687 
  50   0.0000       0.596990        16.2449 
  51   0.0000       0.604739        16.4558 
  52   0.0000       0.609382        16.5821 
  53   0.0000       0.614341        16.7171 
  54   0.0000       0.624182        16.9848 
  55   0.0000       0.661960        18.0128 
  56   0.0000       0.666286        18.1306 
  57   0.0000       0.676953        18.4208 
  58   0.0000       0.693379        18.8678 
  59   0.0000       0.724042        19.7022 
  60   0.0000       0.733125        19.9493 
  61   0.0000       0.761143        20.7117 
  62   0.0000       0.798942        21.7403 
  63   0.0000       0.808103        21.9896 
  64   0.0000       0.841552        22.8998 
  65   0.0000       0.851144        23.1608 
  66   0.0000       0.886892        24.1336 
  67   0.0000       0.918428        24.9917 
  68   0.0000       0.926627        25.2148 
  69   0.0000       0.939810        25.5735 
  70   0.0000       0.965547        26.2739 
  71   0.0000       1.036425        28.2026 
  72   0.0000       1.063778        28.9469 
  73   0.0000       1.069547        29.1038 
  74   0.0000       1.133495        30.8440 
  75   0.0000       1.134710        30.8770 
  76   0.0000       1.157034        31.4845 
  77   0.0000       1.205895        32.8141 
  78   0.0000       1.329935        36.1894 
  79   0.0000       1.337349        36.3911 
  80   0.0000       1.397440        38.0263 
  81   0.0000       1.425827        38.7987 
  82   0.0000       1.429741        38.9052 
  83   0.0000       1.446058        39.3492 
  84   0.0000       1.451669        39.5019 
  85   0.0000       1.472941        40.0807 
  86   0.0000       1.476008        40.1642 
  87   0.0000       1.483107        40.3574 
  88   0.0000       1.495233        40.6873 
  89   0.0000       1.520382        41.3717 
  90   0.0000       1.533047        41.7163 
  91   0.0000       1.594046        43.3762 
  92   0.0000       1.698006        46.2051 
  93   0.0000       1.712636        46.6032 
  94   0.0000       1.747282        47.5460 
  95   0.0000       1.758294        47.8456 
  96   0.0000       1.759553        47.8799 
  97   0.0000       1.761968        47.9456 
  98   0.0000       1.774279        48.2806 
  99   0.0000       1.789274        48.6886 
 100   0.0000       1.812436        49.3189 
 101   0.0000       1.832337        49.8604 
 102   0.0000       1.849225        50.3200 
 103   0.0000       1.866927        50.8017 
 104   0.0000       1.939139        52.7667 
 105   0.0000       1.950423        53.0737 
 106   0.0000       1.958954        53.3058 
 107   0.0000       1.978928        53.8494 
 108   0.0000       1.996870        54.3376 
 109   0.0000       2.026113        55.1333 
 110   0.0000       2.215770        60.2942 
 111   0.0000       2.234719        60.8098 
 112   0.0000       2.251397        61.2636 
 113   0.0000       2.258799        61.4651 
 114   0.0000       2.273721        61.8711 
 115   0.0000       2.318461        63.0885 
 116   0.0000       2.361456        64.2585 
 117   0.0000       2.434295        66.2405 
 118   0.0000       2.556600        69.5686 
 119   0.0000       2.560159        69.6655 
 120   0.0000       2.573631        70.0321 
 121   0.0000       2.578920        70.1760 
 122   0.0000       2.603555        70.8463 
 123   0.0000       2.610414        71.0330 
 124   0.0000       2.634435        71.6866 
 125   0.0000       2.638513        71.7976 
 126   0.0000       2.652155        72.1688 
 127   0.0000       2.676761        72.8384 
 128   0.0000       2.720182        74.0199 
 129   0.0000       2.748414        74.7882 
 130   0.0000       2.752323        74.8945 
 131   0.0000       2.756075        74.9966 
 132   0.0000       2.767146        75.2979 
 133   0.0000       2.814626        76.5899 
 134   0.0000       2.911766        79.2332 
 135   0.0000       2.913980        79.2934 
 136   0.0000       2.917128        79.3791 
 137   0.0000       2.919057        79.4316 
 138   0.0000       2.953170        80.3598 
 139   0.0000       2.955860        80.4330 
 140   0.0000       2.959866        80.5421 
 141   0.0000       2.996851        81.5485 
 142   0.0000       3.033724        82.5518 
 143   0.0000       3.049317        82.9761 
 144   0.0000       3.097403        84.2846 
 145   0.0000       3.101605        84.3990 
 146   0.0000       3.109499        84.6138 
 147   0.0000       3.126153        85.0669 
 148   0.0000       3.230227        87.8989 
 149   0.0000       3.232501        87.9608 
 150   0.0000       3.255898        88.5975 
 151   0.0000       3.258074        88.6567 
 152   0.0000       3.268766        88.9477 
 153   0.0000       3.312028        90.1249 
 154   0.0000       3.340666        90.9041 
 155   0.0000       3.341539        90.9279 
 156   0.0000       3.363157        91.5161 
 157   0.0000       3.441941        93.6600 
 158   0.0000       3.445431        93.7549 
 159   0.0000       3.451343        93.9158 
 160   0.0000       3.464811        94.2823 
 161   0.0000       3.488598        94.9296 
 162   0.0000       3.526526        95.9617 
 163   0.0000       3.581249        97.4507 
 164   0.0000       3.655041        99.4587 
 165   0.0000       3.665260        99.7368 
 166   0.0000       3.666924        99.7821 
 167   0.0000       3.672837        99.9430 
 168   0.0000       3.805901       103.5638 
 169   0.0000       3.811153       103.7067 
 170   0.0000       3.816078       103.8408 
 171   0.0000       3.831576       104.2625 
 172   0.0000       3.938533       107.1729 
 173   0.0000       3.946640       107.3935 
 174   0.0000       3.958221       107.7087 
 175   0.0000       3.962556       107.8266 
 176   0.0000       3.965153       107.8973 
 177   0.0000       4.007373       109.0462 
 178   0.0000       4.251905       115.7002 
 179   0.0000       4.253089       115.7324 
 180   0.0000       4.257641       115.8563 
 181   0.0000       4.295727       116.8927 
 182   0.0000       4.344036       118.2072 
 183   0.0000       4.345562       118.2488 
 184   0.0000       4.346862       118.2841 
 185   0.0000       4.349137       118.3460 
 186   0.0000       4.577812       124.5686 
 187   0.0000       4.586868       124.8150 
 188   0.0000       4.748076       129.2017 
 189   0.0000       4.765975       129.6888 
 190   0.0000       4.768814       129.7660 
 191   0.0000       4.783785       130.1734 
 192   0.0000       4.855931       132.1366 
 193   0.0000       4.863265       132.3362 
 194   0.0000       4.962955       135.0489 
 195   0.0000       4.968810       135.2082 
 196   0.0000       4.985695       135.6677 
 197   0.0000       5.011456       136.3687 
 198   0.0000       5.066338       137.8621 
 199   0.0000       5.071472       138.0018 
 200   0.0000       5.085700       138.3889 
 201   0.0000       5.111956       139.1034 
 202   0.0000       5.216568       141.9500 
 203   0.0000       5.225546       142.1943 
 204   0.0000       5.559467       151.2808 
 205   0.0000       5.561710       151.3418 
 206   0.0000       5.582531       151.9084 
 207   0.0000       5.593399       152.2041 
 208   0.0000       6.021987       163.8666 
 209   0.0000       6.026428       163.9874 
 210   0.0000       6.082850       165.5228 
 211   0.0000       6.091079       165.7467 
 212   0.0000       6.098015       165.9354 
 213   0.0000       6.177046       168.0860 
 214   0.0000       6.472179       176.1169 
 215   0.0000       6.481048       176.3583 
 216   0.0000      23.485998       639.0865 
 217   0.0000      23.517339       639.9393 
 218   0.0000      24.372384       663.2063 
 219   0.0000      24.414498       664.3523 
 220   0.0000      33.434161       909.7898 
 221   0.0000      33.469955       910.7638 

                    ********************************
                    * MULLIKEN POPULATION ANALYSIS *
                    ********************************

-----------------------
MULLIKEN ATOMIC CHARGES
-----------------------
   0 C :   -0.137843
   1 H :    0.155549
   2 H :    0.159901
   3 H :    0.161296
   4 C :   -0.077604
   5 N :   -0.261847
   6 C :   -0.180484
   7 H :    0.149630
   8 H :    0.196888
   9 H :    0.149592
  10 C :   -0.061705
  11 N :   -0.253373
Sum of atomic charges:    0.0000000

--------------------------------
MULLIKEN REDUCED ORBITAL CHARGES
--------------------------------
  0 C s       :     3.127270  s :     3.127270
      pz      :     0.778038  p :     2.946015
      px      :     1.098174
      py      :     1.069803
      dz2     :     0.017099  d :     0.061107
      dxz     :     0.009513
      dyz     :     0.011614
      dx2y2   :     0.011606
      dxy     :     0.011275
      f0      :     0.001670  f :     0.003451
      f+1     :     0.000210
      f-1     :     0.000217
      f+2     :     0.000065
      f-2     :     0.000061
      f+3     :     0.000399
      f-3     :     0.000830
  1 H s       :     0.822277  s :     0.822277
      pz      :     0.005409  p :     0.022174
      px      :     0.003975
      py      :     0.012790
  2 H s       :     0.817448  s :     0.817448
      pz      :     0.004344  p :     0.022652
      px      :     0.013207
      py      :     0.005101
  3 H s       :     0.816031  s :     0.816031
      pz      :     0.004657  p :     0.022673
      px      :     0.009031
      py      :     0.008986
  4 C s       :     3.256292  s :     3.256292
      pz      :     0.964940  p :     2.688538
      px      :     0.866960
      py      :     0.856637
      dz2     :     0.024406  d :     0.115387
      dxz     :     0.044136
      dyz     :     0.045414
      dx2y2   :     0.000692
      dxy     :     0.000740
      f0      :     0.004117  f :     0.017386
      f+1     :     0.006465
      f-1     :     0.006575
      f+2     :     0.000099
      f-2     :     0.000124
      f+3     :     0.000002
      f-3     :     0.000005
  5 N s       :     3.734868  s :     3.734868
      pz      :     1.277675  p :     3.470588
      px      :     1.089790
      py      :     1.103123
      dz2     :     0.011207  d :     0.053446
      dxz     :     0.020986
      dyz     :     0.020870
      dx2y2   :     0.000219
      dxy     :     0.000164
      f0      :     0.000632  f :     0.002945
      f+1     :     0.001152
      f-1     :     0.001132
      f+2     :     0.000014
      f-2     :     0.000013
      f+3     :     0.000000
      f-3     :     0.000001
  6 C s       :     3.159520  s :     3.159520
      pz      :     0.780067  p :     2.956219
      px      :     1.067518
      py      :     1.108634
      dz2     :     0.017922  d :     0.061258
      dxz     :     0.010489
      dyz     :     0.011038
      dx2y2   :     0.010180
      dxy     :     0.011629
      f0      :     0.001726  f :     0.003488
      f+1     :     0.000201
      f-1     :     0.000205
      f+2     :     0.000070
      f-2     :     0.000058
      f+3     :     0.000403
      f-3     :     0.000825
  7 H s       :     0.828021  s :     0.828021
      pz      :     0.005159  p :     0.022349
      px      :     0.012480
      py      :     0.004709
  8 H s       :     0.780095  s :     0.780095
      pz      :     0.004695  p :     0.023017
      px      :     0.004105
      py      :     0.014218
  9 H s       :     0.828089  s :     0.828089
      pz      :     0.004531  p :     0.022320
      px      :     0.009657
      py      :     0.008132
 10 C s       :     3.246955  s :     3.246955
      pz      :     0.958553  p :     2.679792
      px      :     0.869404
      py      :     0.851835
      dz2     :     0.026249  d :     0.117583
      dxz     :     0.044444
      dyz     :     0.045799
      dx2y2   :     0.000408
      dxy     :     0.000683
      f0      :     0.004103  f :     0.017375
      f+1     :     0.006482
      f-1     :     0.006638
      f+2     :     0.000054
      f-2     :     0.000092
      f+3     :     0.000002
      f-3     :     0.000004
 11 N s       :     3.729717  s :     3.729717
      pz      :     1.281546  p :     3.466986
      px      :     1.087484
      py      :     1.097956
      dz2     :     0.011321  d :     0.053728
      dxz     :     0.021106
      dyz     :     0.021130
      dx2y2   :     0.000099
      dxy     :     0.000073
      f0      :     0.000627  f :     0.002943
      f+1     :     0.001150
      f-1     :     0.001147
      f+2     :     0.000009
      f-2     :     0.000008
      f+3     :     0.000000
      f-3     :     0.000001


                     *******************************
                     * LOEWDIN POPULATION ANALYSIS *
                     *******************************

----------------------
LOEWDIN ATOMIC CHARGES
----------------------
   0 C :   -0.244931
   1 H :    0.141157
   2 H :    0.149058
   3 H :    0.148895
   4 C :   -0.186277
   5 N :   -0.012479
   6 C :   -0.242959
   7 H :    0.143493
   8 H :    0.151075
   9 H :    0.142847
  10 C :   -0.184448
  11 N :   -0.005432

-------------------------------
LOEWDIN REDUCED ORBITAL CHARGES
-------------------------------
  0 C s       :     2.815047  s :     2.815047
      pz      :     1.020904  p :     3.145369
      px      :     1.065030
      py      :     1.059435
      dz2     :     0.079149  d :     0.259266
      dxz     :     0.054136
      dyz     :     0.062658
      dx2y2   :     0.031272
      dxy     :     0.032052
      f0      :     0.007530  f :     0.025248
      f+1     :     0.005410
      f-1     :     0.004665
      f+2     :     0.002314
      f-2     :     0.001994
      f+3     :     0.001088
      f-3     :     0.002247
  1 H s       :     0.798481  s :     0.798481
      pz      :     0.013747  p :     0.060362
      px      :     0.013163
      py      :     0.033452
  2 H s       :     0.789809  s :     0.789809
      pz      :     0.011652  p :     0.061133
      px      :     0.034441
      py      :     0.015041
  3 H s       :     0.789850  s :     0.789850
      pz      :     0.012266  p :     0.061256
      px      :     0.024899
      py      :     0.024091
  4 C s       :     2.841499  s :     2.841499
      pz      :     1.194207  p :     2.826334
      px      :     0.819048
      py      :     0.813079
      dz2     :     0.154690  d :     0.458900
      dxz     :     0.150034
      dyz     :     0.151179
      dx2y2   :     0.001470
      dxy     :     0.001526
      f0      :     0.022773  f :     0.059544
      f+1     :     0.017784
      f-1     :     0.018440
      f+2     :     0.000233
      f-2     :     0.000300
      f+3     :     0.000005
      f-3     :     0.000009
  5 N s       :     3.308691  s :     3.308691
      pz      :     1.493662  p :     3.581585
      px      :     1.041673
      py      :     1.046250
      dz2     :     0.045330  d :     0.108090
      dxz     :     0.031227
      dyz     :     0.031108
      dx2y2   :     0.000233
      dxy     :     0.000192
      f0      :     0.006182  f :     0.014114
      f+1     :     0.003926
      f-1     :     0.003910
      f+2     :     0.000050
      f-2     :     0.000046
      f+3     :     0.000000
      f-3     :     0.000001
  6 C s       :     2.814107  s :     2.814107
      pz      :     1.021047  p :     3.146560
      px      :     1.055242
      py      :     1.070271
      dz2     :     0.079150  d :     0.257163
      dxz     :     0.059846
      dyz     :     0.057458
      dx2y2   :     0.027371
      dxy     :     0.033338
      f0      :     0.007544  f :     0.025129
      f+1     :     0.004985
      f-1     :     0.004978
      f+2     :     0.002366
      f-2     :     0.001995
      f+3     :     0.001067
      f-3     :     0.002194
  7 H s       :     0.795906  s :     0.795906
      pz      :     0.013204  p :     0.060601
      px      :     0.032592
      py      :     0.014804
  8 H s       :     0.785443  s :     0.785443
      pz      :     0.012598  p :     0.063482
      px      :     0.013130
      py      :     0.037754
  9 H s       :     0.796560  s :     0.796560
      pz      :     0.011988  p :     0.060593
      px      :     0.025835
      py      :     0.022770
 10 C s       :     2.840888  s :     2.840888
      pz      :     1.194300  p :     2.826243
      px      :     0.820089
      py      :     0.811854
      dz2     :     0.154593  d :     0.457810
      dxz     :     0.149487
      dyz     :     0.151723
      dx2y2   :     0.000734
      dxy     :     0.001273
      f0      :     0.022854  f :     0.059506
      f+1     :     0.017929
      f-1     :     0.018365
      f+2     :     0.000127
      f-2     :     0.000219
      f+3     :     0.000004
      f-3     :     0.000009
 11 N s       :     3.307817  s :     3.307817
      pz      :     1.494236  p :     3.575007
      px      :     1.040131
      py      :     1.040639
      dz2     :     0.045515  d :     0.108466
      dxz     :     0.031515
      dyz     :     0.031201
      dx2y2   :     0.000144
      dxy     :     0.000091
      f0      :     0.006221  f :     0.014142
      f+1     :     0.003970
      f-1     :     0.003894
      f+2     :     0.000030
      f-2     :     0.000027
      f+3     :     0.000000
      f-3     :     0.000000


                      *****************************
                      * MAYER POPULATION ANALYSIS *
                      *****************************

  NA   - Mulliken gross atomic population
  ZA   - Total nuclear charge
  QA   - Mulliken gross atomic charge
  VA   - Mayer's total valence
  BVA  - Mayer's bonded valence
  FA   - Mayer's free valence

  ATOM       NA         ZA         QA         VA         BVA        FA
  0 C      6.1378     6.0000    -0.1378     3.7946     3.7946    -0.0000
  1 H      0.8445     1.0000     0.1555     0.9560     0.9560    -0.0000
  2 H      0.8401     1.0000     0.1599     0.9694     0.9694    -0.0000
  3 H      0.8387     1.0000     0.1613     0.9692     0.9692     0.0000
  4 C      6.0776     6.0000    -0.0776     3.9045     3.9045     0.0000
  5 N      7.2618     7.0000    -0.2618     2.9957     2.9957    -0.0000
  6 C      6.1805     6.0000    -0.1805     3.7859     3.7859     0.0000
  7 H      0.8504     1.0000     0.1496     0.9630     0.9630     0.0000
  8 H      0.8031     1.0000     0.1969     0.9619     0.9619     0.0000
  9 H      0.8504     1.0000     0.1496     0.9625     0.9625     0.0000
 10 C      6.0617     6.0000    -0.0617     3.8827     3.8827     0.0000
 11 N      7.2534     7.0000    -0.2534     3.0038     3.0038     0.0000

  Mayer bond orders larger than 0.100000
B(  0-C ,  1-H ) :   0.9570 B(  0-C ,  2-H ) :   0.9592 B(  0-C ,  3-H ) :   0.9589 
B(  0-C ,  4-C ) :   0.9375 B(  4-C ,  5-N ) :   2.9607 B(  6-C ,  7-H ) :   0.9622 
B(  6-C ,  8-H ) :   0.9520 B(  6-C ,  9-H ) :   0.9628 B(  6-C , 10-C ) :   0.9224 
B( 10-C , 11-N ) :   2.9706 

-------
TIMINGS
-------

Total SCF time: 0 days 0 hours 0 min 17 sec 

Total time                  ....      17.748 sec
Sum of individual times     ....      17.519 sec  ( 98.7%)

Fock matrix formation       ....      17.218 sec  ( 97.0%)
Diagonalization             ....       0.052 sec  (  0.3%)
Density matrix formation    ....       0.008 sec  (  0.0%)
Population analysis         ....       0.022 sec  (  0.1%)
Initial guess               ....       0.129 sec  (  0.7%)
Orbital Transformation      ....       0.000 sec  (  0.0%)
Orbital Orthonormalization  ....       0.000 sec  (  0.0%)
DIIS solution               ....       0.019 sec  (  0.1%)
SOSCF solution              ....       0.033 sec  (  0.2%)


           ************************************************************
           *        Program running with 6 parallel MPI-processes     *
           *              working on a common directory               *
           ************************************************************

------------------------------------------------------------------------------
                                ORCA  MP2 
------------------------------------------------------------------------------

Freezing NCore=12 chemical core electrons
MP2 will be done in the AO integral direct mode
The Q1-step will be done using symmetric double matrices
Dimension of the basis                    ...  222
Memory devoted for MP2                    ... 8000 MB   
Memory needed for all in one shot         ...  127 MB
Number of MOs that can be treated together...  189      
MP2 density construction                  ... relaxed
The MP2 gradient is requested => amplitudes will be stored on disk
Total number of MOs              ...   16
Number of MOs treated per batch  ...    3 
Number of batches necessary      ...    1 
OPERATORS   0/  0 PASS   0
-----------------------------------------------
 MP2 CORRELATION ENERGY   :     -1.021695284 Eh
-----------------------------------------------


---------------------
MP2 DENSITY FORMATION
---------------------

Completing the external part of the density      ... done
Storing the unrelaxed density                    ... done

Calculating G(D)                                 ... done
Completing the Lagrangian                        ... done
Solving the Z-vector equations                   ... 

------------------------------------------------------------------------------
                           ORCA CP-SCF CALCULATION
------------------------------------------------------------------------------

Input orbitals are from        ... 12mecn.remya.etal.2.mol7,8-orca.engrad-mp2.def2tzvp.frozencore.gbw
Input Perturbation             ... 12mecn.remya.etal.2.mol7,8-orca.engrad-mp2.def2tzvp.frozencore.pin.tmp
Wavefunction output            ... 12mecn.remya.etal.2.mol7,8-orca.engrad-mp2.def2tzvp.frozencore.pout.tmp
Perturbation mode              ... Real perturbation (singlet)
Solver                         ... POPLE
Max. number of iterations      ... 128
Convergence tolerance          ... 1.000e-08
Integral handling              ... Direct
Number of perturbations        ... 1
Number of operators            ... 1
Orbital ranges used for CP-SCF:
 Operator 0:  Orbitals   0... 21  to  22...221
Variables per vector in CP-SCF ... 4400
Number of vectors sought       ... 1
     CP-SCF ITERATION   0: 
     CP-SCF ITERATION   1:      0.001037369183
     CP-SCF ITERATION   2:      0.000173070210
     CP-SCF ITERATION   3:      0.000008093616
     CP-SCF ITERATION   4:      0.000001787097
     CP-SCF ITERATION   5:      0.000000357770
     CP-SCF ITERATION   6:      0.000000067226
     CP-SCF ITERATION   7:      0.000000008608
                                                 ... done
Finalizing the relaxed density                   ... done
Transforming P to the AO basis                   ... done
Storing the relaxed density                      ... done

------------------------------------
ENERGY WEIGHTED DENSITY FINALIZATION
------------------------------------

Gathering the parts of the W-matrix              ...                                                      done
Forming the Z-density                            ... done
Transforming Z to the AO basis                   ... done
Calculating G(Z)                                 ... done
Finalizing the W-matrix                          ...                                                      done
Transforming W to the AO basis and storing       ... done

                *********************************************
                * UNRELAXED MP2 DENSITY POPULATION ANALYSIS *
                *********************************************

------------------------------------------------------------------------------
                           ORCA POPULATION ANALYSIS
------------------------------------------------------------------------------
Input electron density              ... 12mecn.remya.etal.2.mol7,8-orca.engrad-mp2.def2tzvp.frozencore.pmp2ur
BaseName (.gbw .S,...)              ... 12mecn.remya.etal.2.mol7,8-orca.engrad-mp2.def2tzvp.frozencore

                    ********************************
                    * MULLIKEN POPULATION ANALYSIS *
                    ********************************

-----------------------
MULLIKEN ATOMIC CHARGES
-----------------------
   0 C :   -0.151778
   1 H :    0.158258
   2 H :    0.162623
   3 H :    0.163987
   4 C :   -0.087933
   5 N :   -0.245867
   6 C :   -0.192860
   7 H :    0.152301
   8 H :    0.198721
   9 H :    0.152261
  10 C :   -0.072378
  11 N :   -0.237335
Sum of atomic charges:    0.0000000

--------------------------------
MULLIKEN REDUCED ORBITAL CHARGES
--------------------------------
  0 C s       :     3.125981  s :     3.125981
      pz      :     0.777006  p :     2.931640
      px      :     1.091063
      py      :     1.063571
      dz2     :     0.019620  d :     0.086845
      dxz     :     0.015687
      dyz     :     0.017597
      dx2y2   :     0.017165
      dxy     :     0.016775
      f0      :     0.002074  f :     0.007312
      f+1     :     0.000869
      f-1     :     0.000880
      f+2     :     0.000605
      f-2     :     0.000604
      f+3     :     0.000946
      f-3     :     0.001334
  1 H s       :     0.816723  s :     0.816723
      pz      :     0.006395  p :     0.025018
      px      :     0.005019
      py      :     0.013605
  2 H s       :     0.811946  s :     0.811946
      pz      :     0.005347  p :     0.025431
      px      :     0.013989
      py      :     0.006095
  3 H s       :     0.810562  s :     0.810562
      pz      :     0.005650  p :     0.025451
      px      :     0.009935
      py      :     0.009867
  4 C s       :     3.255197  s :     3.255197
      pz      :     0.955964  p :     2.681708
      px      :     0.867752
      py      :     0.857992
      dz2     :     0.026825  d :     0.130696
      dxz     :     0.046165
      dyz     :     0.047408
      dx2y2   :     0.005113
      dxy     :     0.005185
      f0      :     0.004584  f :     0.020332
      f+1     :     0.006903
      f-1     :     0.007001
      f+2     :     0.000652
      f-2     :     0.000676
      f+3     :     0.000257
      f-3     :     0.000259
  5 N s       :     3.722452  s :     3.722452
      pz      :     1.265382  p :     3.441562
      px      :     1.081770
      py      :     1.094410
      dz2     :     0.015520  d :     0.076176
      dxz     :     0.025152
      dyz     :     0.025106
      dx2y2   :     0.005226
      dxy     :     0.005172
      f0      :     0.001062  f :     0.005676
      f+1     :     0.001600
      f-1     :     0.001582
      f+2     :     0.000433
      f-2     :     0.000431
      f+3     :     0.000284
      f-3     :     0.000285
  6 C s       :     3.157676  s :     3.157676
      pz      :     0.778937  p :     2.940805
      px      :     1.060876
      py      :     1.100992
      dz2     :     0.020410  d :     0.087024
      dxz     :     0.016555
      dyz     :     0.017204
      dx2y2   :     0.015745
      dxy     :     0.017111
      f0      :     0.002124  f :     0.007355
      f+1     :     0.000864
      f-1     :     0.000871
      f+2     :     0.000609
      f-2     :     0.000602
      f+3     :     0.000951
      f-3     :     0.001333
  7 H s       :     0.822517  s :     0.822517
      pz      :     0.006148  p :     0.025182
      px      :     0.013299
      py      :     0.005735
  8 H s       :     0.775576  s :     0.775576
      pz      :     0.005670  p :     0.025703
      px      :     0.005105
      py      :     0.014928
  9 H s       :     0.822582  s :     0.822582
      pz      :     0.005541  p :     0.025156
      px      :     0.010545
      py      :     0.009071
 10 C s       :     3.246295  s :     3.246295
      pz      :     0.949558  p :     2.672883
      px      :     0.870061
      py      :     0.853264
      dz2     :     0.028638  d :     0.132876
      dxz     :     0.046462
      dyz     :     0.047762
      dx2y2   :     0.004871
      dxy     :     0.005143
      f0      :     0.004568  f :     0.020323
      f+1     :     0.006920
      f-1     :     0.007065
      f+2     :     0.000611
      f-2     :     0.000645
      f+3     :     0.000256
      f-3     :     0.000258
 11 N s       :     3.717118  s :     3.717118
      pz      :     1.269230  p :     3.438127
      px      :     1.079583
      py      :     1.089314
      dz2     :     0.015617  d :     0.076418
      dxz     :     0.025256
      dyz     :     0.025345
      dx2y2   :     0.005110
      dxy     :     0.005091
      f0      :     0.001057  f :     0.005673
      f+1     :     0.001598
      f-1     :     0.001596
      f+2     :     0.000427
      f-2     :     0.000426
      f+3     :     0.000284
      f-3     :     0.000284


                     *******************************
                     * LOEWDIN POPULATION ANALYSIS *
                     *******************************

----------------------
LOEWDIN ATOMIC CHARGES
----------------------
   0 C :   -0.253116
   1 H :    0.142827
   2 H :    0.150736
   3 H :    0.150570
   4 C :   -0.192340
   5 N :   -0.003306
   6 C :   -0.250965
   7 H :    0.145168
   8 H :    0.152637
   9 H :    0.144523
  10 C :   -0.190416
  11 N :    0.003680

-------------------------------
LOEWDIN REDUCED ORBITAL CHARGES
-------------------------------
  0 C s       :     2.813263  s :     2.813263
      pz      :     1.012402  p :     3.120621
      px      :     1.056821
      py      :     1.051399
      dz2     :     0.084326  d :     0.287944
      dxz     :     0.060082
      dyz     :     0.068629
      dx2y2   :     0.037036
      dxy     :     0.037871
      f0      :     0.008644  f :     0.031287
      f+1     :     0.006479
      f-1     :     0.005728
      f+2     :     0.002990
      f-2     :     0.002664
      f+3     :     0.001779
      f-3     :     0.003004
  1 H s       :     0.792009  s :     0.792009
      pz      :     0.015216  p :     0.065163
      px      :     0.014388
      py      :     0.035559
  2 H s       :     0.783441  s :     0.783441
      pz      :     0.013010  p :     0.065823
      px      :     0.036483
      py      :     0.016330
  3 H s       :     0.783487  s :     0.783487
      pz      :     0.013653  p :     0.065943
      px      :     0.026592
      py      :     0.025698
  4 C s       :     2.838075  s :     2.838075
      pz      :     1.181659  p :     2.809355
      px      :     0.816658
      py      :     0.811038
      dz2     :     0.161885  d :     0.477730
      dxz     :     0.151402
      dyz     :     0.152528
      dx2y2   :     0.005945
      dxy     :     0.005969
      f0      :     0.024410  f :     0.067180
      f+1     :     0.019856
      f-1     :     0.020477
      f+2     :     0.000921
      f-2     :     0.000989
      f+3     :     0.000261
      f-3     :     0.000266
  5 N s       :     3.300949  s :     3.300949
      pz      :     1.477625  p :     3.545093
      px      :     1.031652
      py      :     1.035816
      dz2     :     0.052301  d :     0.138675
      dxz     :     0.038014
      dyz     :     0.038020
      dx2y2   :     0.005202
      dxy     :     0.005138
      f0      :     0.007251  f :     0.018589
      f+1     :     0.004896
      f-1     :     0.004892
      f+2     :     0.000493
      f-2     :     0.000488
      f+3     :     0.000284
      f-3     :     0.000285
  6 C s       :     2.812325  s :     2.812325
      pz      :     1.012528  p :     3.121571
      px      :     1.047218
      py      :     1.061824
      dz2     :     0.084318  d :     0.285904
      dxz     :     0.065764
      dyz     :     0.063485
      dx2y2   :     0.033219
      dxy     :     0.039118
      f0      :     0.008659  f :     0.031164
      f+1     :     0.006045
      f-1     :     0.006047
      f+2     :     0.003042
      f-2     :     0.002664
      f+3     :     0.001756
      f-3     :     0.002950
  7 H s       :     0.789458  s :     0.789458
      pz      :     0.014643  p :     0.065374
      px      :     0.034636
      py      :     0.016095
  8 H s       :     0.779292  s :     0.779292
      pz      :     0.013998  p :     0.068070
      px      :     0.014341
      py      :     0.039730
  9 H s       :     0.790107  s :     0.790107
      pz      :     0.013369  p :     0.065370
      px      :     0.027596
      py      :     0.024405
 10 C s       :     2.837480  s :     2.837480
      pz      :     1.181707  p :     2.809066
      px      :     0.817577
      py      :     0.809781
      dz2     :     0.161851  d :     0.476730
      dxz     :     0.150913
      dyz     :     0.153003
      dx2y2   :     0.005235
      dxy     :     0.005729
      f0      :     0.024482  f :     0.067140
      f+1     :     0.020006
      f-1     :     0.020421
      f+2     :     0.000806
      f-2     :     0.000902
      f+3     :     0.000259
      f-3     :     0.000264
 11 N s       :     3.300025  s :     3.300025
      pz      :     1.478168  p :     3.538653
      px      :     1.030182
      py      :     1.030303
      dz2     :     0.052481  d :     0.139025
      dxz     :     0.038294
      dyz     :     0.038080
      dx2y2   :     0.005122
      dxy     :     0.005047
      f0      :     0.007292  f :     0.018617
      f+1     :     0.004943
      f-1     :     0.004877
      f+2     :     0.000470
      f-2     :     0.000467
      f+3     :     0.000284
      f-3     :     0.000284


                      *****************************
                      * MAYER POPULATION ANALYSIS *
                      *****************************

  NA   - Mulliken gross atomic population
  ZA   - Total nuclear charge
  QA   - Mulliken gross atomic charge
  VA   - Mayer's total valence
  BVA  - Mayer's bonded valence
  FA   - Mayer's free valence

  ATOM       NA         ZA         QA         VA         BVA        FA
  0 C      6.1518     6.0000    -0.1518     3.9133     3.6288     0.2844
  1 H      0.8417     1.0000     0.1583     0.9637     0.9159     0.0478
  2 H      0.8374     1.0000     0.1626     0.9763     0.9289     0.0474
  3 H      0.8360     1.0000     0.1640     0.9761     0.9287     0.0474
  4 C      6.0879     6.0000    -0.0879     4.0046     3.5692     0.4354
  5 N      7.2459     7.0000    -0.2459     3.2004     2.7083     0.4920
  6 C      6.1929     6.0000    -0.1929     3.9039     3.6198     0.2841
  7 H      0.8477     1.0000     0.1523     0.9707     0.9226     0.0481
  8 H      0.8013     1.0000     0.1987     0.9686     0.9215     0.0471
  9 H      0.8477     1.0000     0.1523     0.9702     0.9221     0.0481
 10 C      6.0724     6.0000    -0.0724     3.9838     3.5480     0.4358
 11 N      7.2373     7.0000    -0.2373     3.2073     2.7162     0.4911

  Mayer bond orders larger than 0.100000
B(  0-C ,  1-H ) :   0.9196 B(  0-C ,  2-H ) :   0.9217 B(  0-C ,  3-H ) :   0.9214 
B(  0-C ,  4-C ) :   0.8853 B(  4-C ,  5-N ) :   2.6808 B(  6-C ,  7-H ) :   0.9246 
B(  6-C ,  8-H ) :   0.9147 B(  6-C ,  9-H ) :   0.9252 B(  6-C , 10-C ) :   0.8707 
B( 10-C , 11-N ) :   2.6904 


                *******************************************
                * RELAXED MP2 DENSITY POPULATION ANALYSIS *
                *******************************************

------------------------------------------------------------------------------
                           ORCA POPULATION ANALYSIS
------------------------------------------------------------------------------
Input electron density              ... 12mecn.remya.etal.2.mol7,8-orca.engrad-mp2.def2tzvp.frozencore.pmp2re
BaseName (.gbw .S,...)              ... 12mecn.remya.etal.2.mol7,8-orca.engrad-mp2.def2tzvp.frozencore

                    ********************************
                    * MULLIKEN POPULATION ANALYSIS *
                    ********************************

-----------------------
MULLIKEN ATOMIC CHARGES
-----------------------
   0 C :   -0.256284
   1 H :    0.170943
   2 H :    0.176372
   3 H :    0.177536
   4 C :   -0.122322
   5 N :   -0.146257
   6 C :   -0.286484
   7 H :    0.166740
   8 H :    0.204659
   9 H :    0.166586
  10 C :   -0.112568
  11 N :   -0.138920
Sum of atomic charges:    0.0000000

--------------------------------
MULLIKEN REDUCED ORBITAL CHARGES
--------------------------------
  0 C s       :     3.167229  s :     3.167229
      pz      :     0.824330  p :     3.005651
      px      :     1.102990
      py      :     1.078330
      dz2     :     0.015562  d :     0.076350
      dxz     :     0.015992
      dyz     :     0.017464
      dx2y2   :     0.013765
      dxy     :     0.013567
      f0      :     0.001839  f :     0.007054
      f+1     :     0.000923
      f-1     :     0.000939
      f+2     :     0.000595
      f-2     :     0.000598
      f+3     :     0.000907
      f-3     :     0.001253
  1 H s       :     0.805122  s :     0.805122
      pz      :     0.006344  p :     0.023935
      px      :     0.005203
      py      :     0.012389
  2 H s       :     0.799410  s :     0.799410
      pz      :     0.005457  p :     0.024218
      px      :     0.012691
      py      :     0.006070
  3 H s       :     0.798232  s :     0.798232
      pz      :     0.005705  p :     0.024232
      px      :     0.009299
      py      :     0.009228
  4 C s       :     3.231512  s :     3.231512
      pz      :     0.981829  p :     2.766201
      px      :     0.892325
      py      :     0.892046
      dz2     :     0.022335  d :     0.105655
      dxz     :     0.036169
      dyz     :     0.037038
      dx2y2   :     0.005031
      dxy     :     0.005083
      f0      :     0.004408  f :     0.018954
      f+1     :     0.006332
      f-1     :     0.006393
      f+2     :     0.000642
      f-2     :     0.000663
      f+3     :     0.000257
      f-3     :     0.000259
  5 N s       :     3.669720  s :     3.669720
      pz      :     1.254307  p :     3.403947
      px      :     1.073880
      py      :     1.075761
      dz2     :     0.014402  d :     0.067380
      dxz     :     0.021269
      dyz     :     0.021350
      dx2y2   :     0.005213
      dxy     :     0.005146
      f0      :     0.000939  f :     0.005210
      f+1     :     0.001429
      f-1     :     0.001414
      f+2     :     0.000430
      f-2     :     0.000429
      f+3     :     0.000284
      f-3     :     0.000285
  6 C s       :     3.191416  s :     3.191416
      pz      :     0.825290  p :     3.011526
      px      :     1.075205
      py      :     1.111030
      dz2     :     0.016114  d :     0.076461
      dxz     :     0.016645
      dyz     :     0.017302
      dx2y2   :     0.012712
      dxy     :     0.013688
      f0      :     0.001880  f :     0.007081
      f+1     :     0.000921
      f-1     :     0.000929
      f+2     :     0.000598
      f-2     :     0.000593
      f+3     :     0.000910
      f-3     :     0.001251
  7 H s       :     0.809182  s :     0.809182
      pz      :     0.006132  p :     0.024078
      px      :     0.012120
      py      :     0.005826
  8 H s       :     0.770811  s :     0.770811
      pz      :     0.005738  p :     0.024530
      px      :     0.005245
      py      :     0.013547
  9 H s       :     0.809357  s :     0.809357
      pz      :     0.005626  p :     0.024057
      px      :     0.009802
      py      :     0.008628
 10 C s       :     3.226529  s :     3.226529
      pz      :     0.976753  p :     2.758819
      px      :     0.894051
      py      :     0.888016
      dz2     :     0.024540  d :     0.108256
      dxz     :     0.036454
      dyz     :     0.037349
      dx2y2   :     0.004846
      dxy     :     0.005067
      f0      :     0.004399  f :     0.018965
      f+1     :     0.006353
      f-1     :     0.006460
      f+2     :     0.000605
      f-2     :     0.000634
      f+3     :     0.000256
      f-3     :     0.000258
 11 N s       :     3.663546  s :     3.663546
      pz      :     1.259623  p :     3.402544
      px      :     1.071947
      py      :     1.070974
      dz2     :     0.014564  d :     0.067627
      dxz     :     0.021371
      dyz     :     0.021496
      dx2y2   :     0.005111
      dxy     :     0.005085
      f0      :     0.000936  f :     0.005204
      f+1     :     0.001426
      f-1     :     0.001423
      f+2     :     0.000426
      f-2     :     0.000425
      f+3     :     0.000284
      f-3     :     0.000284


                     *******************************
                     * LOEWDIN POPULATION ANALYSIS *
                     *******************************

----------------------
LOEWDIN ATOMIC CHARGES
----------------------
   0 C :   -0.284329
   1 H :    0.149721
   2 H :    0.157038
   3 H :    0.156793
   4 C :   -0.211714
   5 N :    0.028191
   6 C :   -0.281797
   7 H :    0.152282
   8 H :    0.157231
   9 H :    0.151645
  10 C :   -0.209691
  11 N :    0.034629

-------------------------------
LOEWDIN REDUCED ORBITAL CHARGES
-------------------------------
  0 C s       :     2.818409  s :     2.818409
      pz      :     1.031096  p :     3.157128
      px      :     1.065173
      py      :     1.060858
      dz2     :     0.076561  d :     0.277290
      dxz     :     0.061854
      dyz     :     0.070481
      dx2y2   :     0.033728
      dxy     :     0.034666
      f0      :     0.008111  f :     0.031502
      f+1     :     0.006890
      f-1     :     0.006194
      f+2     :     0.002983
      f-2     :     0.002655
      f+3     :     0.001742
      f-3     :     0.002926
  1 H s       :     0.784718  s :     0.784718
      pz      :     0.015657  p :     0.065561
      px      :     0.014830
      py      :     0.035073
  2 H s       :     0.776907  s :     0.776907
      pz      :     0.013602  p :     0.066055
      px      :     0.035810
      py      :     0.016643
  3 H s       :     0.777045  s :     0.777045
      pz      :     0.014202  p :     0.066161
      px      :     0.026445
      py      :     0.025515
  4 C s       :     2.842386  s :     2.842386
      pz      :     1.171013  p :     2.842505
      px      :     0.835134
      py      :     0.836358
      dz2     :     0.163755  d :     0.459989
      dxz     :     0.142284
      dyz     :     0.142343
      dx2y2   :     0.005786
      dxy     :     0.005820
      f0      :     0.025427  f :     0.066834
      f+1     :     0.019334
      f-1     :     0.019678
      f+2     :     0.000909
      f-2     :     0.000961
      f+3     :     0.000260
      f-3     :     0.000265
  5 N s       :     3.301538  s :     3.301538
      pz      :     1.465444  p :     3.515993
      px      :     1.026488
      py      :     1.024061
      dz2     :     0.052800  d :     0.135255
      dxz     :     0.035807
      dyz     :     0.036324
      dx2y2   :     0.005198
      dxy     :     0.005125
      f0      :     0.007336  f :     0.019022
      f+1     :     0.005038
      f-1     :     0.005093
      f+2     :     0.000495
      f-2     :     0.000490
      f+3     :     0.000284
      f-3     :     0.000285
  6 C s       :     2.817348  s :     2.817348
      pz      :     1.031192  p :     3.157732
      px      :     1.056739
      py      :     1.069801
      dz2     :     0.076399  d :     0.275330
      dxz     :     0.067205
      dyz     :     0.065753
      dx2y2   :     0.030340
      dxy     :     0.035634
      f0      :     0.008112  f :     0.031386
      f+1     :     0.006448
      f-1     :     0.006540
      f+2     :     0.003035
      f-2     :     0.002649
      f+3     :     0.001723
      f-3     :     0.002880
  7 H s       :     0.781957  s :     0.781957
      pz      :     0.015124  p :     0.065761
      px      :     0.034147
      py      :     0.016490
  8 H s       :     0.774693  s :     0.774693
      pz      :     0.014504  p :     0.068076
      px      :     0.014775
      py      :     0.038797
  9 H s       :     0.782593  s :     0.782593
      pz      :     0.013932  p :     0.065762
      px      :     0.027396
      py      :     0.024434
 10 C s       :     2.841893  s :     2.841893
      pz      :     1.170941  p :     2.841796
      px      :     0.835690
      py      :     0.835165
      dz2     :     0.163988  d :     0.459195
      dxz     :     0.141797
      dyz     :     0.142647
      dx2y2   :     0.005169
      dxy     :     0.005595
      f0      :     0.025527  f :     0.066806
      f+1     :     0.019501
      f-1     :     0.019585
      f+2     :     0.000801
      f-2     :     0.000871
      f+3     :     0.000259
      f-3     :     0.000263
 11 N s       :     3.300575  s :     3.300575
      pz      :     1.465950  p :     3.510197
      px      :     1.025246
      py      :     1.019002
      dz2     :     0.053020  d :     0.135550
      dxz     :     0.036054
      dyz     :     0.036305
      dx2y2   :     0.005122
      dxy     :     0.005048
      f0      :     0.007377  f :     0.019049
      f+1     :     0.005082
      f-1     :     0.005082
      f+2     :     0.000471
      f-2     :     0.000468
      f+3     :     0.000284
      f-3     :     0.000284


                      *****************************
                      * MAYER POPULATION ANALYSIS *
                      *****************************

  NA   - Mulliken gross atomic population
  ZA   - Total nuclear charge
  QA   - Mulliken gross atomic charge
  VA   - Mayer's total valence
  BVA  - Mayer's bonded valence
  FA   - Mayer's free valence

  ATOM       NA         ZA         QA         VA         BVA        FA
  0 C      6.2563     6.0000    -0.2563     3.9276     3.6441     0.2834
  1 H      0.8291     1.0000     0.1709     0.9585     0.9113     0.0472
  2 H      0.8236     1.0000     0.1764     0.9704     0.9236     0.0468
  3 H      0.8225     1.0000     0.1775     0.9703     0.9235     0.0468
  4 C      6.1223     6.0000    -0.1223     4.1148     3.6903     0.4245
  5 N      7.1463     7.0000    -0.1463     3.3137     2.8347     0.4790
  6 C      6.2865     6.0000    -0.2865     3.9085     3.6258     0.2827
  7 H      0.8333     1.0000     0.1667     0.9647     0.9172     0.0475
  8 H      0.7953     1.0000     0.2047     0.9705     0.9240     0.0465
  9 H      0.8334     1.0000     0.1666     0.9643     0.9168     0.0475
 10 C      6.1126     6.0000    -0.1126     4.1052     3.6801     0.4251
 11 N      7.1389     7.0000    -0.1389     3.3201     2.8419     0.4782

  Mayer bond orders larger than 0.100000
B(  0-C ,  1-H ) :   0.9102 B(  0-C ,  2-H ) :   0.9127 B(  0-C ,  3-H ) :   0.9124 
B(  0-C ,  4-C ) :   0.9110 B(  4-C ,  5-N ) :   2.7826 B(  6-C ,  7-H ) :   0.9153 
B(  6-C ,  8-H ) :   0.9037 B(  6-C ,  9-H ) :   0.9157 B(  6-C , 10-C ) :   0.8991 
B( 10-C , 11-N ) :   2.7939 


----------------------------------
MP2 DERIVATIVE INTEGRAL GENERATION
----------------------------------


Input Wavefunction Amplitudes       ... 12mecn.remya.etal.2.mol7,8-orca.engrad-mp2.def2tzvp.frozencore.mp2tsaa.tmp
Input Correlated Electron Density   ... 12mecn.remya.etal.2.mol7,8-orca.engrad-mp2.def2tzvp.frozencore.pmp2re
Input Energy Weighted Density       ... 12mecn.remya.etal.2.mol7,8-orca.engrad-mp2.def2tzvp.frozencore.wmp2.tmp
Input SCF Electron Density          ... 12mecn.remya.etal.2.mol7,8-orca.engrad-mp2.def2tzvp.frozencore.scfp

One-Electron Terms    ...
                        ... One-Electron Terms done
Prescreening matrices              ... done

Batch handling in the gradient evaluation:
Memory available                      ... 8000.0 MB
Memory per occupied orbital in Q2     ...    6.0 MB
Memory per occupied orbital in Q3     ...    0.1 MB
Total memory requirement per |i>      ...    6.1 MB
Max. Number of orbitals possible      ...   1311
Number of orbitals treated per batch  ...     16
Number of batches to be done          ...      1
Batch   0: i=    6 ...    21

---------------------------------------
MP2 TOTAL ENERGY:     -264.975896589 Eh
---------------------------------------

The final MP2 gradient
  0:  -0.00012182  -0.00011124  -0.00695774
  1:  -0.00086985   0.00293967  -0.00014065
  2:   0.00395236  -0.00044541  -0.00109652
  3:  -0.00345778  -0.00164306  -0.00064423
  4:   0.00030462  -0.00061040   0.00484851
  5:   0.00015442   0.00028950   0.00418196
  6:   0.00059407  -0.00050194   0.00755362
  7:   0.00345179  -0.00003816   0.00040479
  8:  -0.00065600   0.00192969  -0.00123221
  9:  -0.00311479  -0.00121722   0.00049244
 10:  -0.00027551  -0.00010199  -0.00261161
 11:   0.00003852  -0.00048944  -0.00479836

-----------------------------------
NORM OF THE MP2 GRADIENT:  0.015765
-----------------------------------

-------------------------   --------------------
FINAL SINGLE POINT ENERGY      -264.975896588704
-------------------------   --------------------


                            ***************************************
                            *     ORCA property calculations      *
                            ***************************************

                                    ---------------------
                                    Active property flags
                                    ---------------------
   (+) Dipole Moment


------------------------------------------------------------------------------
                       ORCA ELECTRIC PROPERTIES CALCULATION
------------------------------------------------------------------------------

Dipole Moment Calculation                       ... on
Quadrupole Moment Calculation                   ... off
Polarizability Calculation                      ... off
GBWName                                         ... 12mecn.remya.etal.2.mol7,8-orca.engrad-mp2.def2tzvp.frozencore.gbw
Electron density file                           ... 12mecn.remya.etal.2.mol7,8-orca.engrad-mp2.def2tzvp.frozencore.scfp
The origin for moment calculation is the CENTER OF MASS  = ( 3.238258, -1.623848 -0.036093)

-------------
DIPOLE MOMENT
-------------
                                X             Y             Z
Electronic contribution:      0.02430       0.22892       0.02347
Nuclear contribution   :     -0.04122      -0.35677      -0.01930
                        -----------------------------------------
Total Dipole Moment    :     -0.01693      -0.12785       0.00417
                        -----------------------------------------
Magnitude (a.u.)       :      0.12904
Magnitude (Debye)      :      0.32799



--------------------
Rotational spectrum 
--------------------
 
Rotational constants in cm-1:     0.169859     0.068744     0.049875 
Rotational constants in MHz :  5092.247385  2060.885391  1495.220661 

 Dipole components along the rotational axes: 
x,y,z [a.u.] :    -0.110385     0.054480     0.038699 
x,y,z [Debye]:    -0.280576     0.138478     0.098365 

 

                         *** MP2 UNRELAXED DENSITY ***

------------------------------------------------------------------------------
                       ORCA ELECTRIC PROPERTIES CALCULATION
------------------------------------------------------------------------------

Dipole Moment Calculation                       ... on
Quadrupole Moment Calculation                   ... off
Polarizability Calculation                      ... off
GBWName                                         ... 12mecn.remya.etal.2.mol7,8-orca.engrad-mp2.def2tzvp.frozencore.gbw
Electron density file                           ... 12mecn.remya.etal.2.mol7,8-orca.engrad-mp2.def2tzvp.frozencore.pmp2ur
The origin for moment calculation is the CENTER OF MASS  = ( 3.238258, -1.623848 -0.036093)

-------------
DIPOLE MOMENT
-------------
                                X             Y             Z
Electronic contribution:      0.02493       0.23154       0.02332
Nuclear contribution   :     -0.04122      -0.35677      -0.01930
                        -----------------------------------------
Total Dipole Moment    :     -0.01630      -0.12523       0.00402
                        -----------------------------------------
Magnitude (a.u.)       :      0.12635
Magnitude (Debye)      :      0.32116



--------------------
Rotational spectrum 
--------------------
 
Rotational constants in cm-1:     0.169859     0.068744     0.049875 
Rotational constants in MHz :  5092.247385  2060.885391  1495.220661 

 Dipole components along the rotational axes: 
x,y,z [a.u.] :    -0.108187     0.053335     0.037623 
x,y,z [Debye]:    -0.274988     0.135566     0.095631 

 

                           *** MP2 RELAXED DENSITY ***

------------------------------------------------------------------------------
                       ORCA ELECTRIC PROPERTIES CALCULATION
------------------------------------------------------------------------------

Dipole Moment Calculation                       ... on
Quadrupole Moment Calculation                   ... off
Polarizability Calculation                      ... off
GBWName                                         ... 12mecn.remya.etal.2.mol7,8-orca.engrad-mp2.def2tzvp.frozencore.gbw
Electron density file                           ... 12mecn.remya.etal.2.mol7,8-orca.engrad-mp2.def2tzvp.frozencore.pmp2re
The origin for moment calculation is the CENTER OF MASS  = ( 3.238258, -1.623848 -0.036093)

-------------
DIPOLE MOMENT
-------------
                                X             Y             Z
Electronic contribution:      0.02649       0.23985       0.02440
Nuclear contribution   :     -0.04122      -0.35677      -0.01930
                        -----------------------------------------
Total Dipole Moment    :     -0.01473      -0.11692       0.00510
                        -----------------------------------------
Magnitude (a.u.)       :      0.11796
Magnitude (Debye)      :      0.29983



--------------------
Rotational spectrum 
--------------------
 
Rotational constants in cm-1:     0.169859     0.068744     0.049875 
Rotational constants in MHz :  5092.247385  2060.885391  1495.220661 

 Dipole components along the rotational axes: 
x,y,z [a.u.] :    -0.100510     0.051067     0.034701 
x,y,z [Debye]:    -0.255476     0.129803     0.088202 

 

Timings for individual modules:

Sum of individual times         ...       72.083 sec (=   1.201 min)
GTO integral calculation        ...        1.394 sec (=   0.023 min)   1.9 %
SCF iterations                  ...       18.490 sec (=   0.308 min)  25.7 %
MP2 module                      ...       52.198 sec (=   0.870 min)  72.4 %
                             ****ORCA TERMINATED NORMALLY****
TOTAL RUN TIME: 0 days 0 hours 1 minutes 13 seconds 129 msec
