24
Energy:   -296.10247915
O    2.14146594   1.42158708   0.52247659
H    1.48922352   1.25710700   1.20347437
H    2.76185226   2.02866599   0.92597114
O    0.17233684   0.76915517   2.30916832
H   -0.63219898   1.00333859   1.84644584
H    0.10348744  -0.17553243   2.44721521
O   -0.11352022  -2.26796493   1.29276663
H    0.62041097  -1.93826437   0.77423563
H   -0.02276984  -3.22024534   1.25873378
O   -1.91613207   1.24803277   0.55751612
H   -2.01032283   0.34105770   0.26638697
H   -2.81285107   1.57974339   0.60328664
O    1.67325742  -1.17819701  -0.41358273
H    1.12807670  -1.03523952  -1.18725772
H    1.94604417  -0.30036661  -0.14668757
O    0.06689486   1.79079175  -1.27416358
H    0.81849119   1.80240731  -0.68154237
H   -0.69332474   1.72437508  -0.69633415
O   -0.08376555  -0.58534532  -2.48748585
H   -0.03890141   0.30894577  -2.14916278
H    0.06335428  -0.49346764  -3.42883919
O   -1.91964790  -1.22506688  -0.45657237
H   -1.41730544  -1.16866363  -1.26940850
H   -1.33556240  -1.67210626   0.15598927
