24
Energy:   -287.45886932
O    0.12955728   1.92953671   0.11230705
H    0.20701224   1.48849395   0.95830579
H    1.02148461   1.94097861  -0.23491992
O   -0.33769073  -2.21833830  -0.52255578
H    0.49239081  -1.97922187  -0.11022117
H   -0.25718752  -3.15586314  -0.69805011
O   -1.90716125  -0.82500487   1.29361988
H   -2.31489276  -0.15476370   0.74520066
H   -1.51403981  -1.43739433   0.67179471
O   -2.55975433   1.20537373  -0.44278375
H   -1.84133312   1.79027830  -0.20197376
H   -2.34001044   0.90593855  -1.32498727
O   -0.26683876   0.14059859  -1.95164423
H   -0.36953120  -0.73508016  -1.57898778
H   -0.28180156   0.72668270  -1.19499809
O    0.29772086   0.30559477   2.32072732
H   -0.52156728  -0.12129899   2.07020684
H    0.22525721   0.42722647   3.26739865
O    2.31648424   0.76240057  -1.33087431
H    1.51846873   0.48771905  -1.78248605
H    2.95502362   0.89542357  -2.03144849
O    1.88537373  -1.19973043   0.60485282
H    1.48909744  -0.69787898   1.31713232
H    2.21546586  -0.53651217  -0.00129283
