24
Energy:   -287.14043028
O   -0.08642753   1.63050797   1.12616638
H   -0.68845820   1.33858605   0.44164281
H    0.75841799   1.71252873   0.68374068
O    0.01664918  -0.69185767   2.45989978
H   -0.02546082   0.19105456   2.09257896
H    0.11530359  -0.55531995   3.40216121
O   -1.49565693   0.50692703  -0.95125509
H   -1.17885265  -0.36709722  -1.17917725
H   -1.03835655   1.09280730  -1.55445698
O    1.61129077  -1.22611064   0.23051168
H    0.95800195  -1.64198647  -0.33206530
H    1.19140785  -1.17579525   1.08923081
O   -2.18310678  -1.57320660   1.02969231
H   -2.42718644  -0.74171307   0.62315146
H   -1.49479408  -1.34240744   1.65354262
O   -0.64193955  -2.14270938  -1.10176987
H   -0.95253710  -2.87647508  -1.63219319
H   -1.21204731  -2.14414387  -0.33287004
O    0.26707128   2.07011478  -2.33612233
H    0.34238560   3.01844945  -2.44205131
H    1.01160865   1.83038506  -1.78437455
O    2.17659746   1.31932763  -0.47603459
H    3.12429169   1.43568545  -0.40844507
H    2.03501358   0.39088096  -0.29117617
