
                                 *****************
                                 * O   R   C   A *
                                 *****************

           --- An Ab Initio, DFT and Semiempirical electronic structure package ---

                  #######################################################
                  #                        -***-                        #
                  #          Department of theory and spectroscopy      #
                  #               Directorship: Frank Neese             #
                  #        Max Planck Institute fuer Kohlenforschung    #
                  #                Kaiser Wilhelm Platz 1               #
                  #                 D-45470 Muelheim/Ruhr               #
                  #                      Germany                        #
                  #                                                     #
                  #                  All rights reserved                #
                  #                        -***-                        #
                  #######################################################


                         Program Version 4.2.0 -  RELEASE  -


 With contributions from (in alphabetic order):
   Daniel Aravena         : Magnetic Suceptibility
   Michael Atanasov       : Ab Initio Ligand Field Theory (pilot matlab implementation)
   Alexander A. Auer      : GIAO ZORA, VPT2
   Ute Becker             : Parallelization
   Giovanni Bistoni       : ED, misc. LED, open-shell LED, HFLED
   Martin Brehm           : Molecular dynamics
   Dmytro Bykov           : SCF Hessian
   Vijay G. Chilkuri      : MRCI spin determinant printing, contributions to CSF-ICE
   Dipayan Datta          : RHF DLPNO-CCSD density
   Achintya Kumar Dutta   : EOM-CC, STEOM-CC
   Dmitry Ganyushin       : Spin-Orbit,Spin-Spin,Magnetic field MRCI
   Miquel Garcia          : C-PCM Hessian, Gaussian charge scheme
   Yang Guo               : DLPNO-NEVPT2, CIM, IAO-localization
   Andreas Hansen         : Spin unrestricted coupled pair/coupled cluster methods
   Benjamin Helmich-Paris : CASSCF linear response (MC-RPA)
   Lee Huntington         : MR-EOM, pCC
   Robert Izsak           : Overlap fitted RIJCOSX, COSX-SCS-MP3, EOM
   Christian Kollmar      : KDIIS, OOCD, Brueckner-CCSD(T), CCSD density
   Simone Kossmann        : Meta GGA functionals, TD-DFT gradient, OOMP2, MP2 Hessian
   Martin Krupicka        : AUTO-CI
   Lucas Lang             : DCDCAS
   Dagmar Lenk            : GEPOL surface, SMD
   Dimitrios Liakos       : Extrapolation schemes; Compound Job, initial MDCI parallelization
   Dimitrios Manganas     : Further ROCIS development; embedding schemes
   Dimitrios Pantazis     : SARC Basis sets
   Taras Petrenko         : DFT Hessian,TD-DFT gradient, ASA, ECA, R-Raman, ABS, FL, XAS/XES, NRVS
   Peter Pinski           : DLPNO-MP2, DLPNO-MP2 Gradient
   Christoph Reimann      : Effective Core Potentials
   Marius Retegan         : Local ZFS, SOC
   Christoph Riplinger    : Optimizer, TS searches, QM/MM, DLPNO-CCSD(T), (RO)-DLPNO pert. Triples
   Tobias Risthaus        : Range-separated hybrids, TD-DFT gradient, RPA, STAB
   Michael Roemelt        : Original ROCIS implementation
   Masaaki Saitow         : Open-shell DLPNO-CCSD energy and density
   Barbara Sandhoefer     : DKH picture change effects
   Avijit Sen             : IP-ROCIS
   Kantharuban Sivalingam : CASSCF convergence, NEVPT2, FIC-MRCI
   Bernardo de Souza      : ESD, SOC TD-DFT
   Georgi Stoychev        : AutoAux, RI-MP2 NMR
   Willem Van den Heuvel  : Paramagnetic NMR
   Boris Wezisla          : Elementary symmetry handling
   Frank Wennmohs         : Technical directorship


 We gratefully acknowledge several colleagues who have allowed us to
 interface, adapt or use parts of their codes:
   Stefan Grimme, W. Hujo, H. Kruse,             : VdW corrections, initial TS optimization,
                  C. Bannwarth                     DFT functionals, gCP, sTDA/sTD-DF
   Ed Valeev, F. Pavosevic, A. Kumar             : LibInt (2-el integral package), F12 methods
   Garnet Chan, S. Sharma, J. Yang, R. Olivares  : DMRG
   Ulf Ekstrom                                   : XCFun DFT Library
   Mihaly Kallay                                 : mrcc  (arbitrary order and MRCC methods)
   Andreas Klamt, Michael Diedenhofen            : otool_cosmo (COSMO solvation model)
   Jiri Pittner, Ondrej Demel                    : Mk-CCSD
   Frank Weinhold                                : gennbo (NPA and NBO analysis)
   Christopher J. Cramer and Donald G. Truhlar   : smd solvation model
   Lars Goerigk                                  : TD-DFT with DH, B97 family of functionals
   V. Asgeirsson, H. Jonsson                     : NEB implementation
   FAccTs GmbH                                   : IRC, NEB, NEB-TS, Multilevel, MM, QM/MM, CI optimization
   S Lehtola, MJT Oliveira, MAL Marques          : LibXC Library


 Your calculation uses the libint2 library for the computation of 2-el integrals
 For citations please refer to: http://libint.valeyev.net

 Your ORCA version has been built with support for libXC version: 4.2.3
 For citations please refer to: https://tddft.org/programs/libxc/

 This ORCA versions uses:
   CBLAS   interface :  Fast vector & matrix operations
   LAPACKE interface :  Fast linear algebra routines
   SCALAPACK package :  Parallel linear algebra routines


----- Orbital basis set information -----
Your calculation utilizes the basis: def2-TZVP
   F. Weigend and R. Ahlrichs, Phys. Chem. Chem. Phys. 7, 3297 (2005).

================================================================================
                                        WARNINGS
                       Please study these warnings very carefully!
================================================================================


WARNING: The frozen-core approximation for MP2-gradient calculations is turned on by default.

INFO   : the flag for use of LIBINT has been found!

================================================================================
                                       INPUT FILE
================================================================================
NAME = 12mecn.remya.etal.2.mol0,1,4-orca.engrad-mp2.def2tzvp.frozencore.inp
|  1> # 12mecn.remya.etal.2.mol0,1,4
|  2> ! MP2 def2-TZVP EnGrad TightSCF
|  3> 
|  4> %pal
|  5>     nprocs 6
|  6> end
|  7> 
|  8> %maxcore 8000
|  9> 
| 10> %scf
| 11>     ConvForced true
| 12> end
| 13> 
| 14> *xyz 0 1
| 15> C  -0.869520000  -3.929380000   1.700199000
| 16> H  -0.057420000  -3.268850000   2.015352000
| 17> H  -0.697530000  -4.930670000   2.101524000
| 18> H  -1.821490000  -3.546590000   2.077146000
| 19> C  -0.916080000  -3.969960000   0.256749000
| 20> N  -0.955390000  -3.995980000  -0.909290000
| 21> C  -4.697980000  -0.249690000   1.746215000
| 22> H  -4.927570000   0.755530000   2.111799000
| 23> H  -3.709180000  -0.561560000   2.093253000
| 24> H  -5.432280000  -0.961520000   2.128066000
| 25> C  -4.714100000  -0.247110000   0.301670000
| 26> N  -4.729750000  -0.234960000  -0.865260000
| 27> C  -1.509690000  -0.693960000  -1.610140000
| 28> H  -1.327010000  -1.692700000  -2.017370000
| 29> H  -0.742170000  -0.000650000  -1.964400000
| 30> H  -2.491920000  -0.334310000  -1.929350000
| 31> C  -1.473570000  -0.748120000  -0.167200000
| 32> N  -1.447490000  -0.793720000   0.998938000
| 33> *
| 34> 
| 35>                          ****END OF INPUT****
================================================================================

                     *******************************
                     * Energy+Gradient Calculation *
                     *******************************

---------------------------------
CARTESIAN COORDINATES (ANGSTROEM)
---------------------------------
  C     -0.869520   -3.929380    1.700199
  H     -0.057420   -3.268850    2.015352
  H     -0.697530   -4.930670    2.101524
  H     -1.821490   -3.546590    2.077146
  C     -0.916080   -3.969960    0.256749
  N     -0.955390   -3.995980   -0.909290
  C     -4.697980   -0.249690    1.746215
  H     -4.927570    0.755530    2.111799
  H     -3.709180   -0.561560    2.093253
  H     -5.432280   -0.961520    2.128066
  C     -4.714100   -0.247110    0.301670
  N     -4.729750   -0.234960   -0.865260
  C     -1.509690   -0.693960   -1.610140
  H     -1.327010   -1.692700   -2.017370
  H     -0.742170   -0.000650   -1.964400
  H     -2.491920   -0.334310   -1.929350
  C     -1.473570   -0.748120   -0.167200
  N     -1.447490   -0.793720    0.998938

----------------------------
CARTESIAN COORDINATES (A.U.)
----------------------------
  NO LB      ZA    FRAG     MASS         X           Y           Z
   0 C     6.0000    0    12.011   -1.643155   -7.425452    3.212910
   1 H     1.0000    0     1.008   -0.108508   -6.177231    3.808463
   2 H     1.0000    0     1.008   -1.318141   -9.317616    3.971305
   3 H     1.0000    0     1.008   -3.442117   -6.702084    3.925237
   4 C     6.0000    0    12.011   -1.731140   -7.502137    0.485185
   5 N     7.0000    0    14.007   -1.805425   -7.551308   -1.718309
   6 C     6.0000    0    12.011   -8.877896   -0.471846    3.299868
   7 H     1.0000    0     1.008   -9.311758    1.427745    3.990722
   8 H     1.0000    0     1.008   -7.009334   -1.061195    3.955675
   9 H     1.0000    0     1.008  -10.265521   -1.817009    4.021462
  10 C     6.0000    0    12.011   -8.908358   -0.466970    0.570074
  11 N     7.0000    0    14.007   -8.937932   -0.444010   -1.635104
  12 C     6.0000    0    12.011   -2.852901   -1.311394   -3.042724
  13 H     1.0000    0     1.008   -2.507685   -3.198739   -3.812277
  14 H     1.0000    0     1.008   -1.402498   -0.001228   -3.712178
  15 H     1.0000    0     1.008   -4.709046   -0.631754   -3.645943
  16 C     6.0000    0    12.011   -2.784644   -1.413742   -0.315962
  17 N     7.0000    0    14.007   -2.735360   -1.499913    1.887719

--------------------------------
INTERNAL COORDINATES (ANGSTROEM)
--------------------------------
 C      0   0   0     0.000000000000     0.00000000     0.00000000
 H      1   0   0     1.093218964485     0.00000000     0.00000000
 H      1   2   0     1.092347920685   109.32735472     0.00000000
 H      1   2   3     1.093098397130   109.63009885   119.86690662
 C      1   2   3     1.444770733542   109.20363402   239.27834980
 N      5   1   2     1.166991544966   179.65780255   294.97577729
 C      4   1   2     4.387853650347   143.90409828    67.01149066
 H      7   4   1     1.093997476028   143.39548984   274.71701792
 H      7   4   1     1.093354338878    33.78512473   288.96408791
 H      7   4   1     1.091654077582    85.67789748   156.55844139
 C      7   4   1     1.444637244371    94.82265768    46.72700231
 N     11   7   4     1.167098183488   179.48927802   206.44026684
 C     12  11   7     3.336811894309   102.05360307   112.84708689
 H     13  12  11     1.093933198555   111.70560639   108.16292756
 H     13  12  11     1.093282147526   131.49629836   255.54745959
 H     13  12  11     1.093626499085    32.13524685   201.45653336
 C     13  12  11     1.444407769157    78.83036115     1.46927785
 N     17  13  12     1.167320590688   179.82285150    38.98509084

---------------------------
INTERNAL COORDINATES (A.U.)
---------------------------
 C      0   0   0     0.000000000000     0.00000000     0.00000000
 H      1   0   0     2.065884447285     0.00000000     0.00000000
 H      1   2   0     2.064238413053   109.32735472     0.00000000
 H      1   2   3     2.065656608005   109.63009885   119.86690662
 C      1   2   3     2.730221012699   109.20363402   239.27834980
 N      5   1   2     2.205294420586   179.65780255   294.97577729
 C      4   1   2     8.291841714882   143.90409828    67.01149066
 H      7   4   1     2.067355620894   143.39548984   274.71701792
 H      7   4   1     2.066140267815    33.78512473   288.96408791
 H      7   4   1     2.062927239608    85.67789748   156.55844139
 C      7   4   1     2.729968754725    94.82265768    46.72700231
 N     11   7   4     2.205495938188   179.48927802   206.44026684
 C     12  11   7     6.305660640654   102.05360307   112.84708689
 H     13  12  11     2.067234154073   111.70560639   108.16292756
 H     13  12  11     2.066003845930   131.49629836   255.54745959
 H     13  12  11     2.066654576069    32.13524685   201.45653336
 C     13  12  11     2.729535109414    78.83036115     1.46927785
 N     17  13  12     2.205916226887   179.82285150    38.98509084

---------------------
BASIS SET INFORMATION
---------------------
There are 3 groups of distinct atoms

 Group   1 Type C   : 11s6p2d1f contracted to 5s3p2d1f pattern {62111/411/11/1}
 Group   2 Type H   : 5s1p contracted to 3s1p pattern {311/1}
 Group   3 Type N   : 11s6p2d1f contracted to 5s3p2d1f pattern {62111/411/11/1}

Atom   0C    basis set group =>   1
Atom   1H    basis set group =>   2
Atom   2H    basis set group =>   2
Atom   3H    basis set group =>   2
Atom   4C    basis set group =>   1
Atom   5N    basis set group =>   3
Atom   6C    basis set group =>   1
Atom   7H    basis set group =>   2
Atom   8H    basis set group =>   2
Atom   9H    basis set group =>   2
Atom  10C    basis set group =>   1
Atom  11N    basis set group =>   3
Atom  12C    basis set group =>   1
Atom  13H    basis set group =>   2
Atom  14H    basis set group =>   2
Atom  15H    basis set group =>   2
Atom  16C    basis set group =>   1
Atom  17N    basis set group =>   3


           ************************************************************
           *        Program running with 6 parallel MPI-processes     *
           *              working on a common directory               *
           ************************************************************
------------------------------------------------------------------------------
                           ORCA GTO INTEGRAL CALCULATION
------------------------------------------------------------------------------

                         BASIS SET STATISTICS AND STARTUP INFO

 # of primitive gaussian shells          ...  234
 # of primitive gaussian functions       ...  486
 # of contracted shells                  ...  135
 # of contracted basis functions         ...  333
 Highest angular momentum                ...    3
 Maximum contraction depth               ...    6
 Integral package used                   ... LIBINT
 Integral threshhold            Thresh   ...  2.500e-11
 Primitive cut-off              TCut     ...  2.500e-12


------------------------------ INTEGRAL EVALUATION ----------------------------


 * One electron integrals 
 Pre-screening matrix                    ... done
 Shell pair data                         ... done (   0.002 sec)



           ************************************************************
           *        Program running with 6 parallel MPI-processes     *
           *              working on a common directory               *
           ************************************************************
-------------------------------------------------------------------------------
                                 ORCA SCF
-------------------------------------------------------------------------------

------------
SCF SETTINGS
------------
Hamiltonian:
 Ab initio Hamiltonian  Method          .... Hartree-Fock(GTOs)


General Settings:
 Integral files         IntName         .... 12mecn.remya.etal.2.mol0,1,4-orca.engrad-mp2.def2tzvp.frozencore
 Hartree-Fock type      HFTyp           .... RHF
 Total Charge           Charge          ....    0
 Multiplicity           Mult            ....    1
 Number of Electrons    NEL             ....   66
 Basis Dimension        Dim             ....  333
 Nuclear Repulsion      ENuc            ....    360.5009015331 Eh

Convergence Acceleration:
 DIIS                   CNVDIIS         .... on
   Start iteration      DIISMaxIt       ....    12
   Startup error        DIISStart       ....  0.200000
   # of expansion vecs  DIISMaxEq       ....     5
   Bias factor          DIISBfac        ....   1.050
   Max. coefficient     DIISMaxC        ....  10.000
 Newton-Raphson         CNVNR           .... off
 SOSCF                  CNVSOSCF        .... on
   Start iteration      SOSCFMaxIt      ....   150
   Startup grad/error   SOSCFStart      ....  0.003300
 Level Shifting         CNVShift        .... on
   Level shift para.    LevelShift      ....    0.2500
   Turn off err/grad.   ShiftErr        ....    0.0010
 Zerner damping         CNVZerner       .... off
 Static damping         CNVDamp         .... on
   Fraction old density DampFac         ....    0.7000
   Max. Damping (<1)    DampMax         ....    0.9800
   Min. Damping (>=0)   DampMin         ....    0.0000
   Turn off err/grad.   DampErr         ....    0.1000
 Fernandez-Rico         CNVRico         .... off

SCF Procedure:
 Maximum # iterations   MaxIter         ....   125
 SCF integral mode      SCFMode         .... Direct
   Integral package                     .... LIBINT
 Reset frequency        DirectResetFreq ....    20
 Integral Threshold     Thresh          ....  2.500e-11 Eh
 Primitive CutOff       TCut            ....  2.500e-12 Eh

Convergence Tolerance:
 Convergence Check Mode ConvCheckMode   .... Total+1el-Energy
 Convergence forced     ConvForced      .... 1
 Energy Change          TolE            ....  1.000e-08 Eh
 1-El. energy change                    ....  1.000e-05 Eh
 Orbital Gradient       TolG            ....  1.000e-05
 Orbital Rotation angle TolX            ....  1.000e-05
 DIIS Error             TolErr          ....  5.000e-07


Diagonalization of the overlap matrix:
Smallest eigenvalue                        ... 1.455e-04
Time for diagonalization                   ...    0.016 sec
Threshold for overlap eigenvalues          ... 1.000e-08
Number of eigenvalues below threshold      ... 0
Time for construction of square roots      ...    0.008 sec
Total time needed                          ...    0.025 sec

-------------------
DFT GRID GENERATION
-------------------

General Integration Accuracy     IntAcc      ...  4.340
Radial Grid Type                 RadialGrid  ... Gauss-Chebyshev
Angular Grid (max. acc.)         AngularGrid ... Lebedev-110
Angular grid pruning method      GridPruning ... 3 (G Style)
Weight generation scheme         WeightScheme... Becke
Basis function cutoff            BFCut       ...    1.0000e-11
Integration weight cutoff        WCut        ...    1.0000e-14
Grids for H and He will be reduced by one unit

# of grid points (after initial pruning)     ...  22188 (   0.0 sec)
# of grid points (after weights+screening)   ...  20695 (   0.0 sec)
nearest neighbour list constructed           ...    0.0 sec
Grid point re-assignment to atoms done       ...    0.0 sec
Grid point division into batches done        ...    0.0 sec
Reduced shell lists constructed in    0.0 sec

Total number of grid points                  ...    20695
Total number of batches                      ...      333
Average number of points per batch           ...       62
Average number of grid points per atom       ...     1150
Average number of shells per batch           ...    68.09 (50.44%)
Average number of basis functions per batch  ...   161.91 (48.62%)
Average number of large shells per batch     ...    48.96 (71.91%)
Average number of large basis fcns per batch ...   115.04 (71.05%)
Maximum spatial batch extension              ...  15.54, 15.68, 17.73 au
Average spatial batch extension              ...   0.73,  0.74,  0.85 au

Time for grid setup =    0.073 sec

------------------------------
INITIAL GUESS: MODEL POTENTIAL
------------------------------
Loading Hartree-Fock densities                     ... done
Calculating cut-offs                               ... done
Setting up the integral package                    ... done
Initializing the effective Hamiltonian             ... done
Starting the Coulomb interaction                   ... done (   0.0 sec)
Reading the grid                                   ... done
Mapping shells                                     ... done
Starting the XC term evaluation                    ... done (   0.0 sec)
Transforming the Hamiltonian                       ... done (   0.0 sec)
Diagonalizing the Hamiltonian                      ... done (   0.0 sec)
Back transforming the eigenvectors                 ... done (   0.0 sec)
Now organizing SCF variables                       ... done
                      ------------------
                      INITIAL GUESS DONE (   0.3 sec)
                      ------------------
--------------
SCF ITERATIONS
--------------
ITER       Energy         Delta-E        Max-DP      RMS-DP      [F,P]     Damp
               ***  Starting incremental Fock matrix formation  ***
  0   -395.4607288920   0.000000000000 0.03670582  0.00083989  0.2694594 0.7000
  1   -395.6279634966  -0.167234604588 0.02635272  0.00066046  0.1877782 0.7000
                               ***Turning on DIIS***
  2   -395.7268365274  -0.098873030807 0.01583573  0.00044640  0.1417717 0.7000
  3   -396.6906287147  -0.963792187336 0.01116128  0.00030316  0.1052720 0.7000
  4   -396.6291756178   0.061453096982 0.02973814  0.00074267  0.0742249 0.0000
  5   -395.9583685642   0.670807053578 0.00515310  0.00010693  0.0058959 0.0000
                      *** Initiating the SOSCF procedure ***
                           *** Shutting down DIIS ***
                      *** Re-Reading the Fockian *** 
                      *** Removing any level shift *** 
ITER      Energy       Delta-E        Grad      Rot      Max-DP    RMS-DP
  6   -395.93978663   0.0185819334  0.001186  0.001186  0.003639  0.000065
               *** Restarting incremental Fock matrix formation ***
  7   -395.93131958   0.0084670469  0.000490  0.000775  0.002401  0.000045
  8   -395.93133891  -0.0000193214  0.000254  0.000493  0.002079  0.000038
  9   -395.93134379  -0.0000048798  0.000115  0.000139  0.000624  0.000010
 10   -395.93134434  -0.0000005548  0.000017  0.000028  0.000081  0.000001
 11   -395.93134437  -0.0000000268  0.000010  0.000037  0.000035  0.000001
 12   -395.93134438  -0.0000000141  0.000005  0.000010  0.000035  0.000001
                  ***Gradient check signals convergence***
              ***Rediagonalizing the Fockian in SOSCF/NRSCF***

               *****************************************************
               *                     SUCCESS                       *
               *           SCF CONVERGED AFTER  13 CYCLES          *
               *****************************************************


----------------
TOTAL SCF ENERGY
----------------

Total Energy       :         -395.93134438 Eh          -10773.83961 eV

Components:
Nuclear Repulsion  :          360.50090153 Eh            9809.72825 eV
Electronic Energy  :         -756.43224592 Eh          -20583.56786 eV
One Electron Energy:        -1250.18666147 Eh          -34019.30857 eV
Two Electron Energy:          493.75441556 Eh           13435.74071 eV

Virial components:
Potential Energy   :         -791.11372378 Eh          -21527.29885 eV
Kinetic Energy     :          395.18237939 Eh           10753.45924 eV
Virial Ratio       :            2.00189524


---------------
SCF CONVERGENCE
---------------

  Last Energy change         ...   -1.6524e-09  Tolerance :   1.0000e-08
  Last MAX-Density change    ...    1.5499e-05  Tolerance :   1.0000e-07
  Last RMS-Density change    ...    2.7580e-07  Tolerance :   5.0000e-09
  Last Orbital Gradient      ...    2.0767e-06  Tolerance :   1.0000e-05
  Last Orbital Rotation      ...    5.0269e-06  Tolerance :   1.0000e-05

             **** THE GBW FILE WAS UPDATED (12mecn.remya.etal.2.mol0,1,4-orca.engrad-mp2.def2tzvp.frozencore.gbw) ****
             **** DENSITY FILE WAS UPDATED (12mecn.remya.etal.2.mol0,1,4-orca.engrad-mp2.def2tzvp.frozencore.scfp) ****
             **** ENERGY FILE WAS UPDATED (12mecn.remya.etal.2.mol0,1,4-orca.engrad-mp2.def2tzvp.frozencore.en.tmp) ****
             **** THE GBW FILE WAS UPDATED (12mecn.remya.etal.2.mol0,1,4-orca.engrad-mp2.def2tzvp.frozencore.gbw) ****
             **** DENSITY FILE WAS UPDATED (12mecn.remya.etal.2.mol0,1,4-orca.engrad-mp2.def2tzvp.frozencore.scfp) ****
----------------
ORBITAL ENERGIES
----------------

  NO   OCC          E(Eh)            E(eV) 
   0   2.0000     -15.571992      -423.7354 
   1   2.0000     -15.570101      -423.6840 
   2   2.0000     -15.568838      -423.6496 
   3   2.0000     -11.284728      -307.0731 
   4   2.0000     -11.283075      -307.0281 
   5   2.0000     -11.281315      -306.9802 
   6   2.0000     -11.275484      -306.8215 
   7   2.0000     -11.275110      -306.8113 
   8   2.0000     -11.259649      -306.3906 
   9   2.0000      -1.218895       -33.1678 
  10   2.0000      -1.215374       -33.0720 
  11   2.0000      -1.212615       -32.9969 
  12   2.0000      -1.038287       -28.2532 
  13   2.0000      -1.037113       -28.2213 
  14   2.0000      -1.026722       -27.9385 
  15   2.0000      -0.695949       -18.9377 
  16   2.0000      -0.694315       -18.8933 
  17   2.0000      -0.684022       -18.6132 
  18   2.0000      -0.630061       -17.1448 
  19   2.0000      -0.628592       -17.1049 
  20   2.0000      -0.626139       -17.0381 
  21   2.0000      -0.623692       -16.9715 
  22   2.0000      -0.611768       -16.6471 
  23   2.0000      -0.608928       -16.5698 
  24   2.0000      -0.560259       -15.2454 
  25   2.0000      -0.556114       -15.1326 
  26   2.0000      -0.555118       -15.1055 
  27   2.0000      -0.462688       -12.5904 
  28   2.0000      -0.459120       -12.4933 
  29   2.0000      -0.458235       -12.4692 
  30   2.0000      -0.456771       -12.4294 
  31   2.0000      -0.455905       -12.4058 
  32   2.0000      -0.451900       -12.2968 
  33   0.0000       0.115936         3.1548 
  34   0.0000       0.141942         3.8624 
  35   0.0000       0.155988         4.2447 
  36   0.0000       0.163928         4.4607 
  37   0.0000       0.173231         4.7139 
  38   0.0000       0.176188         4.7943 
  39   0.0000       0.180048         4.8994 
  40   0.0000       0.185403         5.0451 
  41   0.0000       0.195298         5.3143 
  42   0.0000       0.205839         5.6012 
  43   0.0000       0.216046         5.8789 
  44   0.0000       0.218076         5.9342 
  45   0.0000       0.223305         6.0764 
  46   0.0000       0.229536         6.2460 
  47   0.0000       0.241027         6.5587 
  48   0.0000       0.255159         6.9432 
  49   0.0000       0.266189         7.2434 
  50   0.0000       0.275664         7.5012 
  51   0.0000       0.291711         7.9379 
  52   0.0000       0.314830         8.5670 
  53   0.0000       0.318691         8.6720 
  54   0.0000       0.323055         8.7908 
  55   0.0000       0.325180         8.8486 
  56   0.0000       0.331901         9.0315 
  57   0.0000       0.341040         9.2802 
  58   0.0000       0.354466         9.6455 
  59   0.0000       0.384511        10.4631 
  60   0.0000       0.396032        10.7766 
  61   0.0000       0.405483        11.0338 
  62   0.0000       0.412305        11.2194 
  63   0.0000       0.429374        11.6839 
  64   0.0000       0.455695        12.4001 
  65   0.0000       0.476266        12.9599 
  66   0.0000       0.477493        12.9932 
  67   0.0000       0.485800        13.2193 
  68   0.0000       0.512057        13.9338 
  69   0.0000       0.514529        14.0010 
  70   0.0000       0.529698        14.4138 
  71   0.0000       0.532777        14.4976 
  72   0.0000       0.546760        14.8781 
  73   0.0000       0.563510        15.3339 
  74   0.0000       0.572180        15.5698 
  75   0.0000       0.601378        16.3643 
  76   0.0000       0.608604        16.5610 
  77   0.0000       0.611357        16.6359 
  78   0.0000       0.613793        16.7022 
  79   0.0000       0.622168        16.9301 
  80   0.0000       0.632281        17.2052 
  81   0.0000       0.647621        17.6227 
  82   0.0000       0.662206        18.0195 
  83   0.0000       0.665829        18.1181 
  84   0.0000       0.679290        18.4844 
  85   0.0000       0.692642        18.8478 
  86   0.0000       0.705244        19.1907 
  87   0.0000       0.715015        19.4565 
  88   0.0000       0.731055        19.8930 
  89   0.0000       0.737442        20.0668 
  90   0.0000       0.756686        20.5905 
  91   0.0000       0.764762        20.8102 
  92   0.0000       0.779958        21.2237 
  93   0.0000       0.796790        21.6817 
  94   0.0000       0.810422        22.0527 
  95   0.0000       0.832459        22.6524 
  96   0.0000       0.835962        22.7477 
  97   0.0000       0.854638        23.2559 
  98   0.0000       0.861613        23.4457 
  99   0.0000       0.896499        24.3950 
 100   0.0000       0.909685        24.7538 
 101   0.0000       0.925393        25.1812 
 102   0.0000       0.935836        25.4654 
 103   0.0000       0.940524        25.5930 
 104   0.0000       0.954475        25.9726 
 105   0.0000       1.000099        27.2141 
 106   0.0000       1.027249        27.9529 
 107   0.0000       1.046519        28.4772 
 108   0.0000       1.066735        29.0273 
 109   0.0000       1.077654        29.3245 
 110   0.0000       1.113653        30.3041 
 111   0.0000       1.132708        30.8225 
 112   0.0000       1.145292        31.1650 
 113   0.0000       1.148041        31.2398 
 114   0.0000       1.166166        31.7330 
 115   0.0000       1.188975        32.3536 
 116   0.0000       1.213691        33.0262 
 117   0.0000       1.329028        36.1647 
 118   0.0000       1.338181        36.4137 
 119   0.0000       1.351509        36.7764 
 120   0.0000       1.393231        37.9117 
 121   0.0000       1.403497        38.1911 
 122   0.0000       1.425237        38.7827 
 123   0.0000       1.428761        38.8786 
 124   0.0000       1.442989        39.2657 
 125   0.0000       1.449271        39.4367 
 126   0.0000       1.457738        39.6671 
 127   0.0000       1.464047        39.8387 
 128   0.0000       1.467877        39.9430 
 129   0.0000       1.481749        40.3204 
 130   0.0000       1.484918        40.4067 
 131   0.0000       1.494244        40.6605 
 132   0.0000       1.508620        41.0516 
 133   0.0000       1.520640        41.3787 
 134   0.0000       1.528278        41.5866 
 135   0.0000       1.544463        42.0270 
 136   0.0000       1.568856        42.6907 
 137   0.0000       1.604716        43.6665 
 138   0.0000       1.698484        46.2181 
 139   0.0000       1.710442        46.5435 
 140   0.0000       1.731950        47.1287 
 141   0.0000       1.747595        47.5545 
 142   0.0000       1.754280        47.7364 
 143   0.0000       1.757925        47.8356 
 144   0.0000       1.769822        48.1593 
 145   0.0000       1.774824        48.2954 
 146   0.0000       1.775732        48.3201 
 147   0.0000       1.798652        48.9438 
 148   0.0000       1.805128        49.1200 
 149   0.0000       1.816612        49.4325 
 150   0.0000       1.836186        49.9652 
 151   0.0000       1.845330        50.2140 
 152   0.0000       1.852557        50.4106 
 153   0.0000       1.865689        50.7680 
 154   0.0000       1.869973        50.8845 
 155   0.0000       1.886155        51.3249 
 156   0.0000       1.942064        52.8462 
 157   0.0000       1.946490        52.9667 
 158   0.0000       1.960300        53.3425 
 159   0.0000       1.982350        53.9425 
 160   0.0000       1.982546        53.9478 
 161   0.0000       1.994547        54.2744 
 162   0.0000       2.017449        54.8976 
 163   0.0000       2.041366        55.5484 
 164   0.0000       2.050429        55.7950 
 165   0.0000       2.218224        60.3609 
 166   0.0000       2.234196        60.7956 
 167   0.0000       2.239983        60.9530 
 168   0.0000       2.253542        61.3220 
 169   0.0000       2.258492        61.4567 
 170   0.0000       2.273331        61.8605 
 171   0.0000       2.278807        62.0095 
 172   0.0000       2.310910        62.8831 
 173   0.0000       2.321767        63.1785 
 174   0.0000       2.371328        64.5271 
 175   0.0000       2.385600        64.9155 
 176   0.0000       2.433227        66.2115 
 177   0.0000       2.551204        69.4218 
 178   0.0000       2.559689        69.6527 
 179   0.0000       2.564206        69.7756 
 180   0.0000       2.578241        70.1575 
 181   0.0000       2.586531        70.3831 
 182   0.0000       2.597538        70.6826 
 183   0.0000       2.608483        70.9804 
 184   0.0000       2.617655        71.2300 
 185   0.0000       2.630183        71.5709 
 186   0.0000       2.638972        71.8101 
 187   0.0000       2.643160        71.9240 
 188   0.0000       2.653849        72.2149 
 189   0.0000       2.660494        72.3957 
 190   0.0000       2.682437        72.9928 
 191   0.0000       2.693497        73.2938 
 192   0.0000       2.717344        73.9427 
 193   0.0000       2.747805        74.7716 
 194   0.0000       2.750865        74.8548 
 195   0.0000       2.758051        75.0504 
 196   0.0000       2.760612        75.1201 
 197   0.0000       2.766133        75.2703 
 198   0.0000       2.776363        75.5487 
 199   0.0000       2.816950        76.6531 
 200   0.0000       2.838810        77.2479 
 201   0.0000       2.910306        79.1934 
 202   0.0000       2.913756        79.2873 
 203   0.0000       2.915707        79.3404 
 204   0.0000       2.917685        79.3943 
 205   0.0000       2.921901        79.5090 
 206   0.0000       2.929162        79.7066 
 207   0.0000       2.951947        80.3265 
 208   0.0000       2.952869        80.3517 
 209   0.0000       2.965062        80.6834 
 210   0.0000       2.967504        80.7499 
 211   0.0000       3.000522        81.6483 
 212   0.0000       3.005729        81.7900 
 213   0.0000       3.035145        82.5905 
 214   0.0000       3.040261        82.7297 
 215   0.0000       3.064544        83.3905 
 216   0.0000       3.095923        84.2443 
 217   0.0000       3.100522        84.3695 
 218   0.0000       3.102501        84.4233 
 219   0.0000       3.110315        84.6360 
 220   0.0000       3.131958        85.2249 
 221   0.0000       3.156575        85.8948 
 222   0.0000       3.214752        87.4778 
 223   0.0000       3.228051        87.8397 
 224   0.0000       3.255688        88.5918 
 225   0.0000       3.256879        88.6242 
 226   0.0000       3.263304        88.7990 
 227   0.0000       3.274534        89.1046 
 228   0.0000       3.283785        89.3563 
 229   0.0000       3.313220        90.1573 
 230   0.0000       3.321030        90.3698 
 231   0.0000       3.338593        90.8477 
 232   0.0000       3.342118        90.9437 
 233   0.0000       3.361922        91.4826 
 234   0.0000       3.368275        91.6554 
 235   0.0000       3.395026        92.3833 
 236   0.0000       3.431974        93.3887 
 237   0.0000       3.447468        93.8104 
 238   0.0000       3.450079        93.8814 
 239   0.0000       3.459937        94.1497 
 240   0.0000       3.478270        94.6485 
 241   0.0000       3.489979        94.9672 
 242   0.0000       3.501156        95.2713 
 243   0.0000       3.534139        96.1688 
 244   0.0000       3.567015        97.0634 
 245   0.0000       3.589823        97.6841 
 246   0.0000       3.660521        99.6078 
 247   0.0000       3.665013        99.7301 
 248   0.0000       3.665834        99.7524 
 249   0.0000       3.671083        99.8953 
 250   0.0000       3.683970       100.2459 
 251   0.0000       3.688831       100.3782 
 252   0.0000       3.802544       103.4725 
 253   0.0000       3.807244       103.6004 
 254   0.0000       3.809289       103.6560 
 255   0.0000       3.819910       103.9450 
 256   0.0000       3.833363       104.3111 
 257   0.0000       3.865493       105.1854 
 258   0.0000       3.939495       107.1991 
 259   0.0000       3.944074       107.3237 
 260   0.0000       3.954121       107.5971 
 261   0.0000       3.958871       107.7263 
 262   0.0000       3.964695       107.8848 
 263   0.0000       3.971469       108.0692 
 264   0.0000       3.977873       108.2434 
 265   0.0000       3.987520       108.5059 
 266   0.0000       4.010177       109.1225 
 267   0.0000       4.249950       115.6470 
 268   0.0000       4.256053       115.8131 
 269   0.0000       4.256658       115.8296 
 270   0.0000       4.262655       115.9927 
 271   0.0000       4.296291       116.9080 
 272   0.0000       4.309188       117.2590 
 273   0.0000       4.341906       118.1493 
 274   0.0000       4.343760       118.1997 
 275   0.0000       4.346397       118.2715 
 276   0.0000       4.347743       118.3081 
 277   0.0000       4.350619       118.3864 
 278   0.0000       4.356224       118.5389 
 279   0.0000       4.577337       124.5557 
 280   0.0000       4.583304       124.7180 
 281   0.0000       4.605145       125.3124 
 282   0.0000       4.746006       129.1454 
 283   0.0000       4.756558       129.4325 
 284   0.0000       4.769496       129.7846 
 285   0.0000       4.773118       129.8831 
 286   0.0000       4.790933       130.3679 
 287   0.0000       4.802025       130.6697 
 288   0.0000       4.854663       132.1021 
 289   0.0000       4.869257       132.4992 
 290   0.0000       4.883104       132.8760 
 291   0.0000       4.962290       135.0308 
 292   0.0000       4.968595       135.2023 
 293   0.0000       4.974878       135.3733 
 294   0.0000       4.983357       135.6040 
 295   0.0000       5.010774       136.3501 
 296   0.0000       5.014494       136.4513 
 297   0.0000       5.065610       137.8422 
 298   0.0000       5.068308       137.9157 
 299   0.0000       5.076911       138.1498 
 300   0.0000       5.083218       138.3214 
 301   0.0000       5.102589       138.8485 
 302   0.0000       5.121716       139.3690 
 303   0.0000       5.214479       141.8932 
 304   0.0000       5.223821       142.1474 
 305   0.0000       5.241218       142.6208 
 306   0.0000       5.559333       151.2771 
 307   0.0000       5.561828       151.3450 
 308   0.0000       5.585498       151.9891 
 309   0.0000       5.586684       152.0214 
 310   0.0000       5.594910       152.2452 
 311   0.0000       5.597312       152.3106 
 312   0.0000       6.023177       163.8990 
 313   0.0000       6.025408       163.9597 
 314   0.0000       6.029574       164.0730 
 315   0.0000       6.081360       165.4822 
 316   0.0000       6.082672       165.5179 
 317   0.0000       6.095850       165.8765 
 318   0.0000       6.101755       166.0372 
 319   0.0000       6.169350       167.8765 
 320   0.0000       6.184050       168.2765 
 321   0.0000       6.472675       176.1304 
 322   0.0000       6.476496       176.2344 
 323   0.0000       6.492690       176.6751 
 324   0.0000      23.489576       639.1839 
 325   0.0000      23.511288       639.7747 
 326   0.0000      23.521481       640.0520 
 327   0.0000      24.378524       663.3734 
 328   0.0000      24.394433       663.8063 
 329   0.0000      24.421154       664.5334 
 330   0.0000      33.427444       909.6070 
 331   0.0000      33.468745       910.7308 
 332   0.0000      33.534057       912.5081 

                    ********************************
                    * MULLIKEN POPULATION ANALYSIS *
                    ********************************

-----------------------
MULLIKEN ATOMIC CHARGES
-----------------------
   0 C :   -0.134098
   1 H :    0.160718
   2 H :    0.157390
   3 H :    0.148522
   4 C :   -0.081769
   5 N :   -0.250942
   6 C :   -0.181770
   7 H :    0.152395
   8 H :    0.190862
   9 H :    0.149901
  10 C :   -0.057025
  11 N :   -0.254391
  12 C :   -0.193356
  13 H :    0.191198
  14 H :    0.142731
  15 H :    0.192172
  16 C :   -0.011817
  17 N :   -0.320721
Sum of atomic charges:    0.0000000

--------------------------------
MULLIKEN REDUCED ORBITAL CHARGES
--------------------------------
  0 C s       :     3.122919  s :     3.122919
      pz      :     0.781062  p :     2.946187
      px      :     1.091190
      py      :     1.073934
      dz2     :     0.017016  d :     0.061530
      dxz     :     0.010663
      dyz     :     0.011141
      dx2y2   :     0.011528
      dxy     :     0.011182
      f0      :     0.001718  f :     0.003463
      f+1     :     0.000204
      f-1     :     0.000193
      f+2     :     0.000073
      f-2     :     0.000058
      f+3     :     0.000250
      f-3     :     0.000968
  1 H s       :     0.816650  s :     0.816650
      pz      :     0.004458  p :     0.022632
      px      :     0.009945
      py      :     0.008229
  2 H s       :     0.820379  s :     0.820379
      pz      :     0.005139  p :     0.022231
      px      :     0.003950
      py      :     0.013142
  3 H s       :     0.828925  s :     0.828925
      pz      :     0.004912  p :     0.022552
      px      :     0.012325
      py      :     0.005315
  4 C s       :     3.253781  s :     3.253781
      pz      :     0.964399  p :     2.695838
      px      :     0.871316
      py      :     0.860123
      dz2     :     0.024381  d :     0.114751
      dxz     :     0.044433
      dyz     :     0.044904
      dx2y2   :     0.000434
      dxy     :     0.000600
      f0      :     0.004095  f :     0.017399
      f+1     :     0.006548
      f-1     :     0.006634
      f+2     :     0.000039
      f-2     :     0.000076
      f+3     :     0.000002
      f-3     :     0.000004
  5 N s       :     3.737981  s :     3.737981
      pz      :     1.276737  p :     3.456315
      px      :     1.083567
      py      :     1.096011
      dz2     :     0.011194  d :     0.053702
      dxz     :     0.021174
      dyz     :     0.021163
      dx2y2   :     0.000116
      dxy     :     0.000056
      f0      :     0.000622  f :     0.002944
      f+1     :     0.001160
      f-1     :     0.001151
      f+2     :     0.000006
      f-2     :     0.000005
      f+3     :     0.000000
      f-3     :     0.000001
  6 C s       :     3.157162  s :     3.157162
      pz      :     0.781137  p :     2.959433
      px      :     1.101860
      py      :     1.076436
      dz2     :     0.017831  d :     0.061690
      dxz     :     0.011165
      dyz     :     0.010819
      dx2y2   :     0.010622
      dxy     :     0.011253
      f0      :     0.001744  f :     0.003486
      f+1     :     0.000202
      f-1     :     0.000189
      f+2     :     0.000052
      f-2     :     0.000075
      f+3     :     0.000493
      f-3     :     0.000731
  7 H s       :     0.825220  s :     0.825220
      pz      :     0.004839  p :     0.022385
      px      :     0.004221
      py      :     0.013325
  8 H s       :     0.786002  s :     0.786002
      pz      :     0.004526  p :     0.023136
      px      :     0.014073
      py      :     0.004536
  9 H s       :     0.827783  s :     0.827783
      pz      :     0.005015  p :     0.022316
      px      :     0.008771
      py      :     0.008530
 10 C s       :     3.243729  s :     3.243729
      pz      :     0.952525  p :     2.680144
      px      :     0.855519
      py      :     0.872100
      dz2     :     0.025062  d :     0.115751
      dxz     :     0.045605
      dyz     :     0.044264
      dx2y2   :     0.000495
      dxy     :     0.000326
      f0      :     0.004062  f :     0.017401
      f+1     :     0.006691
      f-1     :     0.006578
      f+2     :     0.000036
      f-2     :     0.000031
      f+3     :     0.000003
      f-3     :     0.000002
 11 N s       :     3.743142  s :     3.743142
      pz      :     1.274718  p :     3.454691
      px      :     1.097316
      py      :     1.082658
      dz2     :     0.011116  d :     0.053620
      dxz     :     0.021203
      dyz     :     0.021172
      dx2y2   :     0.000103
      dxy     :     0.000026
      f0      :     0.000616  f :     0.002938
      f+1     :     0.001152
      f-1     :     0.001165
      f+2     :     0.000002
      f-2     :     0.000001
      f+3     :     0.000001
      f-3     :     0.000000
 12 C s       :     3.170795  s :     3.170795
      pz      :     0.763045  p :     2.958784
      px      :     1.093740
      py      :     1.101999
      dz2     :     0.017951  d :     0.060293
      dxz     :     0.009323
      dyz     :     0.010789
      dx2y2   :     0.010131
      dxy     :     0.012099
      f0      :     0.001741  f :     0.003484
      f+1     :     0.000187
      f-1     :     0.000195
      f+2     :     0.000065
      f-2     :     0.000057
      f+3     :     0.000354
      f-3     :     0.000886
 13 H s       :     0.785745  s :     0.785745
      pz      :     0.005004  p :     0.023057
      px      :     0.003989
      py      :     0.014064
 14 H s       :     0.835003  s :     0.835003
      pz      :     0.004828  p :     0.022266
      px      :     0.009191
      py      :     0.008248
 15 H s       :     0.784578  s :     0.784578
      pz      :     0.004387  p :     0.023250
      px      :     0.014013
      py      :     0.004850
 16 C s       :     3.258387  s :     3.258387
      pz      :     0.945843  p :     2.616628
      px      :     0.835501
      py      :     0.835284
      dz2     :     0.024441  d :     0.119408
      dxz     :     0.046690
      dyz     :     0.046968
      dx2y2   :     0.000695
      dxy     :     0.000614
      f0      :     0.004036  f :     0.017394
      f+1     :     0.006605
      f-1     :     0.006616
      f+2     :     0.000053
      f-2     :     0.000075
      f+3     :     0.000005
      f-3     :     0.000005
 17 N s       :     3.752310  s :     3.752310
      pz      :     1.273610  p :     3.513173
      px      :     1.121892
      py      :     1.117671
      dz2     :     0.010826  d :     0.052319
      dxz     :     0.020675
      dyz     :     0.020619
      dx2y2   :     0.000138
      dxy     :     0.000060
      f0      :     0.000623  f :     0.002919
      f+1     :     0.001141
      f-1     :     0.001141
      f+2     :     0.000007
      f-2     :     0.000006
      f+3     :     0.000001
      f-3     :     0.000001


                     *******************************
                     * LOEWDIN POPULATION ANALYSIS *
                     *******************************

----------------------
LOEWDIN ATOMIC CHARGES
----------------------
   0 C :   -0.245699
   1 H :    0.148487
   2 H :    0.140465
   3 H :    0.145241
   4 C :   -0.187390
   5 N :   -0.004993
   6 C :   -0.244891
   7 H :    0.144504
   8 H :    0.148471
   9 H :    0.141126
  10 C :   -0.184845
  11 N :   -0.003974
  12 C :   -0.241429
  13 H :    0.150945
  14 H :    0.141057
  15 H :    0.150385
  16 C :   -0.170900
  17 N :   -0.026559

-------------------------------
LOEWDIN REDUCED ORBITAL CHARGES
-------------------------------
  0 C s       :     2.814085  s :     2.814085
      pz      :     1.021726  p :     3.145693
      px      :     1.062756
      py      :     1.061211
      dz2     :     0.078601  d :     0.260635
      dxz     :     0.058438
      dyz     :     0.060539
      dx2y2   :     0.030722
      dxy     :     0.032334
      f0      :     0.007534  f :     0.025286
      f+1     :     0.005159
      f-1     :     0.004883
      f+2     :     0.002451
      f-2     :     0.001947
      f+3     :     0.000681
      f-3     :     0.002630
  1 H s       :     0.790325  s :     0.790325
      pz      :     0.011883  p :     0.061189
      px      :     0.026835
      py      :     0.022470
  2 H s       :     0.798901  s :     0.798901
      pz      :     0.013251  p :     0.060634
      px      :     0.013090
      py      :     0.034293
  3 H s       :     0.793888  s :     0.793888
      pz      :     0.012757  p :     0.060871
      px      :     0.032480
      py      :     0.015633
  4 C s       :     2.840648  s :     2.840648
      pz      :     1.194216  p :     2.831150
      px      :     0.821797
      py      :     0.815137
      dz2     :     0.154705  d :     0.456163
      dxz     :     0.149876
      dyz     :     0.149740
      dx2y2   :     0.000764
      dxy     :     0.001078
      f0      :     0.022924  f :     0.059429
      f+1     :     0.017920
      f-1     :     0.018319
      f+2     :     0.000076
      f-2     :     0.000179
      f+3     :     0.000004
      f-3     :     0.000008
  5 N s       :     3.309150  s :     3.309150
      pz      :     1.494602  p :     3.572756
      px      :     1.037509
      py      :     1.040645
      dz2     :     0.045570  d :     0.108911
      dxz     :     0.031689
      dyz     :     0.031451
      dx2y2   :     0.000127
      dxy     :     0.000075
      f0      :     0.006227  f :     0.014176
      f+1     :     0.003983
      f-1     :     0.003931
      f+2     :     0.000019
      f-2     :     0.000015
      f+3     :     0.000000
      f-3     :     0.000001
  6 C s       :     2.813140  s :     2.813140
      pz      :     1.021905  p :     3.148159
      px      :     1.069841
      py      :     1.056413
      dz2     :     0.078874  d :     0.258362
      dxz     :     0.058469
      dyz     :     0.060505
      dx2y2   :     0.029333
      dxy     :     0.031181
      f0      :     0.007570  f :     0.025230
      f+1     :     0.005008
      f-1     :     0.005014
      f+2     :     0.002063
      f-2     :     0.002310
      f+3     :     0.001317
      f-3     :     0.001947
  7 H s       :     0.794933  s :     0.794933
      pz      :     0.012603  p :     0.060564
      px      :     0.013588
      py      :     0.034373
  8 H s       :     0.787694  s :     0.787694
      pz      :     0.012251  p :     0.063835
      px      :     0.037297
      py      :     0.014287
  9 H s       :     0.797979  s :     0.797979
      pz      :     0.012968  p :     0.060896
      px      :     0.024511
      py      :     0.023417
 10 C s       :     2.839809  s :     2.839809
      pz      :     1.193928  p :     2.828736
      px      :     0.813606
      py      :     0.821203
      dz2     :     0.154659  d :     0.456855
      dxz     :     0.151831
      dyz     :     0.149170
      dx2y2   :     0.000790
      dxy     :     0.000405
      f0      :     0.022947  f :     0.059445
      f+1     :     0.018440
      f-1     :     0.017923
      f+2     :     0.000073
      f-2     :     0.000052
      f+3     :     0.000006
      f-3     :     0.000003
 11 N s       :     3.308508  s :     3.308508
      pz      :     1.494978  p :     3.572338
      px      :     1.040838
      py      :     1.036522
      dz2     :     0.045586  d :     0.108970
      dxz     :     0.031548
      dyz     :     0.031666
      dx2y2   :     0.000145
      dxy     :     0.000025
      f0      :     0.006242  f :     0.014157
      f+1     :     0.003924
      f-1     :     0.003982
      f+2     :     0.000006
      f-2     :     0.000003
      f+3     :     0.000002
      f-3     :     0.000000
 12 C s       :     2.813242  s :     2.813242
      pz      :     1.016777  p :     3.150684
      px      :     1.066741
      py      :     1.067165
      dz2     :     0.080979  d :     0.252545
      dxz     :     0.053206
      dyz     :     0.058547
      dx2y2   :     0.026672
      dxy     :     0.033142
      f0      :     0.007780  f :     0.024958
      f+1     :     0.005060
      f-1     :     0.004629
      f+2     :     0.002151
      f-2     :     0.002067
      f+3     :     0.000947
      f-3     :     0.002324
 13 H s       :     0.785613  s :     0.785613
      pz      :     0.013189  p :     0.063442
      px      :     0.013027
      py      :     0.037226
 14 H s       :     0.798426  s :     0.798426
      pz      :     0.012492  p :     0.060517
      px      :     0.025222
      py      :     0.022803
 15 H s       :     0.785519  s :     0.785519
      pz      :     0.011858  p :     0.064096
      px      :     0.036998
      py      :     0.015240
 16 C s       :     2.842710  s :     2.842710
      pz      :     1.197636  p :     2.800461
      px      :     0.800861
      py      :     0.801964
      dz2     :     0.154780  d :     0.467526
      dxz     :     0.154940
      dyz     :     0.155438
      dx2y2   :     0.001289
      dxy     :     0.001078
      f0      :     0.022708  f :     0.060202
      f+1     :     0.018542
      f-1     :     0.018631
      f+2     :     0.000127
      f-2     :     0.000175
      f+3     :     0.000010
      f-3     :     0.000010
 17 N s       :     3.302206  s :     3.302206
      pz      :     1.494849  p :     3.605018
      px      :     1.056541
      py      :     1.053628
      dz2     :     0.045235  d :     0.105463
      dxz     :     0.029962
      dyz     :     0.029976
      dx2y2   :     0.000205
      dxy     :     0.000085
      f0      :     0.006229  f :     0.013872
      f+1     :     0.003783
      f-1     :     0.003815
      f+2     :     0.000023
      f-2     :     0.000019
      f+3     :     0.000001
      f-3     :     0.000001


                      *****************************
                      * MAYER POPULATION ANALYSIS *
                      *****************************

  NA   - Mulliken gross atomic population
  ZA   - Total nuclear charge
  QA   - Mulliken gross atomic charge
  VA   - Mayer's total valence
  BVA  - Mayer's bonded valence
  FA   - Mayer's free valence

  ATOM       NA         ZA         QA         VA         BVA        FA
  0 C      6.1341     6.0000    -0.1341     3.7983     3.7983    -0.0000
  1 H      0.8393     1.0000     0.1607     0.9690     0.9690    -0.0000
  2 H      0.8426     1.0000     0.1574     0.9563     0.9563    -0.0000
  3 H      0.8515     1.0000     0.1485     0.9706     0.9706    -0.0000
  4 C      6.0818     6.0000    -0.0818     3.9043     3.9043     0.0000
  5 N      7.2509     7.0000    -0.2509     2.9954     2.9954     0.0000
  6 C      6.1818     6.0000    -0.1818     3.7888     3.7888    -0.0000
  7 H      0.8476     1.0000     0.1524     0.9643     0.9643     0.0000
  8 H      0.8091     1.0000     0.1909     0.9605     0.9605     0.0000
  9 H      0.8501     1.0000     0.1499     0.9615     0.9615     0.0000
 10 C      6.0570     6.0000    -0.0570     3.8640     3.8640    -0.0000
 11 N      7.2544     7.0000    -0.2544     2.9875     2.9875    -0.0000
 12 C      6.1934     6.0000    -0.1934     3.7594     3.7594     0.0000
 13 H      0.8088     1.0000     0.1912     0.9634     0.9634     0.0000
 14 H      0.8573     1.0000     0.1427     0.9623     0.9623     0.0000
 15 H      0.8078     1.0000     0.1922     0.9613     0.9613    -0.0000
 16 C      6.0118     6.0000    -0.0118     3.8282     3.8282     0.0000
 17 N      7.3207     7.0000    -0.3207     2.9533     2.9533     0.0000

  Mayer bond orders larger than 0.100000
B(  0-C ,  1-H ) :   0.9597 B(  0-C ,  2-H ) :   0.9582 B(  0-C ,  3-H ) :   0.9620 
B(  0-C ,  4-C ) :   0.9385 B(  4-C ,  5-N ) :   2.9606 B(  6-C ,  7-H ) :   0.9609 
B(  6-C ,  8-H ) :   0.9539 B(  6-C ,  9-H ) :   0.9653 B(  6-C , 10-C ) :   0.9228 
B( 10-C , 11-N ) :   2.9529 B( 12-C , 13-H ) :   0.9514 B( 12-C , 14-H ) :   0.9620 
B( 12-C , 15-H ) :   0.9508 B( 12-C , 16-C ) :   0.9162 B( 16-C , 17-N ) :   2.9114 


-------
TIMINGS
-------

Total SCF time: 0 days 0 hours 0 min 51 sec 

Total time                  ....      51.628 sec
Sum of individual times     ....      51.319 sec  ( 99.4%)

Fock matrix formation       ....      50.724 sec  ( 98.2%)
Diagonalization             ....       0.143 sec  (  0.3%)
Density matrix formation    ....       0.020 sec  (  0.0%)
Population analysis         ....       0.027 sec  (  0.1%)
Initial guess               ....       0.190 sec  (  0.4%)
Orbital Transformation      ....       0.000 sec  (  0.0%)
Orbital Orthonormalization  ....       0.000 sec  (  0.0%)
DIIS solution               ....       0.055 sec  (  0.1%)
SOSCF solution              ....       0.088 sec  (  0.2%)


           ************************************************************
           *        Program running with 6 parallel MPI-processes     *
           *              working on a common directory               *
           ************************************************************

------------------------------------------------------------------------------
                                ORCA  MP2 
------------------------------------------------------------------------------

Freezing NCore=18 chemical core electrons
MP2 will be done in the AO integral direct mode
The Q1-step will be done using symmetric double matrices
Dimension of the basis                    ...  333
Memory devoted for MP2                    ... 8000 MB   
Memory needed for all in one shot         ...  566 MB
Number of MOs that can be treated together...   55      
MP2 density construction                  ... relaxed
The MP2 gradient is requested => amplitudes will be stored on disk
Total number of MOs              ...   24
Number of MOs treated per batch  ...    4 
Number of batches necessary      ...    1 
OPERATORS   0/  0 PASS   0
-----------------------------------------------
 MP2 CORRELATION ENERGY   :     -1.535850638 Eh
-----------------------------------------------


---------------------
MP2 DENSITY FORMATION
---------------------

Completing the external part of the density      ... done
Storing the unrelaxed density                    ... done

Calculating G(D)                                 ... done
Completing the Lagrangian                        ... done
Solving the Z-vector equations                   ... 

------------------------------------------------------------------------------
                           ORCA CP-SCF CALCULATION
------------------------------------------------------------------------------

Input orbitals are from        ... 12mecn.remya.etal.2.mol0,1,4-orca.engrad-mp2.def2tzvp.frozencore.gbw
Input Perturbation             ... 12mecn.remya.etal.2.mol0,1,4-orca.engrad-mp2.def2tzvp.frozencore.pin.tmp
Wavefunction output            ... 12mecn.remya.etal.2.mol0,1,4-orca.engrad-mp2.def2tzvp.frozencore.pout.tmp
Perturbation mode              ... Real perturbation (singlet)
Solver                         ... POPLE
Max. number of iterations      ... 128
Convergence tolerance          ... 1.000e-08
Integral handling              ... Direct
Number of perturbations        ... 1
Number of operators            ... 1
Orbital ranges used for CP-SCF:
 Operator 0:  Orbitals   0... 32  to  33...332
Variables per vector in CP-SCF ... 9900
Number of vectors sought       ... 1
     CP-SCF ITERATION   0: 
     CP-SCF ITERATION   1:      0.001624949628
     CP-SCF ITERATION   2:      0.000252410500
     CP-SCF ITERATION   3:      0.000010442205
     CP-SCF ITERATION   4:      0.000002893161
     CP-SCF ITERATION   5:      0.000001246318
     CP-SCF ITERATION   6:      0.000000141475
     CP-SCF ITERATION   7:      0.000000013360
     CP-SCF ITERATION   8:      0.000000000762
                                                 ... done
Finalizing the relaxed density                   ... done
Transforming P to the AO basis                   ... done
Storing the relaxed density                      ... done

------------------------------------
ENERGY WEIGHTED DENSITY FINALIZATION
------------------------------------

Gathering the parts of the W-matrix              ...                                                      done
Forming the Z-density                            ... done
Transforming Z to the AO basis                   ... done
Calculating G(Z)                                 ... done
Finalizing the W-matrix                          ...                                                      done
Transforming W to the AO basis and storing       ... done

                *********************************************
                * UNRELAXED MP2 DENSITY POPULATION ANALYSIS *
                *********************************************

------------------------------------------------------------------------------
                           ORCA POPULATION ANALYSIS
------------------------------------------------------------------------------
Input electron density              ... 12mecn.remya.etal.2.mol0,1,4-orca.engrad-mp2.def2tzvp.frozencore.pmp2ur
BaseName (.gbw .S,...)              ... 12mecn.remya.etal.2.mol0,1,4-orca.engrad-mp2.def2tzvp.frozencore

                    ********************************
                    * MULLIKEN POPULATION ANALYSIS *
                    ********************************

-----------------------
MULLIKEN ATOMIC CHARGES
-----------------------
   0 C :   -0.148198
   1 H :    0.163440
   2 H :    0.160093
   3 H :    0.151283
   4 C :   -0.091599
   5 N :   -0.235270
   6 C :   -0.194265
   7 H :    0.155092
   8 H :    0.192617
   9 H :    0.152585
  10 C :   -0.067227
  11 N :   -0.238757
  12 C :   -0.204855
  13 H :    0.193146
  14 H :    0.145528
  15 H :    0.194069
  16 C :   -0.024573
  17 N :   -0.303108
Sum of atomic charges:    0.0000000

--------------------------------
MULLIKEN REDUCED ORBITAL CHARGES
--------------------------------
  0 C s       :     3.121744  s :     3.121744
      pz      :     0.779950  p :     2.931855
      px      :     1.084164
      py      :     1.067742
      dz2     :     0.019530  d :     0.087277
      dxz     :     0.016795
      dyz     :     0.017216
      dx2y2   :     0.017081
      dxy     :     0.016655
      f0      :     0.002115  f :     0.007322
      f+1     :     0.000869
      f-1     :     0.000859
      f+2     :     0.000612
      f-2     :     0.000601
      f+3     :     0.000811
      f-3     :     0.001455
  1 H s       :     0.811143  s :     0.811143
      pz      :     0.005459  p :     0.025418
      px      :     0.010822
      py      :     0.009136
  2 H s       :     0.814831  s :     0.814831
      pz      :     0.006135  p :     0.025075
      px      :     0.004994
      py      :     0.013947
  3 H s       :     0.823344  s :     0.823344
      pz      :     0.005908  p :     0.025374
      px      :     0.013147
      py      :     0.006318
  4 C s       :     3.252767  s :     3.252767
      pz      :     0.955301  p :     2.688353
      px      :     0.871840
      py      :     0.861211
      dz2     :     0.026804  d :     0.130134
      dxz     :     0.046461
      dyz     :     0.046902
      dx2y2   :     0.004891
      dxy     :     0.005075
      f0      :     0.004560  f :     0.020345
      f+1     :     0.006986
      f-1     :     0.007060
      f+2     :     0.000594
      f-2     :     0.000631
      f+3     :     0.000256
      f-3     :     0.000258
  5 N s       :     3.725500  s :     3.725500
      pz      :     1.264401  p :     3.427783
      px      :     1.075789
      py      :     1.087592
      dz2     :     0.015482  d :     0.076318
      dxz     :     0.025305
      dyz     :     0.025358
      dx2y2   :     0.005116
      dxy     :     0.005057
      f0      :     0.001052  f :     0.005670
      f+1     :     0.001608
      f-1     :     0.001600
      f+2     :     0.000424
      f-2     :     0.000422
      f+3     :     0.000282
      f-3     :     0.000283
  6 C s       :     3.155390  s :     3.155390
      pz      :     0.779992  p :     2.944009
      px      :     1.094252
      py      :     1.069765
      dz2     :     0.020318  d :     0.087509
      dxz     :     0.017322
      dyz     :     0.016934
      dx2y2   :     0.016162
      dxy     :     0.016772
      f0      :     0.002140  f :     0.007356
      f+1     :     0.000869
      f-1     :     0.000858
      f+2     :     0.000594
      f-2     :     0.000616
      f+3     :     0.001033
      f-3     :     0.001246
  7 H s       :     0.819700  s :     0.819700
      pz      :     0.005836  p :     0.025209
      px      :     0.005258
      py      :     0.014115
  8 H s       :     0.781532  s :     0.781532
      pz      :     0.005517  p :     0.025851
      px      :     0.014797
      py      :     0.005536
  9 H s       :     0.822245  s :     0.822245
      pz      :     0.006014  p :     0.025170
      px      :     0.009698
      py      :     0.009458
 10 C s       :     3.242953  s :     3.242953
      pz      :     0.943445  p :     2.672792
      px      :     0.856799
      py      :     0.872548
      dz2     :     0.027481  d :     0.131130
      dxz     :     0.047590
      dyz     :     0.046293
      dx2y2   :     0.004956
      dxy     :     0.004811
      f0      :     0.004529  f :     0.020351
      f+1     :     0.007118
      f-1     :     0.007015
      f+2     :     0.000593
      f-2     :     0.000586
      f+3     :     0.000256
      f-3     :     0.000255
 11 N s       :     3.730683  s :     3.730683
      pz      :     1.262358  p :     3.426120
      px      :     1.088842
      py      :     1.074920
      dz2     :     0.015410  d :     0.076289
      dxz     :     0.025420
      dyz     :     0.025308
      dx2y2   :     0.005118
      dxy     :     0.005033
      f0      :     0.001046  f :     0.005665
      f+1     :     0.001601
      f-1     :     0.001613
      f+2     :     0.000420
      f-2     :     0.000419
      f+3     :     0.000284
      f-3     :     0.000282
 12 C s       :     3.168704  s :     3.168704
      pz      :     0.761989  p :     2.942433
      px      :     1.086118
      py      :     1.094326
      dz2     :     0.020433  d :     0.086356
      dxz     :     0.015536
      dyz     :     0.016920
      dx2y2   :     0.015798
      dxy     :     0.017669
      f0      :     0.002142  f :     0.007363
      f+1     :     0.000847
      f-1     :     0.000862
      f+2     :     0.000605
      f-2     :     0.000601
      f+3     :     0.000913
      f-3     :     0.001392
 13 H s       :     0.781103  s :     0.781103
      pz      :     0.005970  p :     0.025751
      px      :     0.005001
      py      :     0.014779
 14 H s       :     0.829337  s :     0.829337
      pz      :     0.005837  p :     0.025135
      px      :     0.010110
      py      :     0.009188
 15 H s       :     0.779981  s :     0.779981
      pz      :     0.005380  p :     0.025950
      px      :     0.014732
      py      :     0.005839
 16 C s       :     3.257516  s :     3.257516
      pz      :     0.936767  p :     2.612354
      px      :     0.837956
      py      :     0.837631
      dz2     :     0.026765  d :     0.134375
      dxz     :     0.048578
      dyz     :     0.048831
      dx2y2   :     0.005139
      dxy     :     0.005063
      f0      :     0.004504  f :     0.020328
      f+1     :     0.007028
      f-1     :     0.007040
      f+2     :     0.000612
      f-2     :     0.000630
      f+3     :     0.000256
      f-3     :     0.000256
 17 N s       :     3.739987  s :     3.739987
      pz      :     1.261266  p :     3.481687
      px      :     1.112294
      py      :     1.108127
      dz2     :     0.015228  d :     0.075758
      dxz     :     0.025033
      dyz     :     0.024954
      dx2y2   :     0.005315
      dxy     :     0.005229
      f0      :     0.001055  f :     0.005676
      f+1     :     0.001593
      f-1     :     0.001591
      f+2     :     0.000429
      f-2     :     0.000427
      f+3     :     0.000290
      f-3     :     0.000290


                     *******************************
                     * LOEWDIN POPULATION ANALYSIS *
                     *******************************

----------------------
LOEWDIN ATOMIC CHARGES
----------------------
   0 C :   -0.253899
   1 H :    0.150163
   2 H :    0.142140
   3 H :    0.146885
   4 C :   -0.193291
   5 N :    0.004052
   6 C :   -0.252911
   7 H :    0.146190
   8 H :    0.149988
   9 H :    0.142793
  10 C :   -0.190721
  11 N :    0.005044
  12 C :   -0.249310
  13 H :    0.152540
  14 H :    0.142724
  15 H :    0.151948
  16 C :   -0.177659
  17 N :   -0.016676

-------------------------------
LOEWDIN REDUCED ORBITAL CHARGES
-------------------------------
  0 C s       :     2.812312  s :     2.812312
      pz      :     1.013203  p :     3.120950
      px      :     1.054574
      py      :     1.053173
      dz2     :     0.083797  d :     0.289313
      dxz     :     0.064379
      dyz     :     0.066510
      dx2y2   :     0.036478
      dxy     :     0.038149
      f0      :     0.008651  f :     0.031324
      f+1     :     0.006226
      f-1     :     0.005950
      f+2     :     0.003128
      f-2     :     0.002616
      f+3     :     0.001347
      f-3     :     0.003406
  1 H s       :     0.783948  s :     0.783948
      pz      :     0.013255  p :     0.065889
      px      :     0.028612
      py      :     0.024023
  2 H s       :     0.792422  s :     0.792422
      pz      :     0.014697  p :     0.065438
      px      :     0.014308
      py      :     0.036433
  3 H s       :     0.787483  s :     0.787483
      pz      :     0.014182  p :     0.065633
      px      :     0.034491
      py      :     0.016959
  4 C s       :     2.837260  s :     2.837260
      pz      :     1.181621  p :     2.813723
      px      :     0.819207
      py      :     0.812895
      dz2     :     0.161994  d :     0.475228
      dxz     :     0.151278
      dyz     :     0.151118
      dx2y2   :     0.005280
      dxy     :     0.005558
      f0      :     0.024548  f :     0.067078
      f+1     :     0.020014
      f-1     :     0.020382
      f+2     :     0.000754
      f-2     :     0.000858
      f+3     :     0.000259
      f-3     :     0.000264
  5 N s       :     3.301370  s :     3.301370
      pz      :     1.478532  p :     3.536567
      px      :     1.027628
      py      :     1.030406
      dz2     :     0.052525  d :     0.139366
      dxz     :     0.038438
      dyz     :     0.038319
      dx2y2   :     0.005079
      dxy     :     0.005006
      f0      :     0.007299  f :     0.018645
      f+1     :     0.004955
      f-1     :     0.004914
      f+2     :     0.000458
      f-2     :     0.000453
      f+3     :     0.000283
      f-3     :     0.000283
  6 C s       :     2.811367  s :     2.811367
      pz      :     1.013365  p :     3.123095
      px      :     1.061358
      py      :     1.048372
      dz2     :     0.084069  d :     0.287173
      dxz     :     0.064492
      dyz     :     0.066436
      dx2y2   :     0.035192
      dxy     :     0.036983
      f0      :     0.008688  f :     0.031276
      f+1     :     0.006080
      f-1     :     0.006080
      f+2     :     0.002731
      f-2     :     0.002987
      f+3     :     0.002022
      f-3     :     0.002688
  7 H s       :     0.788485  s :     0.788485
      pz      :     0.014014  p :     0.065325
      px      :     0.014826
      py      :     0.036485
  8 H s       :     0.781526  s :     0.781526
      pz      :     0.013653  p :     0.068486
      px      :     0.039279
      py      :     0.015555
  9 H s       :     0.791507  s :     0.791507
      pz      :     0.014400  p :     0.065701
      px      :     0.026216
      py      :     0.025085
 10 C s       :     2.836421  s :     2.836421
      pz      :     1.181301  p :     2.811309
      px      :     0.811426
      py      :     0.818582
      dz2     :     0.161978  d :     0.475896
      dxz     :     0.153131
      dyz     :     0.150589
      dx2y2   :     0.005298
      dxy     :     0.004900
      f0      :     0.024567  f :     0.067096
      f+1     :     0.020514
      f-1     :     0.020022
      f+2     :     0.000747
      f-2     :     0.000726
      f+3     :     0.000261
      f-3     :     0.000258
 11 N s       :     3.300709  s :     3.300709
      pz      :     1.478865  p :     3.536143
      px      :     1.030610
      py      :     1.026668
      dz2     :     0.052549  d :     0.139475
      dxz     :     0.038437
      dyz     :     0.038417
      dx2y2   :     0.005109
      dxy     :     0.004963
      f0      :     0.007314  f :     0.018629
      f+1     :     0.004910
      f-1     :     0.004954
      f+2     :     0.000444
      f-2     :     0.000440
      f+3     :     0.000284
      f-3     :     0.000282
 12 C s       :     2.811486  s :     2.811486
      pz      :     1.008218  p :     3.125030
      px      :     1.058189
      py      :     1.058623
      dz2     :     0.086132  d :     0.281771
      dxz     :     0.059300
      dyz     :     0.064654
      dx2y2   :     0.032669
      dxy     :     0.039015
      f0      :     0.008895  f :     0.031023
      f+1     :     0.006137
      f-1     :     0.005699
      f+2     :     0.002823
      f-2     :     0.002738
      f+3     :     0.001636
      f-3     :     0.003096
 13 H s       :     0.779406  s :     0.779406
      pz      :     0.014614  p :     0.068054
      px      :     0.014230
      py      :     0.039210
 14 H s       :     0.791923  s :     0.791923
      pz      :     0.013906  p :     0.065354
      px      :     0.026984
      py      :     0.024464
 15 H s       :     0.779326  s :     0.779326
      pz      :     0.013235  p :     0.068726
      px      :     0.038960
      py      :     0.016531
 16 C s       :     2.839168  s :     2.839168
      pz      :     1.184970  p :     2.784849
      px      :     0.799424
      py      :     0.800454
      dz2     :     0.162009  d :     0.485873
      dxz     :     0.156019
      dyz     :     0.156518
      dx2y2   :     0.005788
      dxy     :     0.005540
      f0      :     0.024345  f :     0.067769
      f+1     :     0.020566
      f-1     :     0.020658
      f+2     :     0.000812
      f-2     :     0.000860
      f+3     :     0.000263
      f-3     :     0.000264
 17 N s       :     3.294480  s :     3.294480
      pz      :     1.478611  p :     3.566807
      px      :     1.045543
      py      :     1.042654
      dz2     :     0.052339  d :     0.136997
      dxz     :     0.037074
      dyz     :     0.037047
      dx2y2   :     0.005343
      dxy     :     0.005195
      f0      :     0.007302  f :     0.018392
      f+1     :     0.004775
      f-1     :     0.004806
      f+2     :     0.000466
      f-2     :     0.000461
      f+3     :     0.000291
      f-3     :     0.000290


                      *****************************
                      * MAYER POPULATION ANALYSIS *
                      *****************************

  NA   - Mulliken gross atomic population
  ZA   - Total nuclear charge
  QA   - Mulliken gross atomic charge
  VA   - Mayer's total valence
  BVA  - Mayer's bonded valence
  FA   - Mayer's free valence

  ATOM       NA         ZA         QA         VA         BVA        FA
  0 C      6.1482     6.0000    -0.1482     3.9170     3.6324     0.2846
  1 H      0.8366     1.0000     0.1634     0.9759     0.9286     0.0474
  2 H      0.8399     1.0000     0.1601     0.9638     0.9162     0.0476
  3 H      0.8487     1.0000     0.1513     0.9779     0.9297     0.0482
  4 C      6.0916     6.0000    -0.0916     4.0044     3.5678     0.4366
  5 N      7.2353     7.0000    -0.2353     3.1987     2.7068     0.4919
  6 C      6.1943     6.0000    -0.1943     3.9072     3.6224     0.2848
  7 H      0.8449     1.0000     0.1551     0.9718     0.9240     0.0478
  8 H      0.8074     1.0000     0.1926     0.9676     0.9200     0.0477
  9 H      0.8474     1.0000     0.1526     0.9692     0.9211     0.0481
 10 C      6.0672     6.0000    -0.0672     3.9649     3.5288     0.4361
 11 N      7.2388     7.0000    -0.2388     3.1915     2.6992     0.4923
 12 C      6.2049     6.0000    -0.2049     3.8779     3.5926     0.2853
 13 H      0.8069     1.0000     0.1931     0.9702     0.9228     0.0475
 14 H      0.8545     1.0000     0.1455     0.9702     0.9214     0.0487
 15 H      0.8059     1.0000     0.1941     0.9682     0.9207     0.0476
 16 C      6.0246     6.0000    -0.0246     3.9294     3.4963     0.4331
 17 N      7.3031     7.0000    -0.3031     3.1663     2.6688     0.4976

  Mayer bond orders larger than 0.100000
B(  0-C ,  1-H ) :   0.9222 B(  0-C ,  2-H ) :   0.9209 B(  0-C ,  3-H ) :   0.9242 
B(  0-C ,  4-C ) :   0.8863 B(  4-C ,  5-N ) :   2.6796 B(  6-C ,  7-H ) :   0.9234 
B(  6-C ,  8-H ) :   0.9162 B(  6-C ,  9-H ) :   0.9276 B(  6-C , 10-C ) :   0.8711 
B( 10-C , 11-N ) :   2.6721 B( 12-C , 13-H ) :   0.9139 B( 12-C , 14-H ) :   0.9241 
B( 12-C , 15-H ) :   0.9132 B( 12-C , 16-C ) :   0.8643 B( 16-C , 17-N ) :   2.6351 



                *******************************************
                * RELAXED MP2 DENSITY POPULATION ANALYSIS *
                *******************************************

------------------------------------------------------------------------------
                           ORCA POPULATION ANALYSIS
------------------------------------------------------------------------------
Input electron density              ... 12mecn.remya.etal.2.mol0,1,4-orca.engrad-mp2.def2tzvp.frozencore.pmp2re
BaseName (.gbw .S,...)              ... 12mecn.remya.etal.2.mol0,1,4-orca.engrad-mp2.def2tzvp.frozencore

                    ********************************
                    * MULLIKEN POPULATION ANALYSIS *
                    ********************************

-----------------------
MULLIKEN ATOMIC CHARGES
-----------------------
   0 C :   -0.255170
   1 H :    0.177213
   2 H :    0.172961
   3 H :    0.166655
   4 C :   -0.122936
   5 N :   -0.138283
   6 C :   -0.288834
   7 H :    0.169338
   8 H :    0.198054
   9 H :    0.167123
  10 C :   -0.101374
  11 N :   -0.144259
  12 C :   -0.291321
  13 H :    0.199905
  14 H :    0.160397
  15 H :    0.200202
  16 C :   -0.069985
  17 N :   -0.199686
Sum of atomic charges:    0.0000000

--------------------------------
MULLIKEN REDUCED ORBITAL CHARGES
--------------------------------
  0 C s       :     3.164226  s :     3.164226
      pz      :     0.826909  p :     3.007120
      px      :     1.096887
      py      :     1.083323
      dz2     :     0.015445  d :     0.076763
      dxz     :     0.016911
      dyz     :     0.017284
      dx2y2   :     0.013671
      dxy     :     0.013451
      f0      :     0.001874  f :     0.007062
      f+1     :     0.000926
      f-1     :     0.000923
      f+2     :     0.000599
      f-2     :     0.000594
      f+3     :     0.000787
      f-3     :     0.001360
  1 H s       :     0.798584  s :     0.798584
      pz      :     0.005549  p :     0.024203
      px      :     0.010034
      py      :     0.008620
  2 H s       :     0.803052  s :     0.803052
      pz      :     0.006118  p :     0.023986
      px      :     0.005189
      py      :     0.012680
  3 H s       :     0.809145  s :     0.809145
      pz      :     0.005933  p :     0.024201
      px      :     0.011996
      py      :     0.006272
  4 C s       :     3.229255  s :     3.229255
      pz      :     0.980511  p :     2.769634
      px      :     0.895426
      py      :     0.893697
      dz2     :     0.022438  d :     0.105079
      dxz     :     0.036336
      dyz     :     0.036420
      dx2y2   :     0.004864
      dxy     :     0.005021
      f0      :     0.004390  f :     0.018967
      f+1     :     0.006408
      f-1     :     0.006444
      f+2     :     0.000590
      f-2     :     0.000622
      f+3     :     0.000256
      f-3     :     0.000258
  5 N s       :     3.673630  s :     3.673630
      pz      :     1.252631  p :     3.391994
      px      :     1.068900
      py      :     1.070462
      dz2     :     0.014398  d :     0.067458
      dxz     :     0.021379
      dyz     :     0.021509
      dx2y2   :     0.005121
      dxy     :     0.005050
      f0      :     0.000930  f :     0.005202
      f+1     :     0.001434
      f-1     :     0.001428
[...]
      f+1     :     0.006503
      f-1     :     0.006437
      f+2     :     0.000588
      f-2     :     0.000582
      f+3     :     0.000256
      f-3     :     0.000255
 11 N s       :     3.681327  s :     3.681327
      pz      :     1.249695  p :     3.390309
      px      :     1.072298
      py      :     1.068316
      dz2     :     0.014333  d :     0.067427
      dxz     :     0.021558
      dyz     :     0.021370
      dx2y2   :     0.005135
      dxy     :     0.005031
      f0      :     0.000924  f :     0.005195
      f+1     :     0.001428
      f-1     :     0.001438
      f+2     :     0.000420
      f-2     :     0.000419
      f+3     :     0.000284
      f-3     :     0.000282
 12 C s       :     3.200302  s :     3.200302
      pz      :     0.808178  p :     3.008543
      px      :     1.096250
      py      :     1.104115
      dz2     :     0.016086  d :     0.075408
      dxz     :     0.015757
      dyz     :     0.016779
      dx2y2   :     0.012731
      dxy     :     0.014056
      f0      :     0.001888  f :     0.007067
      f+1     :     0.000901
      f-1     :     0.000916
      f+2     :     0.000593
      f-2     :     0.000593
      f+3     :     0.000877
      f-3     :     0.001299
 13 H s       :     0.775481  s :     0.775481
      pz      :     0.005991  p :     0.024614
      px      :     0.005186
      py      :     0.013437
 14 H s       :     0.815511  s :     0.815511
      pz      :     0.005879  p :     0.024092
      px      :     0.009502
      py      :     0.008711
 15 H s       :     0.774981  s :     0.774981
      pz      :     0.005515  p :     0.024817
      px      :     0.013410
      py      :     0.005892
 16 C s       :     3.238819  s :     3.238819
      pz      :     0.953690  p :     2.702505
      px      :     0.874556
      py      :     0.874259
      dz2     :     0.023137  d :     0.109706
      dxz     :     0.038076
      dyz     :     0.038352
      dx2y2   :     0.005131
      dxy     :     0.005010
      f0      :     0.004357  f :     0.018954
      f+1     :     0.006420
      f-1     :     0.006438
      f+2     :     0.000606
      f-2     :     0.000622
      f+3     :     0.000256
      f-3     :     0.000256
 17 N s       :     3.696150  s :     3.696150
      pz      :     1.249235  p :     3.431176
      px      :     1.092934
      py      :     1.089007
      dz2     :     0.014106  d :     0.067147
      dxz     :     0.021299
      dyz     :     0.021176
      dx2y2   :     0.005338
      dxy     :     0.005228
      f0      :     0.000929  f :     0.005212
      f+1     :     0.001426
      f-1     :     0.001422
      f+2     :     0.000429
      f-2     :     0.000427
      f+3     :     0.000290
      f-3     :     0.000290


                     *******************************
                     * LOEWDIN POPULATION ANALYSIS *
                     *******************************

----------------------
LOEWDIN ATOMIC CHARGES
----------------------
   0 C :   -0.285132
   1 H :    0.156440
   2 H :    0.149050
   3 H :    0.153480
   4 C :   -0.211722
   5 N :    0.034389
   6 C :   -0.283619
   7 H :    0.153319
   8 H :    0.154554
   9 H :    0.150011
  10 C :   -0.208941
  11 N :    0.035129
  12 C :   -0.280015
  13 H :    0.157543
  14 H :    0.150313
  15 H :    0.156771
  16 C :   -0.200557
  17 N :    0.018990

-------------------------------
LOEWDIN REDUCED ORBITAL CHARGES
-------------------------------
  0 C s       :     2.817494  s :     2.817494
      pz      :     1.031613  p :     3.157552
      px      :     1.063142
      py      :     1.062798
      dz2     :     0.076029  d :     0.278557
      dxz     :     0.065922
      dyz     :     0.068569
      dx2y2   :     0.033124
      dxy     :     0.034913
      f0      :     0.008108  f :     0.031529
      f+1     :     0.006638
      f-1     :     0.006430
      f+2     :     0.003114
      f-2     :     0.002601
      f+3     :     0.001324
      f-3     :     0.003314
  1 H s       :     0.777438  s :     0.777438
      pz      :     0.013830  p :     0.066123
      px      :     0.028347
      py      :     0.023946
  2 H s       :     0.785111  s :     0.785111
      pz      :     0.015168  p :     0.065839
      px      :     0.014756
      py      :     0.035916
  3 H s       :     0.780574  s :     0.780574
      pz      :     0.014709  p :     0.065946
      px      :     0.033971
      py      :     0.017266
  4 C s       :     2.841766  s :     2.841766
      pz      :     1.171023  p :     2.845380
      px      :     0.837075
      py      :     0.837281
      dz2     :     0.164102  d :     0.457778
      dxz     :     0.142120
      dyz     :     0.140912
      dx2y2   :     0.005188
      dxy     :     0.005455
      f0      :     0.025592  f :     0.066799
      f+1     :     0.019496
      f-1     :     0.019611
      f+2     :     0.000749
      f-2     :     0.000830
      f+3     :     0.000259
      f-3     :     0.000263
  5 N s       :     3.301953  s :     3.301953
      pz      :     1.466124  p :     3.508829
      px      :     1.023040
      py      :     1.019665
      dz2     :     0.053087  d :     0.135766
      dxz     :     0.036129
      dyz     :     0.036464
      dx2y2   :     0.005085
      dxy     :     0.005001
      f0      :     0.007385  f :     0.019062
      f+1     :     0.005091
      f-1     :     0.005107
      f+2     :     0.000459
      f-2     :     0.000454
      f+3     :     0.000283
      f-3     :     0.000283
  6 C s       :     2.816423  s :     2.816423
      pz      :     1.031905  p :     3.159176
      px      :     1.069486
      py      :     1.057784
      dz2     :     0.076174  d :     0.276526
      dxz     :     0.066675
      dyz     :     0.067893
      dx2y2   :     0.032166
      dxy     :     0.033617
      f0      :     0.008135  f :     0.031495
      f+1     :     0.006573
      f-1     :     0.006494
      f+2     :     0.002717
      f-2     :     0.002969
      f+3     :     0.001981
      f-3     :     0.002626
  7 H s       :     0.780970  s :     0.780970
      pz      :     0.014538  p :     0.065711
      px      :     0.015276
      py      :     0.035897
  8 H s       :     0.776923  s :     0.776923
      pz      :     0.014205  p :     0.068523
      px      :     0.038384
      py      :     0.015934
  9 H s       :     0.783855  s :     0.783855
      pz      :     0.014905  p :     0.066134
      px      :     0.026202
      py      :     0.025027
 10 C s       :     2.840900  s :     2.840900
      pz      :     1.170498  p :     2.842717
      px      :     0.836028
      py      :     0.836191
      dz2     :     0.164178  d :     0.458516
      dxz     :     0.142857
      dyz     :     0.141438
      dx2y2   :     0.005208
      dxy     :     0.004836
      f0      :     0.025631  f :     0.066807
      f+1     :     0.019696
      f-1     :     0.019517
      f+2     :     0.000732
      f-2     :     0.000713
      f+3     :     0.000260
      f-3     :     0.000258
 11 N s       :     3.301267  s :     3.301267
      pz      :     1.466321  p :     3.508700
      px      :     1.020126
      py      :     1.022253
      dz2     :     0.053127  d :     0.135856
      dxz     :     0.036572
      dyz     :     0.036073
      dx2y2   :     0.005122
      dxy     :     0.004962
      f0      :     0.007401  f :     0.019048
      f+1     :     0.005108
      f-1     :     0.005088
      f+2     :     0.000444
      f-2     :     0.000440
      f+3     :     0.000285
      f-3     :     0.000282
 12 C s       :     2.816667  s :     2.816667
      pz      :     1.027588  p :     3.160597
      px      :     1.066417
      py      :     1.066592
      dz2     :     0.077879  d :     0.271500
      dxz     :     0.061613
      dyz     :     0.066611
      dx2y2   :     0.029951
      dxy     :     0.035446
      f0      :     0.008292  f :     0.031250
      f+1     :     0.006616
      f-1     :     0.006164
      f+2     :     0.002820
      f-2     :     0.002727
      f+3     :     0.001607
      f-3     :     0.003024
 13 H s       :     0.774308  s :     0.774308
      pz      :     0.015084  p :     0.068149
      px      :     0.014702
      py      :     0.038364
 14 H s       :     0.783814  s :     0.783814
      pz      :     0.014444  p :     0.065874
      px      :     0.026945
      py      :     0.024486
 15 H s       :     0.774419  s :     0.774419
      pz      :     0.013807  p :     0.068810
      px      :     0.038118
      py      :     0.016884
 16 C s       :     2.842514  s :     2.842514
      pz      :     1.172195  p :     2.823922
      px      :     0.825544
      py      :     0.826183
      dz2     :     0.164146  d :     0.467020
      dxz     :     0.145659
      dyz     :     0.146107
      dx2y2   :     0.005681
      dxy     :     0.005426
      f0      :     0.025456  f :     0.067102
      f+1     :     0.019695
      f-1     :     0.019792
      f+2     :     0.000801
      f-2     :     0.000833
      f+3     :     0.000262
      f-3     :     0.000263
 17 N s       :     3.295572  s :     3.295572
      pz      :     1.466965  p :     3.532387
      px      :     1.033978
      py      :     1.031444
      dz2     :     0.052786  d :     0.134172
      dxz     :     0.035449
      dyz     :     0.035385
      dx2y2   :     0.005357
      dxy     :     0.005195
      f0      :     0.007376  f :     0.018878
      f+1     :     0.004983
      f-1     :     0.005008
      f+2     :     0.000468
      f-2     :     0.000462
      f+3     :     0.000291
      f-3     :     0.000290


                      *****************************
                      * MAYER POPULATION ANALYSIS *
                      *****************************

  NA   - Mulliken gross atomic population
  ZA   - Total nuclear charge
  QA   - Mulliken gross atomic charge
  VA   - Mayer's total valence
  BVA  - Mayer's bonded valence
  FA   - Mayer's free valence

  ATOM       NA         ZA         QA         VA         BVA        FA
  0 C      6.2552     6.0000    -0.2552     3.9318     3.6482     0.2836
  1 H      0.8228     1.0000     0.1772     0.9697     0.9229     0.0467
  2 H      0.8270     1.0000     0.1730     0.9584     0.9114     0.0470
  3 H      0.8333     1.0000     0.1667     0.9715     0.9239     0.0475
  4 C      6.1229     6.0000    -0.1229     4.1122     3.6865     0.4257
  5 N      7.1383     7.0000    -0.1383     3.3104     2.8314     0.4790
  6 C      6.2888     6.0000    -0.2888     3.9118     3.6283     0.2834
  7 H      0.8307     1.0000     0.1693     0.9656     0.9184     0.0472
  8 H      0.8019     1.0000     0.1981     0.9711     0.9241     0.0471
  9 H      0.8329     1.0000     0.1671     0.9630     0.9156     0.0474
 10 C      6.1014     6.0000    -0.1014     4.0792     3.6539     0.4253
 11 N      7.1443     7.0000    -0.1443     3.3015     2.8221     0.4794
 12 C      6.2913     6.0000    -0.2913     3.8841     3.6003     0.2838
 13 H      0.8001     1.0000     0.1999     0.9722     0.9254     0.0468
 14 H      0.8396     1.0000     0.1604     0.9642     0.9162     0.0481
 15 H      0.7998     1.0000     0.2002     0.9711     0.9242     0.0469
 16 C      6.0700     6.0000    -0.0700     4.0399     3.6174     0.4225
 17 N      7.1997     7.0000    -0.1997     3.2754     2.7914     0.4841

  Mayer bond orders larger than 0.100000
B(  0-C ,  1-H ) :   0.9132 B(  0-C ,  2-H ) :   0.9112 B(  0-C ,  3-H ) :   0.9152 
B(  0-C ,  4-C ) :   0.9114 B(  4-C ,  5-N ) :   2.7795 B(  6-C ,  7-H ) :   0.9142 
B(  6-C ,  8-H ) :   0.9049 B(  6-C ,  9-H ) :   0.9176 B(  6-C , 10-C ) :   0.8995 
B( 10-C , 11-N ) :   2.7683 B( 12-C , 13-H ) :   0.9028 B( 12-C , 14-H ) :   0.9141 
B( 12-C , 15-H ) :   0.9018 B( 12-C , 16-C ) :   0.8961 B( 16-C , 17-N ) :   2.7260 



----------------------------------
MP2 DERIVATIVE INTEGRAL GENERATION
----------------------------------


Input Wavefunction Amplitudes       ... 12mecn.remya.etal.2.mol0,1,4-orca.engrad-mp2.def2tzvp.frozencore.mp2tsaa.tmp
Input Correlated Electron Density   ... 12mecn.remya.etal.2.mol0,1,4-orca.engrad-mp2.def2tzvp.frozencore.pmp2re
Input Energy Weighted Density       ... 12mecn.remya.etal.2.mol0,1,4-orca.engrad-mp2.def2tzvp.frozencore.wmp2.tmp
Input SCF Electron Density          ... 12mecn.remya.etal.2.mol0,1,4-orca.engrad-mp2.def2tzvp.frozencore.scfp

One-Electron Terms    ...
                        ... One-Electron Terms done
Prescreening matrices              ... done

Batch handling in the gradient evaluation:
Memory available                      ... 8000.0 MB
Memory per occupied orbital in Q2     ...   20.3 MB
Memory per occupied orbital in Q3     ...    0.1 MB
Total memory requirement per |i>      ...   20.4 MB
Max. Number of orbitals possible      ...    391
Number of orbitals treated per batch  ...     24
Number of batches to be done          ...      1
Batch   0: i=    9 ...    32

---------------------------------------
MP2 TOTAL ENERGY:     -397.467195021 Eh
---------------------------------------

The final MP2 gradient
  0:  -0.00030879   0.00000054  -0.00744480
  1:   0.00369965   0.00073570  -0.00078941
  2:   0.00030597  -0.00147056   0.00081645
  3:  -0.00380836  -0.00029102  -0.00069391
  4:  -0.00002650   0.00088062   0.00405074
  5:   0.00002318  -0.00016659   0.00415634
  6:  -0.00107083   0.00140591  -0.00790644
  7:  -0.00104218   0.00376676  -0.00105810
  8:   0.00098495  -0.00328903   0.00046067
  9:   0.00091069  -0.00246313   0.00048670
 10:   0.00077379   0.00026192   0.00370206
 11:  -0.00023137  -0.00004686   0.00381004
 12:  -0.00025851  -0.00237433   0.00778169
 13:   0.00045460  -0.00231649  -0.00090917
 14:   0.00103914   0.00225419   0.00027154
 15:  -0.00187652   0.00190391  -0.00026979
 16:   0.00010301   0.00056262  -0.00137362
 17:   0.00032806   0.00064584  -0.00509100

-----------------------------------
NORM OF THE MP2 GRADIENT:  0.019176
-----------------------------------

-------------------------   --------------------
FINAL SINGLE POINT ENERGY      -397.467195020703
-------------------------   --------------------


                            ***************************************
                            *     ORCA property calculations      *
                            ***************************************

                                    ---------------------
                                    Active property flags
                                    ---------------------
   (+) Dipole Moment


------------------------------------------------------------------------------
                       ORCA ELECTRIC PROPERTIES CALCULATION
------------------------------------------------------------------------------

Dipole Moment Calculation                       ... on
Quadrupole Moment Calculation                   ... off
Polarizability Calculation                      ... off
GBWName                                         ... 12mecn.remya.etal.2.mol0,1,4-orca.engrad-mp2.def2tzvp.frozencore.gbw
Electron density file                           ... 12mecn.remya.etal.2.mol0,1,4-orca.engrad-mp2.def2tzvp.frozencore.scfp
The origin for moment calculation is the CENTER OF MASS  = (-4.474407, -3.117934  0.346146)

-------------
DIPOLE MOMENT
-------------
                                X             Y             Z
Electronic contribution:     -0.06071      -0.19506      -3.05572
Nuclear contribution   :      0.09667       0.28868       4.65306
                        -----------------------------------------
Total Dipole Moment    :      0.03597       0.09362       1.59734
                        -----------------------------------------
Magnitude (a.u.)       :      1.60049
Magnitude (Debye)      :      4.06812



--------------------
Rotational spectrum 
--------------------
 
Rotational constants in cm-1:     0.060421     0.025043     0.021706 
Rotational constants in MHz :  1811.376175   750.772389   650.717445 

 Dipole components along the rotational axes: 
x,y,z [a.u.] :    -0.046509    -1.427301     0.722642 
x,y,z [Debye]:    -0.118216    -3.627910     1.836810 

 

                         *** MP2 UNRELAXED DENSITY ***

------------------------------------------------------------------------------
                       ORCA ELECTRIC PROPERTIES CALCULATION
------------------------------------------------------------------------------

Dipole Moment Calculation                       ... on
Quadrupole Moment Calculation                   ... off
Polarizability Calculation                      ... off
GBWName                                         ... 12mecn.remya.etal.2.mol0,1,4-orca.engrad-mp2.def2tzvp.frozencore.gbw
Electron density file                           ... 12mecn.remya.etal.2.mol0,1,4-orca.engrad-mp2.def2tzvp.frozencore.pmp2ur
The origin for moment calculation is the CENTER OF MASS  = (-4.474407, -3.117934  0.346146)

-------------
DIPOLE MOMENT
-------------
                                X             Y             Z
Electronic contribution:     -0.06161      -0.19669      -3.09160
Nuclear contribution   :      0.09667       0.28868       4.65306
                        -----------------------------------------
Total Dipole Moment    :      0.03507       0.09199       1.56146
                        -----------------------------------------
Magnitude (a.u.)       :      1.56456
Magnitude (Debye)      :      3.97679



--------------------
Rotational spectrum 
--------------------
 
Rotational constants in cm-1:     0.060421     0.025043     0.021706 
Rotational constants in MHz :  1811.376175   750.772389   650.717445 

 Dipole components along the rotational axes: 
x,y,z [a.u.] :    -0.045859    -1.395126     0.706656 
x,y,z [Debye]:    -0.116564    -3.546129     1.796178 

 

                           *** MP2 RELAXED DENSITY ***

------------------------------------------------------------------------------
                       ORCA ELECTRIC PROPERTIES CALCULATION
------------------------------------------------------------------------------

Dipole Moment Calculation                       ... on
Quadrupole Moment Calculation                   ... off
Polarizability Calculation                      ... off
GBWName                                         ... 12mecn.remya.etal.2.mol0,1,4-orca.engrad-mp2.def2tzvp.frozencore.gbw
Electron density file                           ... 12mecn.remya.etal.2.mol0,1,4-orca.engrad-mp2.def2tzvp.frozencore.pmp2re
The origin for moment calculation is the CENTER OF MASS  = (-4.474407, -3.117934  0.346146)

-------------
DIPOLE MOMENT
-------------
                                X             Y             Z
Electronic contribution:     -0.06461      -0.20305      -3.18780
Nuclear contribution   :      0.09667       0.28868       4.65306
                        -----------------------------------------
Total Dipole Moment    :      0.03207       0.08563       1.46526
                        -----------------------------------------
Magnitude (a.u.)       :      1.46811
Magnitude (Debye)      :      3.73165



--------------------
Rotational spectrum 
--------------------
 
Rotational constants in cm-1:     0.060421     0.025043     0.021706 
Rotational constants in MHz :  1811.376175   750.772389   650.717445 

 Dipole components along the rotational axes: 
x,y,z [a.u.] :    -0.043153    -1.309611     0.662130 
x,y,z [Debye]:    -0.109687    -3.328767     1.683001 

 

Timings for individual modules:

Sum of individual times         ...      255.803 sec (=   4.263 min)
GTO integral calculation        ...        1.011 sec (=   0.017 min)   0.4 %
SCF iterations                  ...       52.323 sec (=   0.872 min)  20.5 %
MP2 module                      ...      202.469 sec (=   3.374 min)  79.2 %
                             ****ORCA TERMINATED NORMALLY****
TOTAL RUN TIME: 0 days 0 hours 4 minutes 16 seconds 896 msec
