
                                 *****************
                                 * O   R   C   A *
                                 *****************

           --- An Ab Initio, DFT and Semiempirical electronic structure package ---

                  #######################################################
                  #                        -***-                        #
                  #          Department of theory and spectroscopy      #
                  #               Directorship: Frank Neese             #
                  #        Max Planck Institute fuer Kohlenforschung    #
                  #                Kaiser Wilhelm Platz 1               #
                  #                 D-45470 Muelheim/Ruhr               #
                  #                      Germany                        #
                  #                                                     #
                  #                  All rights reserved                #
                  #                        -***-                        #
                  #######################################################


                         Program Version 4.2.0 -  RELEASE  -


 With contributions from (in alphabetic order):
   Daniel Aravena         : Magnetic Suceptibility
   Michael Atanasov       : Ab Initio Ligand Field Theory (pilot matlab implementation)
   Alexander A. Auer      : GIAO ZORA, VPT2
   Ute Becker             : Parallelization
   Giovanni Bistoni       : ED, misc. LED, open-shell LED, HFLED
   Martin Brehm           : Molecular dynamics
   Dmytro Bykov           : SCF Hessian
   Vijay G. Chilkuri      : MRCI spin determinant printing, contributions to CSF-ICE
   Dipayan Datta          : RHF DLPNO-CCSD density
   Achintya Kumar Dutta   : EOM-CC, STEOM-CC
   Dmitry Ganyushin       : Spin-Orbit,Spin-Spin,Magnetic field MRCI
   Miquel Garcia          : C-PCM Hessian, Gaussian charge scheme
   Yang Guo               : DLPNO-NEVPT2, CIM, IAO-localization
   Andreas Hansen         : Spin unrestricted coupled pair/coupled cluster methods
   Benjamin Helmich-Paris : CASSCF linear response (MC-RPA)
   Lee Huntington         : MR-EOM, pCC
   Robert Izsak           : Overlap fitted RIJCOSX, COSX-SCS-MP3, EOM
   Christian Kollmar      : KDIIS, OOCD, Brueckner-CCSD(T), CCSD density
   Simone Kossmann        : Meta GGA functionals, TD-DFT gradient, OOMP2, MP2 Hessian
   Martin Krupicka        : AUTO-CI
   Lucas Lang             : DCDCAS
   Dagmar Lenk            : GEPOL surface, SMD
   Dimitrios Liakos       : Extrapolation schemes; Compound Job, initial MDCI parallelization
   Dimitrios Manganas     : Further ROCIS development; embedding schemes
   Dimitrios Pantazis     : SARC Basis sets
   Taras Petrenko         : DFT Hessian,TD-DFT gradient, ASA, ECA, R-Raman, ABS, FL, XAS/XES, NRVS
   Peter Pinski           : DLPNO-MP2, DLPNO-MP2 Gradient
   Christoph Reimann      : Effective Core Potentials
   Marius Retegan         : Local ZFS, SOC
   Christoph Riplinger    : Optimizer, TS searches, QM/MM, DLPNO-CCSD(T), (RO)-DLPNO pert. Triples
   Tobias Risthaus        : Range-separated hybrids, TD-DFT gradient, RPA, STAB
   Michael Roemelt        : Original ROCIS implementation
   Masaaki Saitow         : Open-shell DLPNO-CCSD energy and density
   Barbara Sandhoefer     : DKH picture change effects
   Avijit Sen             : IP-ROCIS
   Kantharuban Sivalingam : CASSCF convergence, NEVPT2, FIC-MRCI
   Bernardo de Souza      : ESD, SOC TD-DFT
   Georgi Stoychev        : AutoAux, RI-MP2 NMR
   Willem Van den Heuvel  : Paramagnetic NMR
   Boris Wezisla          : Elementary symmetry handling
   Frank Wennmohs         : Technical directorship


 We gratefully acknowledge several colleagues who have allowed us to
 interface, adapt or use parts of their codes:
   Stefan Grimme, W. Hujo, H. Kruse,             : VdW corrections, initial TS optimization,
                  C. Bannwarth                     DFT functionals, gCP, sTDA/sTD-DF
   Ed Valeev, F. Pavosevic, A. Kumar             : LibInt (2-el integral package), F12 methods
   Garnet Chan, S. Sharma, J. Yang, R. Olivares  : DMRG
   Ulf Ekstrom                                   : XCFun DFT Library
   Mihaly Kallay                                 : mrcc  (arbitrary order and MRCC methods)
   Andreas Klamt, Michael Diedenhofen            : otool_cosmo (COSMO solvation model)
   Jiri Pittner, Ondrej Demel                    : Mk-CCSD
   Frank Weinhold                                : gennbo (NPA and NBO analysis)
   Christopher J. Cramer and Donald G. Truhlar   : smd solvation model
   Lars Goerigk                                  : TD-DFT with DH, B97 family of functionals
   V. Asgeirsson, H. Jonsson                     : NEB implementation
   FAccTs GmbH                                   : IRC, NEB, NEB-TS, Multilevel, MM, QM/MM, CI optimization
   S Lehtola, MJT Oliveira, MAL Marques          : LibXC Library


 Your calculation uses the libint2 library for the computation of 2-el integrals
 For citations please refer to: http://libint.valeyev.net

 Your ORCA version has been built with support for libXC version: 4.2.3
 For citations please refer to: https://tddft.org/programs/libxc/

 This ORCA versions uses:
   CBLAS   interface :  Fast vector & matrix operations
   LAPACKE interface :  Fast linear algebra routines
   SCALAPACK package :  Parallel linear algebra routines


----- Orbital basis set information -----
Your calculation utilizes the basis: def2-TZVP
   F. Weigend and R. Ahlrichs, Phys. Chem. Chem. Phys. 7, 3297 (2005).

================================================================================
                                        WARNINGS
                       Please study these warnings very carefully!
================================================================================


WARNING: The frozen-core approximation for MP2-gradient calculations is turned on by default.

INFO   : the flag for use of LIBINT has been found!

================================================================================
                                       INPUT FILE
================================================================================
NAME = 12h2o.su.etal.mol0,4,6,8,9,10-orca.engrad-mp2.def2tzvp.frozencore.inp
|  1> # 12h2o.su.etal.mol0,4,6,8,9,10
|  2> ! MP2 def2-TZVP EnGrad TightSCF
|  3> 
|  4> %pal
|  5>     nprocs 6
|  6> end
|  7> 
|  8> %maxcore 8000
|  9> 
| 10> %scf
| 11>     ConvForced true
| 12> end
| 13> 
| 14> *xyz 0 1
| 15> O   1.794470000   0.923410000   2.768350000
| 16> H   2.338250000   1.359750000   3.430940000
| 17> H   0.879480000   1.303000000   2.865760000
| 18> O  -0.885520000   1.737840000   0.052730000
| 19> H  -1.032320000   2.090180000  -0.841890000
| 20> H  -1.284090000   0.839590000   0.017130000
| 21> O   1.737840000   0.885520000  -0.052730000
| 22> H   2.090180000   1.032320000   0.841890000
| 23> H   0.839590000   1.284090000  -0.017130000
| 24> O   1.752130000   0.741530000  -2.896280000
| 25> H   2.036450000   0.920500000  -1.984040000
| 26> H   0.921210000   1.242140000  -2.984230000
| 27> O   0.741530000  -1.752130000   2.896280000
| 28> H   0.920500000  -2.036450000   1.984040000
| 29> H   1.242140000  -0.921210000   2.984230000
| 30> O  -0.923410000   1.794470000  -2.768350000
| 31> H  -1.359750000   2.338250000  -3.430940000
| 32> H  -1.303000000   0.879480000  -2.865760000
| 33> *
| 34> 
| 35>                          ****END OF INPUT****
================================================================================

                     *******************************
                     * Energy+Gradient Calculation *
                     *******************************

---------------------------------
CARTESIAN COORDINATES (ANGSTROEM)
---------------------------------
  O      1.794470    0.923410    2.768350
  H      2.338250    1.359750    3.430940
  H      0.879480    1.303000    2.865760
  O     -0.885520    1.737840    0.052730
  H     -1.032320    2.090180   -0.841890
  H     -1.284090    0.839590    0.017130
  O      1.737840    0.885520   -0.052730
  H      2.090180    1.032320    0.841890
  H      0.839590    1.284090   -0.017130
  O      1.752130    0.741530   -2.896280
  H      2.036450    0.920500   -1.984040
  H      0.921210    1.242140   -2.984230
  O      0.741530   -1.752130    2.896280
  H      0.920500   -2.036450    1.984040
  H      1.242140   -0.921210    2.984230
  O     -0.923410    1.794470   -2.768350
  H     -1.359750    2.338250   -3.430940
  H     -1.303000    0.879480   -2.865760

----------------------------
CARTESIAN COORDINATES (A.U.)
----------------------------
  NO LB      ZA    FRAG     MASS         X           Y           Z
   0 O     8.0000    0    15.999    3.391057    1.744992    5.231423
   1 H     1.0000    0     1.008    4.418652    2.569555    6.483537
   2 H     1.0000    0     1.008    1.661976    2.462313    5.415502
   3 O     8.0000    0    15.999   -1.673390    3.284042    0.099645
   4 H     1.0000    0     1.008   -1.950802    3.949868   -1.590942
   5 H     1.0000    0     1.008   -2.426578    1.586595    0.032371
   6 O     8.0000    0    15.999    3.284042    1.673390   -0.099645
   7 H     1.0000    0     1.008    3.949868    1.950802    1.590942
   8 H     1.0000    0     1.008    1.586595    2.426578   -0.032371
   9 O     8.0000    0    15.999    3.311046    1.401289   -5.473176
  10 H     1.0000    0     1.008    3.848333    1.739493   -3.749292
  11 H     1.0000    0     1.008    1.740835    2.347304   -5.639377
  12 O     8.0000    0    15.999    1.401289   -3.311046    5.473176
  13 H     1.0000    0     1.008    1.739493   -3.848333    3.749292
  14 H     1.0000    0     1.008    2.347304   -1.740835    5.639377
  15 O     8.0000    0    15.999   -1.744992    3.391057   -5.231423
  16 H     1.0000    0     1.008   -2.569555    4.418652   -6.483537
  17 H     1.0000    0     1.008   -2.462313    1.661976   -5.415502

--------------------------------
INTERNAL COORDINATES (ANGSTROEM)
--------------------------------
 O      0   0   0     0.000000000000     0.00000000     0.00000000
 H      1   0   0     0.961828878803     0.00000000     0.00000000
 H      1   2   0     0.995381322057   106.21731035     0.00000000
 O      3   1   2     3.349245975813   116.85538783   143.82107740
 H      4   3   1     0.972645187106   154.03893681   304.15813038
 H      4   3   1     0.983350632989    97.20424340    87.67157074
 O      4   3   1     2.760360281485    59.41411630   355.12427997
 H      7   4   3     0.972645187106   105.22009255   347.26752702
 H      7   4   3     0.983350632989     5.92595386   271.62167973
 O      7   4   3     2.847229166523    93.35605850   179.94795427
 H     10   7   4     0.972136791249    19.08819947   137.47046308
 H     10   7   4     0.974050112161    93.43428486    13.37418319
 O      1   2   3     2.878117964938   126.72240291   256.40918860
 H     13   1   2     0.972136791249    99.37069922   223.07499144
 H     13   1   2     0.974050112161    12.30570018   335.59052045
 O     12  10   7     1.937600461318   161.54375213   306.34627465
 H     16  12  10     0.961828878803   121.08403650   202.75419110
 H     16  12  10     0.995381322057    95.17003195   315.21089530

---------------------------
INTERNAL COORDINATES (A.U.)
---------------------------
 O      0   0   0     0.000000000000     0.00000000     0.00000000
 H      1   0   0     1.817593168635     0.00000000     0.00000000
 H      1   2   0     1.880998097508   106.21731035     0.00000000
 O      3   1   2     6.329157649425   116.85538783   143.82107740
 H      4   3   1     1.838033029106   154.03893681   304.15813038
 H      4   3   1     1.858263389967    97.20424340    87.67157074
 O      4   3   1     5.216324962960    59.41411630   355.12427997
 H      7   4   3     1.838033029106   105.22009255   347.26752702
 H      7   4   3     1.858263389967     5.92595386   271.62167973
 O      7   4   3     5.380483365242    93.35605850   179.94795427
 H     10   7   4     1.837072300170    19.08819947   137.47046308
 H     10   7   4     1.840687952699    93.43428486    13.37418319
 O      1   2   3     5.438854734852   126.72240291   256.40918860
 H     13   1   2     1.837072300170    99.37069922   223.07499144
 H     13   1   2     1.840687952699    12.30570018   335.59052045
 O     12  10   7     3.661534228851   161.54375213   306.34627465
 H     16  12  10     1.817593168635   121.08403650   202.75419110
 H     16  12  10     1.880998097508    95.17003195   315.21089530

---------------------
BASIS SET INFORMATION
---------------------
There are 2 groups of distinct atoms

 Group   1 Type O   : 11s6p2d1f contracted to 5s3p2d1f pattern {62111/411/11/1}
 Group   2 Type H   : 5s1p contracted to 3s1p pattern {311/1}

Atom   0O    basis set group =>   1
Atom   1H    basis set group =>   2
Atom   2H    basis set group =>   2
Atom   3O    basis set group =>   1
Atom   4H    basis set group =>   2
Atom   5H    basis set group =>   2
Atom   6O    basis set group =>   1
Atom   7H    basis set group =>   2
Atom   8H    basis set group =>   2
Atom   9O    basis set group =>   1
Atom  10H    basis set group =>   2
Atom  11H    basis set group =>   2
Atom  12O    basis set group =>   1
Atom  13H    basis set group =>   2
Atom  14H    basis set group =>   2
Atom  15O    basis set group =>   1
Atom  16H    basis set group =>   2
Atom  17H    basis set group =>   2


           ************************************************************
           *        Program running with 6 parallel MPI-processes     *
           *              working on a common directory               *
           ************************************************************
------------------------------------------------------------------------------
                           ORCA GTO INTEGRAL CALCULATION
------------------------------------------------------------------------------

                         BASIS SET STATISTICS AND STARTUP INFO

 # of primitive gaussian shells          ...  192
 # of primitive gaussian functions       ...  372
 # of contracted shells                  ...  114
 # of contracted basis functions         ...  258
 Highest angular momentum                ...    3
 Maximum contraction depth               ...    6
 Integral package used                   ... LIBINT
 Integral threshhold            Thresh   ...  2.500e-11
 Primitive cut-off              TCut     ...  2.500e-12


------------------------------ INTEGRAL EVALUATION ----------------------------


 * One electron integrals 
 Pre-screening matrix                    ... done
 Shell pair data                         ... done (   0.001 sec)



           ************************************************************
           *        Program running with 6 parallel MPI-processes     *
           *              working on a common directory               *
           ************************************************************
-------------------------------------------------------------------------------
                                 ORCA SCF
-------------------------------------------------------------------------------

------------
SCF SETTINGS
------------
Hamiltonian:
 Ab initio Hamiltonian  Method          .... Hartree-Fock(GTOs)


General Settings:
 Integral files         IntName         .... 12h2o.su.etal.mol0,4,6,8,9,10-orca.engrad-mp2.def2tzvp.frozencore
 Hartree-Fock type      HFTyp           .... RHF
 Total Charge           Charge          ....    0
 Multiplicity           Mult            ....    1
 Number of Electrons    NEL             ....   60
 Basis Dimension        Dim             ....  258
 Nuclear Repulsion      ENuc            ....    265.4742217564 Eh

Convergence Acceleration:
 DIIS                   CNVDIIS         .... on
   Start iteration      DIISMaxIt       ....    12
   Startup error        DIISStart       ....  0.200000
   # of expansion vecs  DIISMaxEq       ....     5
   Bias factor          DIISBfac        ....   1.050
   Max. coefficient     DIISMaxC        ....  10.000
 Newton-Raphson         CNVNR           .... off
 SOSCF                  CNVSOSCF        .... on
   Start iteration      SOSCFMaxIt      ....   150
   Startup grad/error   SOSCFStart      ....  0.003300
 Level Shifting         CNVShift        .... on
   Level shift para.    LevelShift      ....    0.2500
   Turn off err/grad.   ShiftErr        ....    0.0010
 Zerner damping         CNVZerner       .... off
 Static damping         CNVDamp         .... on
   Fraction old density DampFac         ....    0.7000
   Max. Damping (<1)    DampMax         ....    0.9800
   Min. Damping (>=0)   DampMin         ....    0.0000
   Turn off err/grad.   DampErr         ....    0.1000
 Fernandez-Rico         CNVRico         .... off

SCF Procedure:
 Maximum # iterations   MaxIter         ....   125
 SCF integral mode      SCFMode         .... Direct
   Integral package                     .... LIBINT
 Reset frequency        DirectResetFreq ....    20
 Integral Threshold     Thresh          ....  2.500e-11 Eh
 Primitive CutOff       TCut            ....  2.500e-12 Eh

Convergence Tolerance:
 Convergence Check Mode ConvCheckMode   .... Total+1el-Energy
 Convergence forced     ConvForced      .... 1
 Energy Change          TolE            ....  1.000e-08 Eh
 1-El. energy change                    ....  1.000e-05 Eh
 Orbital Gradient       TolG            ....  1.000e-05
 Orbital Rotation angle TolX            ....  1.000e-05
 DIIS Error             TolErr          ....  5.000e-07


Diagonalization of the overlap matrix:
Smallest eigenvalue                        ... 4.209e-03
Time for diagonalization                   ...    0.011 sec
Threshold for overlap eigenvalues          ... 1.000e-08
Number of eigenvalues below threshold      ... 0
Time for construction of square roots      ...    0.005 sec
Total time needed                          ...    0.016 sec

-------------------
DFT GRID GENERATION
-------------------

General Integration Accuracy     IntAcc      ...  4.340
Radial Grid Type                 RadialGrid  ... Gauss-Chebyshev
Angular Grid (max. acc.)         AngularGrid ... Lebedev-110
Angular grid pruning method      GridPruning ... 3 (G Style)
Weight generation scheme         WeightScheme... Becke
Basis function cutoff            BFCut       ...    1.0000e-11
Integration weight cutoff        WCut        ...    1.0000e-14
Grids for H and He will be reduced by one unit

# of grid points (after initial pruning)     ...  19824 (   0.0 sec)
# of grid points (after weights+screening)   ...  18757 (   0.0 sec)
nearest neighbour list constructed           ...    0.0 sec
Grid point re-assignment to atoms done       ...    0.0 sec
Grid point division into batches done        ...    0.0 sec
Reduced shell lists constructed in    0.0 sec

Total number of grid points                  ...    18757
Total number of batches                      ...      305
Average number of points per batch           ...       61
Average number of grid points per atom       ...     1042
Average number of shells per batch           ...    54.81 (48.08%)
Average number of basis functions per batch  ...   110.77 (42.93%)
Average number of large shells per batch     ...    38.10 (69.51%)
Average number of large basis fcns per batch ...    75.40 (68.07%)
Maximum spatial batch extension              ...  15.22, 15.72, 14.72 au
Average spatial batch extension              ...   0.64,  0.67,  0.60 au

Time for grid setup =    0.056 sec

------------------------------
INITIAL GUESS: MODEL POTENTIAL
------------------------------
Loading Hartree-Fock densities                     ... done
Calculating cut-offs                               ... done
Setting up the integral package                    ... done
Initializing the effective Hamiltonian             ... done
Starting the Coulomb interaction                   ... done (   0.0 sec)
Reading the grid                                   ... done
Mapping shells                                     ... done
Starting the XC term evaluation                    ... done (   0.0 sec)
Transforming the Hamiltonian                       ... done (   0.0 sec)
Diagonalizing the Hamiltonian                      ... done (   0.0 sec)
Back transforming the eigenvectors                 ... done (   0.0 sec)
Now organizing SCF variables                       ... done
                      ------------------
                      INITIAL GUESS DONE (   0.2 sec)
                      ------------------
--------------
SCF ITERATIONS
--------------
ITER       Energy         Delta-E        Max-DP      RMS-DP      [F,P]     Damp
               ***  Starting incremental Fock matrix formation  ***
  0   -455.8345824209   0.000000000000 0.04389930  0.00096554  0.3470898 0.7000
  1   -456.0436884331  -0.209106012233 0.02909999  0.00066869  0.2167487 0.7000
                               ***Turning on DIIS***
  2   -456.1545836287  -0.110895195602 0.01639348  0.00037470  0.1635677 0.7000
  3   -457.1555875229  -1.001003894238 0.00764751  0.00017415  0.1217945 0.7000
  4   -456.9540917934   0.201495729496 0.01740013  0.00040781  0.0861644 0.0000
  5   -456.4103766566   0.543715136798 0.00226313  0.00006557  0.0054197 0.0000
                      *** Initiating the SOSCF procedure ***
                           *** Shutting down DIIS ***
                      *** Re-Reading the Fockian *** 
                      *** Removing any level shift *** 
ITER      Energy       Delta-E        Grad      Rot      Max-DP    RMS-DP
  6   -456.37892132   0.0314553372  0.001029  0.001029  0.001470  0.000040
               *** Restarting incremental Fock matrix formation ***
  7   -456.36923319   0.0096881277  0.000347  0.000477  0.000669  0.000017
  8   -456.36924231  -0.0000091220  0.000138  0.000386  0.000508  0.000014
  9   -456.36924444  -0.0000021245  0.000066  0.000045  0.000095  0.000002
 10   -456.36924460  -0.0000001664  0.000013  0.000009  0.000018  0.000000
                  ***Gradient check signals convergence***
              ***Rediagonalizing the Fockian in SOSCF/NRSCF***

               *****************************************************
               *                     SUCCESS                       *
               *           SCF CONVERGED AFTER  11 CYCLES          *
               *****************************************************


----------------
TOTAL SCF ENERGY
----------------

Total Energy       :         -456.36924461 Eh          -12418.43849 eV

Components:
Nuclear Repulsion  :          265.47422176 Eh            7223.92083 eV
Electronic Energy  :         -721.84346637 Eh          -19642.35932 eV
One Electron Energy:        -1159.19239996 Eh          -31543.22883 eV
Two Electron Energy:          437.34893360 Eh           11900.86951 eV

Virial components:
Potential Energy   :         -912.12048771 Eh          -24820.06030 eV
Kinetic Energy     :          455.75124310 Eh           12401.62181 eV
Virial Ratio       :            2.00135601


---------------
SCF CONVERGENCE
---------------

  Last Energy change         ...   -4.7378e-09  Tolerance :   1.0000e-08
  Last MAX-Density change    ...    5.0744e-06  Tolerance :   1.0000e-07
  Last RMS-Density change    ...    1.2618e-07  Tolerance :   5.0000e-09
  Last Orbital Gradient      ...    1.7929e-06  Tolerance :   1.0000e-05
  Last Orbital Rotation      ...    1.9977e-06  Tolerance :   1.0000e-05

             **** THE GBW FILE WAS UPDATED (12h2o.su.etal.mol0,4,6,8,9,10-orca.engrad-mp2.def2tzvp.frozencore.gbw) ****
             **** DENSITY FILE WAS UPDATED (12h2o.su.etal.mol0,4,6,8,9,10-orca.engrad-mp2.def2tzvp.frozencore.scfp) ****
             **** ENERGY FILE WAS UPDATED (12h2o.su.etal.mol0,4,6,8,9,10-orca.engrad-mp2.def2tzvp.frozencore.en.tmp) ****
             **** THE GBW FILE WAS UPDATED (12h2o.su.etal.mol0,4,6,8,9,10-orca.engrad-mp2.def2tzvp.frozencore.gbw) ****
             **** DENSITY FILE WAS UPDATED (12h2o.su.etal.mol0,4,6,8,9,10-orca.engrad-mp2.def2tzvp.frozencore.scfp) ****
----------------
ORBITAL ENERGIES
----------------

  NO   OCC          E(Eh)            E(eV) 
   0   2.0000     -20.620191      -561.1039 
   1   2.0000     -20.606808      -560.7397 
   2   2.0000     -20.582321      -560.0734 
   3   2.0000     -20.532102      -558.7069 
   4   2.0000     -20.522342      -558.4413 
   5   2.0000     -20.499631      -557.8233 
   6   2.0000      -1.400744       -38.1162 
   7   2.0000      -1.386995       -37.7421 
   8   2.0000      -1.365697       -37.1625 
   9   2.0000      -1.314579       -35.7715 
  10   2.0000      -1.309585       -35.6356 
  11   2.0000      -1.284392       -34.9501 
  12   2.0000      -0.766048       -20.8452 
  13   2.0000      -0.752587       -20.4789 
  14   2.0000      -0.729812       -19.8592 
  15   2.0000      -0.691914       -18.8279 
  16   2.0000      -0.685272       -18.6472 
  17   2.0000      -0.666986       -18.1496 
  18   2.0000      -0.641351       -17.4521 
  19   2.0000      -0.625208       -17.0128 
  20   2.0000      -0.601805       -16.3759 
  21   2.0000      -0.583399       -15.8751 
  22   2.0000      -0.564147       -15.3512 
  23   2.0000      -0.548155       -14.9160 
  24   2.0000      -0.534289       -14.5388 
  25   2.0000      -0.520222       -14.1560 
  26   2.0000      -0.508036       -13.8244 
  27   2.0000      -0.479988       -13.0611 
  28   2.0000      -0.473377       -12.8812 
  29   2.0000      -0.449363       -12.2278 
  30   0.0000       0.085330         2.3220 
  31   0.0000       0.105942         2.8828 
  32   0.0000       0.141126         3.8402 
  33   0.0000       0.169643         4.6162 
  34   0.0000       0.180881         4.9220 
  35   0.0000       0.196472         5.3463 
  36   0.0000       0.219126         5.9627 
  37   0.0000       0.249767         6.7965 
  38   0.0000       0.269705         7.3390 
  39   0.0000       0.289247         7.8708 
  40   0.0000       0.334120         9.0919 
  41   0.0000       0.343161         9.3379 
  42   0.0000       0.440053        11.9745 
  43   0.0000       0.457664        12.4537 
  44   0.0000       0.493844        13.4382 
  45   0.0000       0.501319        13.6416 
  46   0.0000       0.515300        14.0220 
  47   0.0000       0.533639        14.5211 
  48   0.0000       0.545741        14.8504 
  49   0.0000       0.550769        14.9872 
  50   0.0000       0.578436        15.7400 
  51   0.0000       0.586941        15.9715 
  52   0.0000       0.599589        16.3156 
  53   0.0000       0.605403        16.4738 
  54   0.0000       0.622374        16.9357 
  55   0.0000       0.632783        17.2189 
  56   0.0000       0.638451        17.3731 
  57   0.0000       0.648602        17.6494 
  58   0.0000       0.662518        18.0280 
  59   0.0000       0.687755        18.7148 
  60   0.0000       0.698985        19.0203 
  61   0.0000       0.709552        19.3079 
  62   0.0000       0.714029        19.4297 
  63   0.0000       0.735721        20.0200 
  64   0.0000       0.746193        20.3050 
  65   0.0000       0.763379        20.7726 
  66   0.0000       0.764014        20.7899 
  67   0.0000       0.799222        21.7479 
  68   0.0000       0.810928        22.0665 
  69   0.0000       0.823656        22.4128 
  70   0.0000       0.864505        23.5244 
  71   0.0000       0.910111        24.7654 
  72   0.0000       0.922382        25.0993 
  73   0.0000       0.959248        26.1025 
  74   0.0000       0.990816        26.9615 
  75   0.0000       1.024669        27.8827 
  76   0.0000       1.068411        29.0729 
  77   0.0000       1.115122        30.3440 
  78   0.0000       1.353808        36.8390 
  79   0.0000       1.369303        37.2606 
  80   0.0000       1.372289        37.3419 
  81   0.0000       1.386482        37.7281 
  82   0.0000       1.400069        38.0978 
  83   0.0000       1.421425        38.6789 
  84   0.0000       1.435912        39.0732 
  85   0.0000       1.454211        39.5711 
  86   0.0000       1.483493        40.3679 
  87   0.0000       1.493801        40.6484 
  88   0.0000       1.513956        41.1968 
  89   0.0000       1.528848        41.6021 
  90   0.0000       1.560729        42.4696 
  91   0.0000       1.574015        42.8311 
  92   0.0000       1.592157        43.3248 
  93   0.0000       1.604492        43.6605 
  94   0.0000       1.626916        44.2706 
  95   0.0000       1.684881        45.8480 
  96   0.0000       1.792862        48.7863 
  97   0.0000       1.810020        49.2532 
  98   0.0000       1.815059        49.3903 
  99   0.0000       1.836428        49.9718 
 100   0.0000       1.861916        50.6653 
 101   0.0000       1.868820        50.8532 
 102   0.0000       1.928392        52.4742 
 103   0.0000       1.957139        53.2565 
 104   0.0000       1.959138        53.3108 
 105   0.0000       1.977911        53.8217 
 106   0.0000       2.006838        54.6088 
 107   0.0000       2.023737        55.0687 
 108   0.0000       2.052049        55.8391 
 109   0.0000       2.081745        56.6472 
 110   0.0000       2.107656        57.3522 
 111   0.0000       2.125027        57.8249 
 112   0.0000       2.155648        58.6582 
 113   0.0000       2.201062        59.8940 
 114   0.0000       2.254756        61.3550 
 115   0.0000       2.280814        62.0641 
 116   0.0000       2.295473        62.4630 
 117   0.0000       2.304436        62.7069 
 118   0.0000       2.312013        62.9131 
 119   0.0000       2.331083        63.4320 
 120   0.0000       2.346679        63.8564 
 121   0.0000       2.351382        63.9844 
 122   0.0000       2.366723        64.4018 
 123   0.0000       2.382445        64.8296 
 124   0.0000       2.389095        65.0106 
 125   0.0000       2.391410        65.0736 
 126   0.0000       2.448044        66.6147 
 127   0.0000       2.478649        67.4475 
 128   0.0000       2.490594        67.7725 
 129   0.0000       2.513923        68.4073 
 130   0.0000       2.535354        68.9905 
 131   0.0000       2.552915        69.4683 
 132   0.0000       2.569923        69.9312 
 133   0.0000       2.601021        70.7774 
 134   0.0000       2.615301        71.1660 
 135   0.0000       2.628354        71.5211 
 136   0.0000       2.657072        72.3026 
 137   0.0000       2.674577        72.7789 
 138   0.0000       2.696914        73.3867 
 139   0.0000       2.708147        73.6924 
 140   0.0000       2.712558        73.8125 
 141   0.0000       2.732460        74.3540 
 142   0.0000       2.754067        74.9420 
 143   0.0000       2.796720        76.1026 
 144   0.0000       2.875349        78.2422 
 145   0.0000       2.893867        78.7461 
 146   0.0000       2.934883        79.8622 
 147   0.0000       2.940096        80.0041 
 148   0.0000       2.972330        80.8812 
 149   0.0000       2.975798        80.9756 
 150   0.0000       2.986809        81.2752 
 151   0.0000       2.990709        81.3813 
 152   0.0000       3.015396        82.0531 
 153   0.0000       3.052761        83.0699 
 154   0.0000       3.060754        83.2873 
 155   0.0000       3.087883        84.0256 
 156   0.0000       3.114703        84.7554 
 157   0.0000       3.130408        85.1827 
 158   0.0000       3.145743        85.6000 
 159   0.0000       3.170154        86.2643 
 160   0.0000       3.211505        87.3895 
 161   0.0000       3.243564        88.2619 
 162   0.0000       3.259528        88.6963 
 163   0.0000       3.311815        90.1191 
 164   0.0000       3.343382        90.9780 
 165   0.0000       3.346807        91.0712 
 166   0.0000       3.401649        92.5636 
 167   0.0000       3.466083        94.3169 
 168   0.0000       3.962238       107.8180 
 169   0.0000       3.980235       108.3077 
 170   0.0000       4.047727       110.1442 
 171   0.0000       4.067042       110.6698 
 172   0.0000       4.121974       112.1646 
 173   0.0000       4.138803       112.6225 
 174   0.0000       4.261602       115.9641 
 175   0.0000       4.274012       116.3018 
 176   0.0000       4.291185       116.7691 
 177   0.0000       4.341939       118.1502 
 178   0.0000       4.371335       118.9501 
 179   0.0000       4.397875       119.6723 
 180   0.0000       5.494013       149.4997 
 181   0.0000       5.507668       149.8713 
 182   0.0000       5.521900       150.2585 
 183   0.0000       5.574267       151.6835 
 184   0.0000       5.582535       151.9085 
 185   0.0000       5.587645       152.0476 
 186   0.0000       5.602502       152.4518 
 187   0.0000       5.603768       152.4863 
 188   0.0000       5.653299       153.8341 
 189   0.0000       5.680419       154.5721 
 190   0.0000       5.692047       154.8885 
 191   0.0000       5.711249       155.4110 
 192   0.0000       5.756035       156.6297 
 193   0.0000       5.770175       157.0144 
 194   0.0000       5.793939       157.6611 
 195   0.0000       5.800601       157.8424 
 196   0.0000       5.813091       158.1822 
 197   0.0000       5.839667       158.9054 
 198   0.0000       5.852048       159.2423 
 199   0.0000       5.862035       159.5141 
 200   0.0000       5.862799       159.5349 
 201   0.0000       5.872073       159.7872 
 202   0.0000       5.874808       159.8616 
 203   0.0000       5.886270       160.1736 
 204   0.0000       5.898597       160.5090 
 205   0.0000       5.905460       160.6957 
 206   0.0000       5.924674       161.2186 
 207   0.0000       5.933277       161.4527 
 208   0.0000       5.938220       161.5872 
 209   0.0000       5.964222       162.2947 
 210   0.0000       6.374645       173.4629 
 211   0.0000       6.388326       173.8352 
 212   0.0000       6.445257       175.3844 
 213   0.0000       6.499387       176.8573 
 214   0.0000       6.511166       177.1778 
 215   0.0000       6.541445       178.0018 
 216   0.0000       6.645443       180.8317 
 217   0.0000       6.664960       181.3628 
 218   0.0000       6.677685       181.7091 
 219   0.0000       6.723034       182.9430 
 220   0.0000       6.749821       183.6720 
 221   0.0000       6.765617       184.1018 
 222   0.0000       6.830606       185.8702 
 223   0.0000       6.840526       186.1402 
 224   0.0000       6.847934       186.3417 
 225   0.0000       6.859413       186.6541 
 226   0.0000       6.862784       186.7458 
 227   0.0000       6.869559       186.9302 
 228   0.0000       6.881631       187.2587 
 229   0.0000       6.893591       187.5841 
 230   0.0000       6.908139       187.9800 
 231   0.0000       6.917326       188.2300 
 232   0.0000       6.927151       188.4974 
 233   0.0000       6.938597       188.8088 
 234   0.0000       6.970907       189.6880 
 235   0.0000       6.975608       189.8159 
 236   0.0000       6.990092       190.2101 
 237   0.0000       7.013154       190.8376 
 238   0.0000       7.031940       191.3488 
 239   0.0000       7.066493       192.2891 
 240   0.0000       7.331616       199.5034 
 241   0.0000       7.341612       199.7754 
 242   0.0000       7.379098       200.7955 
 243   0.0000       7.425208       202.0502 
 244   0.0000       7.445232       202.5951 
 245   0.0000       7.459090       202.9721 
 246   0.0000       7.466377       203.1705 
 247   0.0000       7.483943       203.6484 
 248   0.0000       7.538227       205.1256 
 249   0.0000       7.567258       205.9156 
 250   0.0000       7.629595       207.6118 
 251   0.0000       7.652007       208.2217 
 252   0.0000      44.873666      1221.0745 
 253   0.0000      44.895219      1221.6610 
 254   0.0000      44.949248      1223.1312 
 255   0.0000      44.975914      1223.8568 
 256   0.0000      45.027813      1225.2691 
 257   0.0000      45.080116      1226.6923 

                    ********************************
                    * MULLIKEN POPULATION ANALYSIS *
                    ********************************

-----------------------
MULLIKEN ATOMIC CHARGES
-----------------------
   0 O :   -0.740248
   1 H :    0.371190
   2 H :    0.384852
   3 O :   -0.731700
   4 H :    0.398397
   5 H :    0.354494
   6 O :   -0.773656
   7 H :    0.378267
   8 H :    0.368295
   9 O :   -0.752946
  10 H :    0.389561
  11 H :    0.349866
  12 O :   -0.730442
  13 H :    0.344913
  14 H :    0.374419
  15 O :   -0.740604
  16 H :    0.376402
  17 H :    0.378938
Sum of atomic charges:    0.0000000

--------------------------------
MULLIKEN REDUCED ORBITAL CHARGES
--------------------------------
  0 O s       :     3.808338  s :     3.808338
      pz      :     1.731354  p :     4.906298
      px      :     1.382074
      py      :     1.792870
      dz2     :     0.004106  d :     0.024135
      dxz     :     0.004573
      dyz     :     0.005494
      dx2y2   :     0.002545
      dxy     :     0.007418
      f0      :     0.000085  f :     0.001476
      f+1     :     0.000335
      f-1     :     0.000180
      f+2     :     0.000062
      f-2     :     0.000348
      f+3     :     0.000093
      f-3     :     0.000373
  1 H s       :     0.583787  s :     0.583787
      pz      :     0.017018  p :     0.045024
      px      :     0.013327
      py      :     0.014679
  2 H s       :     0.574605  s :     0.574605
      pz      :     0.010438  p :     0.040543
      px      :     0.018001
      py      :     0.012104
  3 O s       :     3.802377  s :     3.802377
      pz      :     1.601013  p :     4.902825
      px      :     1.844376
      py      :     1.457436
      dz2     :     0.011392  d :     0.025104
      dxz     :     0.002266
      dyz     :     0.002830
      dx2y2   :     0.003567
      dxy     :     0.005049
      f0      :     0.000152  f :     0.001394
      f+1     :     0.000115
      f-1     :     0.000456
      f+2     :     0.000069
      f-2     :     0.000040
      f+3     :     0.000453
      f-3     :     0.000109
  4 H s       :     0.553282  s :     0.553282
      pz      :     0.024782  p :     0.048321
      px      :     0.012626
      py      :     0.010913
  5 H s       :     0.602686  s :     0.602686
      pz      :     0.010058  p :     0.042820
      px      :     0.014247
      py      :     0.018515
  6 O s       :     3.806073  s :     3.806073
      pz      :     1.576782  p :     4.943468
      px      :     1.488321
      py      :     1.878365
      dz2     :     0.009912  d :     0.022710
      dxz     :     0.002512
      dyz     :     0.002370
      dx2y2   :     0.002847
      dxy     :     0.005068
      f0      :     0.000186  f :     0.001405
      f+1     :     0.000423
      f-1     :     0.000119
      f+2     :     0.000077
      f-2     :     0.000036
      f+3     :     0.000117
      f-3     :     0.000448
  7 H s       :     0.572421  s :     0.572421
      pz      :     0.023932  p :     0.049312
      px      :     0.011783
      py      :     0.013596
  8 H s       :     0.577782  s :     0.577782
      pz      :     0.009478  p :     0.053923
      px      :     0.028483
      py      :     0.015962
  9 O s       :     3.804598  s :     3.804598
      pz      :     1.558702  p :     4.922274
      px      :     1.546172
      py      :     1.817401
      dz2     :     0.011228  d :     0.024627
      dxz     :     0.001172
      dyz     :     0.002892
      dx2y2   :     0.002125
      dxy     :     0.007210
      f0      :     0.000248  f :     0.001446
      f+1     :     0.000370
      f-1     :     0.000161
      f+2     :     0.000057
      f-2     :     0.000055
      f+3     :     0.000067
      f-3     :     0.000488
 10 H s       :     0.561819  s :     0.561819
      pz      :     0.024521  p :     0.048620
      px      :     0.011422
      py      :     0.012677
 11 H s       :     0.599417  s :     0.599417
      pz      :     0.010688  p :     0.050716
      px      :     0.023068
      py      :     0.016960
 12 O s       :     3.808928  s :     3.808928
      pz      :     1.500568  p :     4.894642
      px      :     1.823057
      py      :     1.571018
      dz2     :     0.011945  d :     0.025379
      dxz     :     0.002953
      dyz     :     0.001238
      dx2y2   :     0.002065
      dxy     :     0.007178
      f0      :     0.000272  f :     0.001492
      f+1     :     0.000170
      f-1     :     0.000381
      f+2     :     0.000057
      f-2     :     0.000056
      f+3     :     0.000490
      f-3     :     0.000066
 13 H s       :     0.610446  s :     0.610446
      pz      :     0.018819  p :     0.044641
      px      :     0.013649
      py      :     0.012173
 14 H s       :     0.575384  s :     0.575384
      pz      :     0.010028  p :     0.050197
      px      :     0.016533
      py      :     0.023636
 15 O s       :     3.807408  s :     3.807408
      pz      :     1.730539  p :     4.907672
      px      :     1.797995
      py      :     1.379138
      dz2     :     0.003925  d :     0.024043
      dxz     :     0.005509
      dyz     :     0.004372
      dx2y2   :     0.002556
      dxy     :     0.007680
      f0      :     0.000084  f :     0.001480
      f+1     :     0.000179
      f-1     :     0.000333
      f+2     :     0.000064
      f-2     :     0.000348
      f+3     :     0.000377
      f-3     :     0.000094
 16 H s       :     0.578677  s :     0.578677
      pz      :     0.016928  p :     0.044920
      px      :     0.014669
      py      :     0.013323
 17 H s       :     0.580451  s :     0.580451
      pz      :     0.010516  p :     0.040611
      px      :     0.012095
      py      :     0.018001


                     *******************************
                     * LOEWDIN POPULATION ANALYSIS *
                     *******************************

----------------------
LOEWDIN ATOMIC CHARGES
----------------------
   0 O :   -0.296247
   1 H :    0.166407
   2 H :    0.193919
   3 O :   -0.309488
   4 H :    0.159547
   5 H :    0.173678
   6 O :   -0.353581
   7 H :    0.150583
   8 H :    0.146318
   9 O :   -0.359672
  10 H :    0.157013
  11 H :    0.141588
  12 O :   -0.349434
  13 H :    0.162688
  14 H :    0.152003
  15 O :   -0.296280
  16 H :    0.168677
  17 H :    0.192282

-------------------------------
LOEWDIN REDUCED ORBITAL CHARGES
-------------------------------
  0 O s       :     3.462883  s :     3.462883
      pz      :     1.687448  p :     4.799592
      px      :     1.364702
      py      :     1.747441
      dz2     :     0.005529  d :     0.031702
      dxz     :     0.006789
      dyz     :     0.005401
      dx2y2   :     0.004212
      dxy     :     0.009771
      f0      :     0.000093  f :     0.002070
      f+1     :     0.000449
      f-1     :     0.000271
      f+2     :     0.000033
      f-2     :     0.000601
      f+3     :     0.000090
      f-3     :     0.000533
  1 H s       :     0.669428  s :     0.669428
      pz      :     0.066789  p :     0.164165
      px      :     0.044562
      py      :     0.052814
  2 H s       :     0.657008  s :     0.657008
      pz      :     0.033300  p :     0.149072
      px      :     0.072349
      py      :     0.043423
  3 O s       :     3.463857  s :     3.463857
      pz      :     1.576051  p :     4.812004
      px      :     1.784621
      py      :     1.451332
      dz2     :     0.014289  d :     0.031586
      dxz     :     0.001349
      dyz     :     0.003725
      dx2y2   :     0.005500
      dxy     :     0.006723
      f0      :     0.000326  f :     0.002041
      f+1     :     0.000207
      f-1     :     0.000718
      f+2     :     0.000038
      f-2     :     0.000042
      f+3     :     0.000635
      f-3     :     0.000075
  4 H s       :     0.667881  s :     0.667881
      pz      :     0.094027  p :     0.172573
      px      :     0.042692
      py      :     0.035853
  5 H s       :     0.672360  s :     0.672360
      pz      :     0.030522  p :     0.153962
      px      :     0.049335
      py      :     0.074104
  6 O s       :     3.457742  s :     3.457742
      pz      :     1.547690  p :     4.864731
      px      :     1.478180
      py      :     1.838861
      dz2     :     0.013792  d :     0.029152
      dxz     :     0.003845
      dyz     :     0.001579
      dx2y2   :     0.003791
      dxy     :     0.006145
      f0      :     0.000367  f :     0.001957
      f+1     :     0.000696
      f-1     :     0.000184
      f+2     :     0.000042
      f-2     :     0.000042
      f+3     :     0.000066
      f-3     :     0.000559
  7 H s       :     0.677551  s :     0.677551
      pz      :     0.091377  p :     0.171865
      px      :     0.037129
      py      :     0.043360
  8 H s       :     0.668324  s :     0.668324
      pz      :     0.030520  p :     0.185358
      px      :     0.102221
      py      :     0.052617
  9 O s       :     3.460631  s :     3.460631
      pz      :     1.539438  p :     4.866734
      px      :     1.536012
      py      :     1.791283
      dz2     :     0.014608  d :     0.030264
      dxz     :     0.001786
      dyz     :     0.002223
      dx2y2   :     0.002245
      dxy     :     0.009402
      f0      :     0.000431  f :     0.002043
      f+1     :     0.000546
      f-1     :     0.000307
      f+2     :     0.000024
      f-2     :     0.000046
      f+3     :     0.000002
      f-3     :     0.000688
 10 H s       :     0.671027  s :     0.671027
      pz      :     0.093681  p :     0.171959
      px      :     0.036443
      py      :     0.041835
 11 H s       :     0.686440  s :     0.686440
      pz      :     0.031823  p :     0.171972
      px      :     0.082344
      py      :     0.057805
 12 O s       :     3.466605  s :     3.466605
      pz      :     1.508354  p :     4.849046
      px      :     1.794437
      py      :     1.546255
      dz2     :     0.016144  d :     0.031655
      dxz     :     0.002406
      dyz     :     0.002135
      dx2y2   :     0.002083
      dxy     :     0.008886
      f0      :     0.000495  f :     0.002129
      f+1     :     0.000317
      f-1     :     0.000581
      f+2     :     0.000026
      f-2     :     0.000050
      f+3     :     0.000659
      f-3     :     0.000002
 13 H s       :     0.679073  s :     0.679073
      pz      :     0.079789  p :     0.158239
      px      :     0.042264
      py      :     0.036185
 14 H s       :     0.675671  s :     0.675671
      pz      :     0.029778  p :     0.172327
      px      :     0.057844
      py      :     0.084704
 15 O s       :     3.462827  s :     3.462827
      pz      :     1.686433  p :     4.799770
      px      :     1.749500
      py      :     1.363837
      dz2     :     0.005413  d :     0.031611
      dxz     :     0.005352
      dyz     :     0.006543
      dx2y2   :     0.004232
      dxy     :     0.010070
      f0      :     0.000088  f :     0.002071
      f+1     :     0.000273
      f-1     :     0.000449
      f+2     :     0.000033
      f-2     :     0.000595
      f+3     :     0.000543
      f-3     :     0.000090
 16 H s       :     0.667127  s :     0.667127
      pz      :     0.066675  p :     0.164196
      px      :     0.052947
      py      :     0.044575
 17 H s       :     0.658871  s :     0.658871
      pz      :     0.033273  p :     0.148847
      px      :     0.043548
      py      :     0.072025


                      *****************************
                      * MAYER POPULATION ANALYSIS *
                      *****************************

  NA   - Mulliken gross atomic population
  ZA   - Total nuclear charge
  QA   - Mulliken gross atomic charge
  VA   - Mayer's total valence
  BVA  - Mayer's bonded valence
  FA   - Mayer's free valence

  ATOM       NA         ZA         QA         VA         BVA        FA
  0 O      8.7402     8.0000    -0.7402     1.7556     1.7556    -0.0000
  1 H      0.6288     1.0000     0.3712     0.8779     0.8779     0.0000
  2 H      0.6151     1.0000     0.3849     0.8660     0.8660    -0.0000
  3 O      8.7317     8.0000    -0.7317     1.7517     1.7517    -0.0000
  4 H      0.6016     1.0000     0.3984     0.8687     0.8687     0.0000
  5 H      0.6455     1.0000     0.3545     0.8893     0.8893    -0.0000
  6 O      8.7737     8.0000    -0.7737     1.6893     1.6893     0.0000
  7 H      0.6217     1.0000     0.3783     0.8837     0.8837    -0.0000
  8 H      0.6317     1.0000     0.3683     0.9024     0.9024    -0.0000
  9 O      8.7529     8.0000    -0.7529     1.7288     1.7288     0.0000
 10 H      0.6104     1.0000     0.3896     0.8770     0.8770     0.0000
 11 H      0.6501     1.0000     0.3499     0.9032     0.9032     0.0000
 12 O      8.7304     8.0000    -0.7304     1.7466     1.7466     0.0000
 13 H      0.6551     1.0000     0.3449     0.8963     0.8963     0.0000
 14 H      0.6256     1.0000     0.3744     0.8882     0.8882     0.0000
 15 O      8.7406     8.0000    -0.7406     1.7558     1.7558     0.0000
 16 H      0.6236     1.0000     0.3764     0.8743     0.8743     0.0000
 17 H      0.6211     1.0000     0.3789     0.8717     0.8717    -0.0000

  Mayer bond orders larger than 0.100000
B(  0-O ,  1-H ) :   0.8687 B(  0-O ,  2-H ) :   0.8547 B(  3-O ,  4-H ) :   0.8362 
B(  3-O ,  5-H ) :   0.8805 B(  6-O ,  7-H ) :   0.8583 B(  6-O ,  8-H ) :   0.8310 
B(  9-O , 10-H ) :   0.8467 B(  9-O , 11-H ) :   0.8825 B( 12-O , 13-H ) :   0.8906 
B( 12-O , 14-H ) :   0.8586 B( 15-O , 16-H ) :   0.8651 B( 15-O , 17-H ) :   0.8588 


-------
TIMINGS
-------

Total SCF time: 0 days 0 hours 0 min 12 sec 

Total time                  ....      12.063 sec
Sum of individual times     ....      11.829 sec  ( 98.1%)

Fock matrix formation       ....      11.461 sec  ( 95.0%)
Diagonalization             ....       0.077 sec  (  0.6%)
Density matrix formation    ....       0.010 sec  (  0.1%)
Population analysis         ....       0.025 sec  (  0.2%)
Initial guess               ....       0.139 sec  (  1.2%)
Orbital Transformation      ....       0.000 sec  (  0.0%)
Orbital Orthonormalization  ....       0.000 sec  (  0.0%)
DIIS solution               ....       0.028 sec  (  0.2%)
SOSCF solution              ....       0.033 sec  (  0.3%)


           ************************************************************
           *        Program running with 6 parallel MPI-processes     *
           *              working on a common directory               *
           ************************************************************

------------------------------------------------------------------------------
                                ORCA  MP2 
------------------------------------------------------------------------------

Freezing NCore=12 chemical core electrons
MP2 will be done in the AO integral direct mode
The Q1-step will be done using symmetric double matrices
Dimension of the basis                    ...  258
Memory devoted for MP2                    ... 8000 MB   
Memory needed for all in one shot         ...  264 MB
Number of MOs that can be treated together...  120      
MP2 density construction                  ... relaxed
The MP2 gradient is requested => amplitudes will be stored on disk
Total number of MOs              ...   24
Number of MOs treated per batch  ...    4 
Number of batches necessary      ...    1 
OPERATORS   0/  0 PASS   0
-----------------------------------------------
 MP2 CORRELATION ENERGY   :     -1.549455266 Eh
-----------------------------------------------


---------------------
MP2 DENSITY FORMATION
---------------------

Completing the external part of the density      ... done
Storing the unrelaxed density                    ... done

Calculating G(D)                                 ... done
Completing the Lagrangian                        ... done
Solving the Z-vector equations                   ... 

------------------------------------------------------------------------------
                           ORCA CP-SCF CALCULATION
------------------------------------------------------------------------------

Input orbitals are from        ... 12h2o.su.etal.mol0,4,6,8,9,10-orca.engrad-mp2.def2tzvp.frozencore.gbw
Input Perturbation             ... 12h2o.su.etal.mol0,4,6,8,9,10-orca.engrad-mp2.def2tzvp.frozencore.pin.tmp
Wavefunction output            ... 12h2o.su.etal.mol0,4,6,8,9,10-orca.engrad-mp2.def2tzvp.frozencore.pout.tmp
Perturbation mode              ... Real perturbation (singlet)
Solver                         ... POPLE
Max. number of iterations      ... 128
Convergence tolerance          ... 1.000e-08
Integral handling              ... Direct
Number of perturbations        ... 1
Number of operators            ... 1
Orbital ranges used for CP-SCF:
 Operator 0:  Orbitals   0... 29  to  30...257
Variables per vector in CP-SCF ... 6840
Number of vectors sought       ... 1
     CP-SCF ITERATION   0: 
     CP-SCF ITERATION   1:      0.000737948896
     CP-SCF ITERATION   2:      0.000017462722
     CP-SCF ITERATION   3:      0.000000501915
     CP-SCF ITERATION   4:      0.000000057455
     CP-SCF ITERATION   5:      0.000000004804
                                                 ... done
Finalizing the relaxed density                   ... done
Transforming P to the AO basis                   ... done
Storing the relaxed density                      ... done

------------------------------------
ENERGY WEIGHTED DENSITY FINALIZATION
------------------------------------

Gathering the parts of the W-matrix              ...                                                      done
Forming the Z-density                            ... done
Transforming Z to the AO basis                   ... done
Calculating G(Z)                                 ... done
Finalizing the W-matrix                          ...                                                      done
Transforming W to the AO basis and storing       ... done

                *********************************************
                * UNRELAXED MP2 DENSITY POPULATION ANALYSIS *
                *********************************************

------------------------------------------------------------------------------
                           ORCA POPULATION ANALYSIS
------------------------------------------------------------------------------
Input electron density              ... 12h2o.su.etal.mol0,4,6,8,9,10-orca.engrad-mp2.def2tzvp.frozencore.pmp2ur
BaseName (.gbw .S,...)              ... 12h2o.su.etal.mol0,4,6,8,9,10-orca.engrad-mp2.def2tzvp.frozencore

                    ********************************
                    * MULLIKEN POPULATION ANALYSIS *
                    ********************************

-----------------------
MULLIKEN ATOMIC CHARGES
-----------------------
   0 O :   -0.734566
   1 H :    0.368935
   2 H :    0.382011
   3 O :   -0.725201
   4 H :    0.395393
   5 H :    0.351827
   6 O :   -0.767398
   7 H :    0.375382
   8 H :    0.363831
   9 O :   -0.747256
  10 H :    0.386515
  11 H :    0.346772
  12 O :   -0.725271
  13 H :    0.342464
  14 H :    0.371272
  15 O :   -0.734945
  16 H :    0.374166
  17 H :    0.376070
Sum of atomic charges:    0.0000000

--------------------------------
MULLIKEN REDUCED ORBITAL CHARGES
--------------------------------
  0 O s       :     3.803485  s :     3.803485
      pz      :     1.720332  p :     4.875657
      px      :     1.374257
      py      :     1.781069
      dz2     :     0.009664  d :     0.051379
      dxz     :     0.009972
      dyz     :     0.010984
      dx2y2   :     0.008023
      dxy     :     0.012737
      f0      :     0.000458  f :     0.004045
      f+1     :     0.000698
      f-1     :     0.000547
      f+2     :     0.000432
      f-2     :     0.000713
      f+3     :     0.000464
      f-3     :     0.000733
  1 H s       :     0.584516  s :     0.584516
      pz      :     0.017483  p :     0.046549
      px      :     0.013704
      py      :     0.015363
  2 H s       :     0.575958  s :     0.575958
      pz      :     0.011257  p :     0.042031
      px      :     0.017934
      py      :     0.012840
  3 O s       :     3.797283  s :     3.797283
      pz      :     1.591064  p :     4.871585
      px      :     1.831723
      py      :     1.448798
      dz2     :     0.016629  d :     0.052355
      dxz     :     0.007911
      dyz     :     0.008187
      dx2y2   :     0.009112
      dxy     :     0.010516
      f0      :     0.000539  f :     0.003978
      f+1     :     0.000491
      f-1     :     0.000823
      f+2     :     0.000434
      f-2     :     0.000407
      f+3     :     0.000807
      f-3     :     0.000477
  4 H s       :     0.554793  s :     0.554793
      pz      :     0.024892  p :     0.049814
      px      :     0.013445
      py      :     0.011478
  5 H s       :     0.603729  s :     0.603729
      pz      :     0.010897  p :     0.044444
      px      :     0.014987
      py      :     0.018560
  6 O s       :     3.801078  s :     3.801078
      pz      :     1.566887  p :     4.911999
      px      :     1.478860
      py      :     1.866252
      dz2     :     0.015370  d :     0.050326
      dxz     :     0.008009
      dyz     :     0.008033
      dx2y2   :     0.008404
      dxy     :     0.010510
      f0      :     0.000573  f :     0.003995
      f+1     :     0.000795
      f-1     :     0.000494
      f+2     :     0.000442
      f-2     :     0.000404
      f+3     :     0.000483
      f-3     :     0.000804
  7 H s       :     0.573726  s :     0.573726
      pz      :     0.024054  p :     0.050892
      px      :     0.012386
      py      :     0.014453
  8 H s       :     0.580544  s :     0.580544
      pz      :     0.010307  p :     0.055626
      px      :     0.028626
      py      :     0.016693
  9 O s       :     3.799774  s :     3.799774
      pz      :     1.549130  p :     4.891867
      px      :     1.536824
      py      :     1.805913
      dz2     :     0.016414  d :     0.051595
      dxz     :     0.006633
      dyz     :     0.008392
      dx2y2   :     0.007685
      dxy     :     0.012473
      f0      :     0.000629  f :     0.004020
      f+1     :     0.000739
      f-1     :     0.000535
      f+2     :     0.000417
      f-2     :     0.000421
      f+3     :     0.000436
      f-3     :     0.000843
 10 H s       :     0.563340  s :     0.563340
      pz      :     0.024558  p :     0.050145
      px      :     0.012085
      py      :     0.013503
 11 H s       :     0.600783  s :     0.600783
      pz      :     0.011527  p :     0.052445
      px      :     0.023300
      py      :     0.017617
 12 O s       :     3.804101  s :     3.804101
      pz      :     1.491672  p :     4.865090
      px      :     1.811633
      py      :     1.561786
      dz2     :     0.016965  d :     0.052028
      dxz     :     0.008382
      dyz     :     0.006625
      dx2y2   :     0.007604
      dxy     :     0.012451
      f0      :     0.000647  f :     0.004052
      f+1     :     0.000540
      f-1     :     0.000746
      f+2     :     0.000416
      f-2     :     0.000421
      f+3     :     0.000847
      f-3     :     0.000436
 13 H s       :     0.611224  s :     0.611224
      pz      :     0.018905  p :     0.046312
      px      :     0.014515
      py      :     0.012892
 14 H s       :     0.576922  s :     0.576922
      pz      :     0.010812  p :     0.051805
      px      :     0.017152
      py      :     0.023842
 15 O s       :     3.802540  s :     3.802540
      pz      :     1.719476  p :     4.877059
      px      :     1.786240
      py      :     1.371343
      dz2     :     0.009485  d :     0.051298
      dxz     :     0.011014
      dyz     :     0.009771
      dx2y2   :     0.008036
      dxy     :     0.012992
      f0      :     0.000457  f :     0.004048
      f+1     :     0.000547
      f-1     :     0.000696
      f+2     :     0.000433
      f-2     :     0.000713
      f+3     :     0.000738
      f-3     :     0.000465
 16 H s       :     0.579402  s :     0.579402
      pz      :     0.017376  p :     0.046432
      px      :     0.015362
      py      :     0.013694
 17 H s       :     0.581816  s :     0.581816
      pz      :     0.011332  p :     0.042114
      px      :     0.012847
      py      :     0.017935


                     *******************************
                     * LOEWDIN POPULATION ANALYSIS *
                     *******************************

----------------------
LOEWDIN ATOMIC CHARGES
----------------------
   0 O :   -0.291901
   1 H :    0.165220
   2 H :    0.192123
   3 O :   -0.305178
   4 H :    0.157565
   5 H :    0.171998
   6 O :   -0.350201
   7 H :    0.148544
   8 H :    0.143698
   9 O :   -0.356875
  10 H :    0.155097
  11 H :    0.139439
  12 O :   -0.346789
  13 H :    0.161251
  14 H :    0.149933
  15 O :   -0.291934
  16 H :    0.167523
  17 H :    0.190487

-------------------------------
LOEWDIN REDUCED ORBITAL CHARGES
-------------------------------
  0 O s       :     3.459112  s :     3.459112
      pz      :     1.675996  p :     4.767916
      px      :     1.356521
      py      :     1.735399
      dz2     :     0.011220  d :     0.060039
      dxz     :     0.012396
      dyz     :     0.011183
      dx2y2   :     0.009791
      dxy     :     0.015449
      f0      :     0.000476  f :     0.004834
      f+1     :     0.000859
      f-1     :     0.000658
      f+2     :     0.000409
      f-2     :     0.001009
      f+3     :     0.000475
      f-3     :     0.000947
  1 H s       :     0.667668  s :     0.667668
      pz      :     0.067970  p :     0.167111
      px      :     0.045362
      py      :     0.053780
  2 H s       :     0.655843  s :     0.655843
      pz      :     0.034132  p :     0.152034
      px      :     0.073516
      py      :     0.044386
  3 O s       :     3.460046  s :     3.460046
      pz      :     1.566095  p :     4.780410
      px      :     1.771944
      py      :     1.442372
      dz2     :     0.020135  d :     0.059899
      dxz     :     0.006911
      dyz     :     0.009127
      dx2y2   :     0.011231
      dxy     :     0.012495
      f0      :     0.000743  f :     0.004823
      f+1     :     0.000599
      f-1     :     0.001154
      f+2     :     0.000411
      f-2     :     0.000415
      f+3     :     0.001047
      f-3     :     0.000454
  4 H s       :     0.667093  s :     0.667093
      pz      :     0.095300  p :     0.175343
      px      :     0.043465
      py      :     0.036578
  5 H s       :     0.670819  s :     0.670819
      pz      :     0.031350  p :     0.157183
      px      :     0.050299
      py      :     0.075534
  6 O s       :     3.454078  s :     3.454078
      pz      :     1.537206  p :     4.833440
      px      :     1.468899
      py      :     1.827336
      dz2     :     0.019841  d :     0.057937
      dxz     :     0.009399
      dyz     :     0.007182
      dx2y2   :     0.009554
      dxy     :     0.011961
      f0      :     0.000786  f :     0.004746
      f+1     :     0.001139
      f-1     :     0.000575
      f+2     :     0.000415
      f-2     :     0.000417
      f+3     :     0.000444
      f-3     :     0.000971
  7 H s       :     0.676589  s :     0.676589
      pz      :     0.092771  p :     0.174866
      px      :     0.037938
      py      :     0.044157
  8 H s       :     0.668057  s :     0.668057
      pz      :     0.031381  p :     0.188245
      px      :     0.103356
      py      :     0.053507
  9 O s       :     3.456970  s :     3.456970
      pz      :     1.529912  p :     4.836724
      px      :     1.526559
      py      :     1.780252
      dz2     :     0.020472  d :     0.058367
      dxz     :     0.007199
      dyz     :     0.007667
      dx2y2   :     0.007785
      dxy     :     0.015244
      f0      :     0.000852  f :     0.004814
      f+1     :     0.000969
      f-1     :     0.000704
      f+2     :     0.000389
      f-2     :     0.000420
      f+3     :     0.000376
      f-3     :     0.001103
 10 H s       :     0.670110  s :     0.670110
      pz      :     0.094965  p :     0.174793
      px      :     0.037193
      py      :     0.042634
 11 H s       :     0.685364  s :     0.685364
      pz      :     0.032642  p :     0.175197
      px      :     0.083706
      py      :     0.058849
 12 O s       :     3.462899  s :     3.462899
      pz      :     1.499157  p :     4.819613
      px      :     1.783488
      py      :     1.536967
      dz2     :     0.021877  d :     0.059395
      dxz     :     0.007777
      dyz     :     0.007456
      dx2y2   :     0.007591
      dxy     :     0.014694
      f0      :     0.000910  f :     0.004883
      f+1     :     0.000711
      f-1     :     0.001000
      f+2     :     0.000389
      f-2     :     0.000422
      f+3     :     0.001074
      f-3     :     0.000377
 13 H s       :     0.677279  s :     0.677279
      pz      :     0.081418  p :     0.161471
      px      :     0.043086
      py      :     0.036967
 14 H s       :     0.674796  s :     0.674796
      pz      :     0.030536  p :     0.175271
      px      :     0.058807
      py      :     0.085928
 15 O s       :     3.459053  s :     3.459053
      pz      :     1.674923  p :     4.768098
      px      :     1.737509
      py      :     1.355666
      dz2     :     0.011103  d :     0.059949
      dxz     :     0.011137
      dyz     :     0.012152
      dx2y2   :     0.009815
      dxy     :     0.015742
      f0      :     0.000472  f :     0.004834
      f+1     :     0.000660
      f-1     :     0.000859
      f+2     :     0.000409
      f-2     :     0.001003
      f+3     :     0.000957
      f-3     :     0.000475
 16 H s       :     0.665386  s :     0.665386
      pz      :     0.067813  p :     0.167091
      px      :     0.053917
      py      :     0.045362
 17 H s       :     0.657665  s :     0.657665
      pz      :     0.034099  p :     0.151847
      px      :     0.044538
      py      :     0.073210


                      *****************************
                      * MAYER POPULATION ANALYSIS *
                      *****************************

  NA   - Mulliken gross atomic population
  ZA   - Total nuclear charge
  QA   - Mulliken gross atomic charge
  VA   - Mayer's total valence
  BVA  - Mayer's bonded valence
  FA   - Mayer's free valence

  ATOM       NA         ZA         QA         VA         BVA        FA
  0 O      8.7346     8.0000    -0.7346     2.0677     1.6758     0.3919
  1 H      0.6311     1.0000     0.3689     0.8834     0.8385     0.0449
  2 H      0.6180     1.0000     0.3820     0.8720     0.8253     0.0467
  3 O      8.7252     8.0000    -0.7252     2.0621     1.6717     0.3904
  4 H      0.6046     1.0000     0.3954     0.8747     0.8313     0.0434
  5 H      0.6482     1.0000     0.3518     0.8955     0.8472     0.0483
  6 O      8.7674     8.0000    -0.7674     2.0057     1.6109     0.3948
  7 H      0.6246     1.0000     0.3754     0.8898     0.8446     0.0452
  8 H      0.6362     1.0000     0.3638     0.9104     0.8620     0.0484
  9 O      8.7473     8.0000    -0.7473     2.0399     1.6500     0.3899
 10 H      0.6135     1.0000     0.3865     0.8832     0.8391     0.0441
 11 H      0.6532     1.0000     0.3468     0.9099     0.8623     0.0476
 12 O      8.7253     8.0000    -0.7253     2.0542     1.6668     0.3874
 13 H      0.6575     1.0000     0.3425     0.9024     0.8547     0.0477
 14 H      0.6287     1.0000     0.3713     0.8946     0.8493     0.0453
 15 O      8.7349     8.0000    -0.7349     2.0679     1.6761     0.3919
 16 H      0.6258     1.0000     0.3742     0.8797     0.8353     0.0444
 17 H      0.6239     1.0000     0.3761     0.8778     0.8306     0.0472

  Mayer bond orders larger than 0.100000
B(  0-O ,  1-H ) :   0.8300 B(  0-O ,  2-H ) :   0.8146 B(  3-O ,  4-H ) :   0.7997 
B(  3-O ,  5-H ) :   0.8390 B(  6-O ,  7-H ) :   0.8199 B(  6-O ,  8-H ) :   0.7925 
B(  9-O , 10-H ) :   0.8096 B(  9-O , 11-H ) :   0.8420 B( 12-O , 13-H ) :   0.8495 
B( 12-O , 14-H ) :   0.8204 B( 15-O , 16-H ) :   0.8268 B( 15-O , 17-H ) :   0.8183 



                *******************************************
                * RELAXED MP2 DENSITY POPULATION ANALYSIS *
                *******************************************

------------------------------------------------------------------------------
                           ORCA POPULATION ANALYSIS
------------------------------------------------------------------------------
Input electron density              ... 12h2o.su.etal.mol0,4,6,8,9,10-orca.engrad-mp2.def2tzvp.frozencore.pmp2re
BaseName (.gbw .S,...)              ... 12h2o.su.etal.mol0,4,6,8,9,10-orca.engrad-mp2.def2tzvp.frozencore

                    ********************************
                    * MULLIKEN POPULATION ANALYSIS *
                    ********************************

-----------------------
MULLIKEN ATOMIC CHARGES
-----------------------
   0 O :   -0.712712
   1 H :    0.361781
   2 H :    0.374416
   3 O :   -0.697725
   4 H :    0.380660
   5 H :    0.345672
   6 O :   -0.739877
   7 H :    0.360742
   8 H :    0.341467
   9 O :   -0.725645
  10 H :    0.372444
  11 H :    0.332810
  12 O :   -0.708564
  13 H :    0.335886
  14 H :    0.355862
  15 O :   -0.713101
  16 H :    0.367047
  17 H :    0.368837
Sum of atomic charges:    0.0000000

--------------------------------
MULLIKEN REDUCED ORBITAL CHARGES
--------------------------------
  0 O s       :     3.807398  s :     3.807398
      pz      :     1.711482  p :     4.852100
      px      :     1.370934
      py      :     1.769683
      dz2     :     0.009447  d :     0.049242
      dxz     :     0.009380
      dyz     :     0.010723
      dx2y2   :     0.007778
      dxy     :     0.011914
      f0      :     0.000456  f :     0.003972
      f+1     :     0.000679
      f-1     :     0.000539
      f+2     :     0.000431
      f-2     :     0.000692
      f+3     :     0.000463
      f-3     :     0.000713
  1 H s       :     0.590975  s :     0.590975
      pz      :     0.017616  p :     0.047244
      px      :     0.013624
      py      :     0.016004
  2 H s       :     0.583027  s :     0.583027
      pz      :     0.012078  p :     0.042556
      px      :     0.016962
      py      :     0.013517
  3 O s       :     3.798107  s :     3.798107
      pz      :     1.586927  p :     4.845354
      px      :     1.816077
      py      :     1.442351
      dz2     :     0.015575  d :     0.050359
      dxz     :     0.007969
      dyz     :     0.007960
      dx2y2   :     0.008820
      dxy     :     0.010035
      f0      :     0.000526  f :     0.003905
      f+1     :     0.000486
      f-1     :     0.000795
      f+2     :     0.000433
      f-2     :     0.000405
      f+3     :     0.000785
      f-3     :     0.000475
  4 H s       :     0.568979  s :     0.568979
      pz      :     0.024233  p :     0.050360
      px      :     0.014329
      py      :     0.011798
  5 H s       :     0.609163  s :     0.609163
      pz      :     0.011674  p :     0.045165
      px      :     0.015773
      py      :     0.017718
  6 O s       :     3.799977  s :     3.799977
      pz      :     1.558331  p :     4.887556
      px      :     1.469748
      py      :     1.859476
      dz2     :     0.014361  d :     0.048416
      dxz     :     0.007743
      dyz     :     0.008052
      dx2y2   :     0.008194
      dxy     :     0.010066
      f0      :     0.000562  f :     0.003928
      f+1     :     0.000766
      f-1     :     0.000488
      f+2     :     0.000442
      f-2     :     0.000403
      f+3     :     0.000482
      f-3     :     0.000785
  7 H s       :     0.587752  s :     0.587752
      pz      :     0.023327  p :     0.051506
      px      :     0.012795
      py      :     0.015385
  8 H s       :     0.602399  s :     0.602399
      pz      :     0.011072  p :     0.056134
      px      :     0.027750
      py      :     0.017311
  9 O s       :     3.797679  s :     3.797679
      pz      :     1.544357  p :     4.874396
      px      :     1.531187
      py      :     1.798852
      dz2     :     0.015237  d :     0.049618
      dxz     :     0.006602
      dyz     :     0.008353
      dx2y2   :     0.007643
      dxy     :     0.011782
      f0      :     0.000613  f :     0.003951
      f+1     :     0.000718
      f-1     :     0.000525
      f+2     :     0.000417
      f-2     :     0.000420
      f+3     :     0.000436
      f-3     :     0.000821
 10 H s       :     0.576966  s :     0.576966
      pz      :     0.023723  p :     0.050590
      px      :     0.012545
      py      :     0.014322
 11 H s       :     0.614023  s :     0.614023
      pz      :     0.012288  p :     0.053167
      px      :     0.022741
      py      :     0.018138
 12 O s       :     3.805240  s :     3.805240
      pz      :     1.484716  p :     4.849440
      px      :     1.804984
      py      :     1.559740
      dz2     :     0.015626  d :     0.049903
      dxz     :     0.008337
      dyz     :     0.006565
      dx2y2   :     0.007567
      dxy     :     0.011808
      f0      :     0.000629  f :     0.003980
      f+1     :     0.000529
      f-1     :     0.000724
      f+2     :     0.000416
      f-2     :     0.000420
      f+3     :     0.000825
      f-3     :     0.000436
 13 H s       :     0.617064  s :     0.617064
      pz      :     0.018146  p :     0.047050
      px      :     0.015442
      py      :     0.013462
 14 H s       :     0.591760  s :     0.591760
      pz      :     0.011475  p :     0.052377
      px      :     0.017590
      py      :     0.023312
 15 O s       :     3.806277  s :     3.806277
      pz      :     1.709886  p :     4.853688
      px      :     1.775554
      py      :     1.368248
      dz2     :     0.009257  d :     0.049161
      dxz     :     0.010759
      dyz     :     0.009188
      dx2y2   :     0.007810
      dxy     :     0.012147
      f0      :     0.000455  f :     0.003975
      f+1     :     0.000538
      f-1     :     0.000677
      f+2     :     0.000432
      f-2     :     0.000692
      f+3     :     0.000717
      f-3     :     0.000464
 16 H s       :     0.585846  s :     0.585846
      pz      :     0.017460  p :     0.047107
      px      :     0.016036
      py      :     0.013611
 17 H s       :     0.588506  s :     0.588506
      pz      :     0.012141  p :     0.042658
      px      :     0.013556
      py      :     0.016960


                     *******************************
                     * LOEWDIN POPULATION ANALYSIS *
                     *******************************

----------------------
LOEWDIN ATOMIC CHARGES
----------------------
   0 O :   -0.286559
   1 H :    0.166783
   2 H :    0.192865
   3 O :   -0.299252
   4 H :    0.153417
   5 H :    0.173592
   6 O :   -0.347328
   7 H :    0.144907
   8 H :    0.137352
   9 O :   -0.356836
  10 H :    0.151503
  11 H :    0.136024
  12 O :   -0.348743
  13 H :    0.162720
  14 H :    0.145618
  15 O :   -0.286566
  16 H :    0.169072
  17 H :    0.191429

-------------------------------
LOEWDIN REDUCED ORBITAL CHARGES
-------------------------------
  0 O s       :     3.461014  s :     3.461014
      pz      :     1.671203  p :     4.761658
      px      :     1.361562
      py      :     1.728893
      dz2     :     0.011187  d :     0.059033
      dxz     :     0.012037
      dyz     :     0.011179
      dx2y2   :     0.009598
      dxy     :     0.015032
      f0      :     0.000480  f :     0.004854
      f+1     :     0.000865
      f-1     :     0.000659
      f+2     :     0.000410
      f-2     :     0.001010
      f+3     :     0.000478
      f-3     :     0.000953
  1 H s       :     0.666328  s :     0.666328
      pz      :     0.068017  p :     0.166889
      px      :     0.044581
      py      :     0.054290
  2 H s       :     0.655241  s :     0.655241
      pz      :     0.034833  p :     0.151895
      px      :     0.072043
      py      :     0.045019
  3 O s       :     3.461211  s :     3.461211
      pz      :     1.567097  p :     4.774227
      px      :     1.761767
      py      :     1.445363
      dz2     :     0.019679  d :     0.058973
      dxz     :     0.006987
      dyz     :     0.008935
      dx2y2   :     0.011100
      dxy     :     0.012272
      f0      :     0.000744  f :     0.004842
      f+1     :     0.000600
      f-1     :     0.001162
      f+2     :     0.000413
      f-2     :     0.000414
      f+3     :     0.001053
      f-3     :     0.000457
  4 H s       :     0.670986  s :     0.670986
      pz      :     0.094748  p :     0.175597
      px      :     0.044246
      py      :     0.036603
  5 H s       :     0.669036  s :     0.669036
      pz      :     0.031931  p :     0.157372
      px      :     0.050917
      py      :     0.074524
  6 O s       :     3.454947  s :     3.454947
      pz      :     1.535173  p :     4.830274
      px      :     1.470635
      py      :     1.824466
      dz2     :     0.019539  d :     0.057325
      dxz     :     0.009215
      dyz     :     0.007249
      dx2y2   :     0.009496
      dxy     :     0.011826
      f0      :     0.000791  f :     0.004782
      f+1     :     0.001152
      f-1     :     0.000576
      f+2     :     0.000417
      f-2     :     0.000416
      f+3     :     0.000447
      f-3     :     0.000984
  7 H s       :     0.679715  s :     0.679715
      pz      :     0.092166  p :     0.175379
      px      :     0.038110
      py      :     0.045103
  8 H s       :     0.673572  s :     0.673572
      pz      :     0.031866  p :     0.189075
      px      :     0.102999
      py      :     0.054210
  9 O s       :     3.457643  s :     3.457643
      pz      :     1.531038  p :     4.836953
      px      :     1.527683
      py      :     1.778233
      dz2     :     0.019944  d :     0.057402
      dxz     :     0.007085
      dyz     :     0.007686
      dx2y2   :     0.007752
      dxy     :     0.014935
      f0      :     0.000856  f :     0.004837
      f+1     :     0.000978
      f-1     :     0.000703
      f+2     :     0.000390
      f-2     :     0.000420
      f+3     :     0.000376
      f-3     :     0.001113
 10 H s       :     0.673426  s :     0.673426
      pz      :     0.094100  p :     0.175071
      px      :     0.037553
      py      :     0.043418
 11 H s       :     0.687853  s :     0.687853
      pz      :     0.033247  p :     0.176122
      px      :     0.083327
      py      :     0.059548
 12 O s       :     3.464246  s :     3.464246
      pz      :     1.500940  p :     4.821344
      px      :     1.781567
      py      :     1.538837
      dz2     :     0.021152  d :     0.058249
      dxz     :     0.007789
      dyz     :     0.007309
      dx2y2   :     0.007563
      dxy     :     0.014436
      f0      :     0.000911  f :     0.004904
      f+1     :     0.000709
      f-1     :     0.001010
      f+2     :     0.000391
      f-2     :     0.000421
      f+3     :     0.001085
      f-3     :     0.000377
 13 H s       :     0.675612  s :     0.675612
      pz      :     0.080576  p :     0.161668
      px      :     0.043905
      py      :     0.037186
 14 H s       :     0.678561  s :     0.678561
      pz      :     0.030928  p :     0.175820
      px      :     0.059415
      py      :     0.085477
 15 O s       :     3.460896  s :     3.460896
      pz      :     1.669776  p :     4.761888
      px      :     1.731239
      py      :     1.360874
      dz2     :     0.011051  d :     0.058928
      dxz     :     0.011131
      dyz     :     0.011799
      dx2y2   :     0.009635
      dxy     :     0.015312
      f0      :     0.000475  f :     0.004853
      f+1     :     0.000660
      f-1     :     0.000864
      f+2     :     0.000409
      f-2     :     0.001003
      f+3     :     0.000963
      f-3     :     0.000478
 16 H s       :     0.664126  s :     0.664126
      pz      :     0.067726  p :     0.166802
      px      :     0.054493
      py      :     0.044583
 17 H s       :     0.656797  s :     0.656797
      pz      :     0.034756  p :     0.151774
      px      :     0.045257
      py      :     0.071761


                      *****************************
                      * MAYER POPULATION ANALYSIS *
                      *****************************

  NA   - Mulliken gross atomic population
  ZA   - Total nuclear charge
  QA   - Mulliken gross atomic charge
  VA   - Mayer's total valence
  BVA  - Mayer's bonded valence
  FA   - Mayer's free valence

  ATOM       NA         ZA         QA         VA         BVA        FA
  0 O      8.7127     8.0000    -0.7127     2.1055     1.7200     0.3856
  1 H      0.6382     1.0000     0.3618     0.8890     0.8442     0.0448
  2 H      0.6256     1.0000     0.3744     0.8797     0.8331     0.0466
  3 O      8.6977     8.0000    -0.6977     2.0991     1.7148     0.3843
  4 H      0.6193     1.0000     0.3807     0.8951     0.8521     0.0431
  5 H      0.6543     1.0000     0.3457     0.9011     0.8528     0.0482
  6 O      8.7399     8.0000    -0.7399     2.0314     1.6423     0.3891
  7 H      0.6393     1.0000     0.3607     0.9081     0.8632     0.0449
  8 H      0.6585     1.0000     0.3415     0.9392     0.8919     0.0473
  9 O      8.7256     8.0000    -0.7256     2.0574     1.6726     0.3848
 10 H      0.6276     1.0000     0.3724     0.9021     0.8583     0.0438
 11 H      0.6672     1.0000     0.3328     0.9292     0.8819     0.0473
 12 O      8.7086     8.0000    -0.7086     2.0633     1.6807     0.3825
 13 H      0.6641     1.0000     0.3359     0.9076     0.8599     0.0477
 14 H      0.6441     1.0000     0.3559     0.9162     0.8712     0.0449
 15 O      8.7131     8.0000    -0.7131     2.1062     1.7206     0.3855
 16 H      0.6330     1.0000     0.3670     0.8854     0.8411     0.0443
 17 H      0.6312     1.0000     0.3688     0.8854     0.8383     0.0471

  Mayer bond orders larger than 0.100000
B(  0-O ,  1-H ) :   0.8334 B(  0-O ,  2-H ) :   0.8182 B(  3-O ,  4-H ) :   0.8043 
B(  3-O ,  5-H ) :   0.8417 B(  6-O ,  7-H ) :   0.8248 B(  6-O ,  8-H ) :   0.7900 
B(  9-O , 10-H ) :   0.8149 B(  9-O , 11-H ) :   0.8459 B( 12-O , 13-H ) :   0.8532 
B( 12-O , 14-H ) :   0.8249 B( 15-O , 16-H ) :   0.8304 B( 15-O , 17-H ) :   0.8216 



----------------------------------
MP2 DERIVATIVE INTEGRAL GENERATION
----------------------------------


Input Wavefunction Amplitudes       ... 12h2o.su.etal.mol0,4,6,8,9,10-orca.engrad-mp2.def2tzvp.frozencore.mp2tsaa.tmp
Input Correlated Electron Density   ... 12h2o.su.etal.mol0,4,6,8,9,10-orca.engrad-mp2.def2tzvp.frozencore.pmp2re
Input Energy Weighted Density       ... 12h2o.su.etal.mol0,4,6,8,9,10-orca.engrad-mp2.def2tzvp.frozencore.wmp2.tmp
Input SCF Electron Density          ... 12h2o.su.etal.mol0,4,6,8,9,10-orca.engrad-mp2.def2tzvp.frozencore.scfp

One-Electron Terms    ...
                        ... One-Electron Terms done
Prescreening matrices              ... done

Batch handling in the gradient evaluation:
Memory available                      ... 8000.0 MB
Memory per occupied orbital in Q2     ...   12.2 MB
Memory per occupied orbital in Q3     ...    0.1 MB
Total memory requirement per |i>      ...   12.3 MB
Max. Number of orbitals possible      ...    651
Number of orbitals treated per batch  ...     24
Number of batches to be done          ...      1
Batch   0: i=    6 ...    29

---------------------------------------
MP2 TOTAL ENERGY:     -457.918699876 Eh
---------------------------------------

The final MP2 gradient
  0:   0.02512492  -0.00897927  -0.00275262
  1:   0.00023088  -0.00242544  -0.00283676
  2:  -0.02558351   0.00819517   0.00148598
  3:   0.01038264   0.01540217   0.00026453
  4:  -0.00107524   0.00163386  -0.00050833
  5:  -0.00637207  -0.01693257  -0.00222296
  6:   0.00344949  -0.00538719  -0.00408872
  7:   0.00219379   0.00260458   0.00669078
  8:  -0.00927491   0.00388090  -0.00119401
  9:   0.00628140  -0.00539075   0.00161048
 10:   0.00147410   0.00359872   0.00111675
 11:  -0.01127012   0.00346865  -0.00182794
 12:  -0.00278668  -0.00171975   0.00782405
 13:   0.00077522  -0.00334048  -0.00895872
 14:   0.00184204   0.00635920   0.00260173
 15:   0.01268693   0.02476504  -0.00169425
 16:   0.00216099  -0.00001216   0.00323983
 17:  -0.01023986  -0.02572068   0.00125019

-----------------------------------
NORM OF THE MP2 GRADIENT:  0.066030
-----------------------------------

-------------------------   --------------------
FINAL SINGLE POINT ENERGY      -457.918699875880
-------------------------   --------------------


                            ***************************************
                            *     ORCA property calculations      *
                            ***************************************

                                    ---------------------
                                    Active property flags
                                    ---------------------
   (+) Dipole Moment


------------------------------------------------------------------------------
                       ORCA ELECTRIC PROPERTIES CALCULATION
------------------------------------------------------------------------------

Dipole Moment Calculation                       ... on
Quadrupole Moment Calculation                   ... off
Polarizability Calculation                      ... off
GBWName                                         ... 12h2o.su.etal.mol0,4,6,8,9,10-orca.engrad-mp2.def2tzvp.frozencore.gbw
Electron density file                           ... 12h2o.su.etal.mol0,4,6,8,9,10-orca.engrad-mp2.def2tzvp.frozencore.scfp
The origin for moment calculation is the CENTER OF MASS  = ( 1.290367,  1.393390 -0.000000)

-------------
DIPOLE MOMENT
-------------
                                X             Y             Z
Electronic contribution:     -0.01097       0.11805       0.12071
Nuclear contribution   :     -1.78578       1.39034       0.00000
                        -----------------------------------------
Total Dipole Moment    :     -1.79675       1.50839       0.12071
                        -----------------------------------------
Magnitude (a.u.)       :      2.34907
Magnitude (Debye)      :      5.97086



--------------------
Rotational spectrum 
--------------------
 
Rotational constants in cm-1:     0.073623     0.022625     0.020897 
Rotational constants in MHz :  2207.171350   678.286163   626.490548 

 Dipole components along the rotational axes: 
x,y,z [a.u.] :    -0.747679     2.100503    -0.739588 
x,y,z [Debye]:    -1.900449     5.339054    -1.879884 

 

                         *** MP2 UNRELAXED DENSITY ***

------------------------------------------------------------------------------
                       ORCA ELECTRIC PROPERTIES CALCULATION
------------------------------------------------------------------------------

Dipole Moment Calculation                       ... on
Quadrupole Moment Calculation                   ... off
Polarizability Calculation                      ... off
GBWName                                         ... 12h2o.su.etal.mol0,4,6,8,9,10-orca.engrad-mp2.def2tzvp.frozencore.gbw
Electron density file                           ... 12h2o.su.etal.mol0,4,6,8,9,10-orca.engrad-mp2.def2tzvp.frozencore.pmp2ur
The origin for moment calculation is the CENTER OF MASS  = ( 1.290367,  1.393390 -0.000000)

-------------
DIPOLE MOMENT
-------------
                                X             Y             Z
Electronic contribution:      0.00551       0.10693       0.12131
Nuclear contribution   :     -1.78578       1.39034       0.00000
                        -----------------------------------------
Total Dipole Moment    :     -1.78026       1.49727       0.12131
                        -----------------------------------------
Magnitude (a.u.)       :      2.32935
Magnitude (Debye)      :      5.92074



--------------------
Rotational spectrum 
--------------------
 
Rotational constants in cm-1:     0.073623     0.022625     0.020897 
Rotational constants in MHz :  2207.171350   678.286163   626.490548 

 Dipole components along the rotational axes: 
x,y,z [a.u.] :    -0.740130     2.082519    -0.735667 
x,y,z [Debye]:    -1.881260     5.293343    -1.869918 

 

                           *** MP2 RELAXED DENSITY ***

------------------------------------------------------------------------------
                       ORCA ELECTRIC PROPERTIES CALCULATION
------------------------------------------------------------------------------

Dipole Moment Calculation                       ... on
Quadrupole Moment Calculation                   ... off
Polarizability Calculation                      ... off
GBWName                                         ... 12h2o.su.etal.mol0,4,6,8,9,10-orca.engrad-mp2.def2tzvp.frozencore.gbw
Electron density file                           ... 12h2o.su.etal.mol0,4,6,8,9,10-orca.engrad-mp2.def2tzvp.frozencore.pmp2re
The origin for moment calculation is the CENTER OF MASS  = ( 1.290367,  1.393390 -0.000000)

-------------
DIPOLE MOMENT
-------------
                                X             Y             Z
Electronic contribution:      0.00650       0.09328       0.11986
Nuclear contribution   :     -1.78578       1.39034       0.00000
                        -----------------------------------------
Total Dipole Moment    :     -1.77927       1.48362       0.11986
                        -----------------------------------------
Magnitude (a.u.)       :      2.31977
Magnitude (Debye)      :      5.89638



--------------------
Rotational spectrum 
--------------------
 
Rotational constants in cm-1:     0.073623     0.022625     0.020897 
Rotational constants in MHz :  2207.171350   678.286163   626.490548 

 Dipole components along the rotational axes: 
x,y,z [a.u.] :    -0.736809     2.077297    -0.723374 
x,y,z [Debye]:    -1.872819     5.280069    -1.838670 

 

Timings for individual modules:

Sum of individual times         ...       63.976 sec (=   1.066 min)
GTO integral calculation        ...        0.936 sec (=   0.016 min)   1.5 %
SCF iterations                  ...       12.727 sec (=   0.212 min)  19.9 %
MP2 module                      ...       50.313 sec (=   0.839 min)  78.6 %
                             ****ORCA TERMINATED NORMALLY****
TOTAL RUN TIME: 0 days 0 hours 1 minutes 4 seconds 968 msec
