16
Energy:   -460.84767198
O    0.90966699   1.25895176   0.86583161
H    1.00813400   1.81369053   1.63965394
H    0.45817068   1.81308022   0.22918055
O   -1.02088328  -0.38802211  -1.18810350
H   -0.97924933   0.56491850  -1.26812009
H   -1.56838140  -0.66679480  -1.92210857
O   -0.60084410   2.40469851  -1.23230434
H   -0.12161390   2.80863788  -1.95577048
H   -1.30692795   3.02117163  -1.03829828
O    1.90717671  -1.19675681   0.19549003
H    1.96430504  -0.27291649   0.43939013
H    2.81682542  -1.47077829   0.07851436
O   -1.00716089  -2.50784233   1.41198901
H   -1.94374679  -2.59339092   1.59009049
H   -0.59567129  -3.16906987   1.96848367
Li  -0.02530703  -1.33706983   0.17731594
