16
Energy:   -465.94158426
O    0.43178550  -2.38026206  -0.00974036
H    0.32023241  -2.89038435   0.79248343
H    0.93784945  -2.95060678  -0.58839226
O   -2.32356907  -1.18359981  -1.10211226
H   -2.84491947  -0.67321194  -1.72173297
H   -2.85528603  -1.95905757  -0.92274063
O   -0.75667896   0.57714585   0.96885502
H   -0.11789959   1.27169080   1.12947904
H   -1.59027474   0.94533168   1.26175282
O    1.31364335   0.55613545  -1.20205476
H    1.80778707   0.76169752  -1.99565294
H    1.44707632   1.31426371  -0.63313557
O    1.39783978   2.29496267   1.16391279
H    1.89772872   1.80656572   1.81798566
H    1.27534651   3.16092332   1.55293644
Li  -0.42308838  -0.65147043  -0.46579017
