16
Energy:   -486.80841707
O    1.49792429  -0.30259741  -1.98104865
H    1.57870393   0.37845141  -2.64879037
H    1.71549457  -1.11457048  -2.43886384
O   -0.69224087   1.30221556  -0.15963807
H   -1.52758614   0.90169619   0.08122366
H   -0.90796735   2.21716027  -0.34010998
O    2.27855220   0.78286354   0.84387471
H    2.14780946   1.22757440   1.68135332
H    3.22890429   0.75394113   0.73330232
O   -2.86937622  -0.16553798   0.62996873
H   -3.30554093   0.02697392   1.45998763
H   -3.58468930  -0.32750819   0.01488769
O    0.04189000  -1.61021336   0.59576585
H   -0.88842996  -1.68807378   0.80712898
H    0.43436937  -2.41206165   0.94106442
Li   0.80312399   0.02934103  -0.20450154
