
                                 *****************
                                 * O   R   C   A *
                                 *****************

           --- An Ab Initio, DFT and Semiempirical electronic structure package ---

                  #######################################################
                  #                        -***-                        #
                  #          Department of theory and spectroscopy      #
                  #               Directorship: Frank Neese             #
                  #        Max Planck Institute fuer Kohlenforschung    #
                  #                Kaiser Wilhelm Platz 1               #
                  #                 D-45470 Muelheim/Ruhr               #
                  #                      Germany                        #
                  #                                                     #
                  #                  All rights reserved                #
                  #                        -***-                        #
                  #######################################################


                         Program Version 4.2.0 -  RELEASE  -


 With contributions from (in alphabetic order):
   Daniel Aravena         : Magnetic Suceptibility
   Michael Atanasov       : Ab Initio Ligand Field Theory (pilot matlab implementation)
   Alexander A. Auer      : GIAO ZORA, VPT2
   Ute Becker             : Parallelization
   Giovanni Bistoni       : ED, misc. LED, open-shell LED, HFLED
   Martin Brehm           : Molecular dynamics
   Dmytro Bykov           : SCF Hessian
   Vijay G. Chilkuri      : MRCI spin determinant printing, contributions to CSF-ICE
   Dipayan Datta          : RHF DLPNO-CCSD density
   Achintya Kumar Dutta   : EOM-CC, STEOM-CC
   Dmitry Ganyushin       : Spin-Orbit,Spin-Spin,Magnetic field MRCI
   Miquel Garcia          : C-PCM Hessian, Gaussian charge scheme
   Yang Guo               : DLPNO-NEVPT2, CIM, IAO-localization
   Andreas Hansen         : Spin unrestricted coupled pair/coupled cluster methods
   Benjamin Helmich-Paris : CASSCF linear response (MC-RPA)
   Lee Huntington         : MR-EOM, pCC
   Robert Izsak           : Overlap fitted RIJCOSX, COSX-SCS-MP3, EOM
   Christian Kollmar      : KDIIS, OOCD, Brueckner-CCSD(T), CCSD density
   Simone Kossmann        : Meta GGA functionals, TD-DFT gradient, OOMP2, MP2 Hessian
   Martin Krupicka        : AUTO-CI
   Lucas Lang             : DCDCAS
   Dagmar Lenk            : GEPOL surface, SMD
   Dimitrios Liakos       : Extrapolation schemes; Compound Job, initial MDCI parallelization
   Dimitrios Manganas     : Further ROCIS development; embedding schemes
   Dimitrios Pantazis     : SARC Basis sets
   Taras Petrenko         : DFT Hessian,TD-DFT gradient, ASA, ECA, R-Raman, ABS, FL, XAS/XES, NRVS
   Peter Pinski           : DLPNO-MP2, DLPNO-MP2 Gradient
   Christoph Reimann      : Effective Core Potentials
   Marius Retegan         : Local ZFS, SOC
   Christoph Riplinger    : Optimizer, TS searches, QM/MM, DLPNO-CCSD(T), (RO)-DLPNO pert. Triples
   Tobias Risthaus        : Range-separated hybrids, TD-DFT gradient, RPA, STAB
   Michael Roemelt        : Original ROCIS implementation
   Masaaki Saitow         : Open-shell DLPNO-CCSD energy and density
   Barbara Sandhoefer     : DKH picture change effects
   Avijit Sen             : IP-ROCIS
   Kantharuban Sivalingam : CASSCF convergence, NEVPT2, FIC-MRCI
   Bernardo de Souza      : ESD, SOC TD-DFT
   Georgi Stoychev        : AutoAux, RI-MP2 NMR
   Willem Van den Heuvel  : Paramagnetic NMR
   Boris Wezisla          : Elementary symmetry handling
   Frank Wennmohs         : Technical directorship


 We gratefully acknowledge several colleagues who have allowed us to
 interface, adapt or use parts of their codes:
   Stefan Grimme, W. Hujo, H. Kruse,             : VdW corrections, initial TS optimization,
                  C. Bannwarth                     DFT functionals, gCP, sTDA/sTD-DF
   Ed Valeev, F. Pavosevic, A. Kumar             : LibInt (2-el integral package), F12 methods
   Garnet Chan, S. Sharma, J. Yang, R. Olivares  : DMRG
   Ulf Ekstrom                                   : XCFun DFT Library
   Mihaly Kallay                                 : mrcc  (arbitrary order and MRCC methods)
   Andreas Klamt, Michael Diedenhofen            : otool_cosmo (COSMO solvation model)
   Jiri Pittner, Ondrej Demel                    : Mk-CCSD
   Frank Weinhold                                : gennbo (NPA and NBO analysis)
   Christopher J. Cramer and Donald G. Truhlar   : smd solvation model
   Lars Goerigk                                  : TD-DFT with DH, B97 family of functionals
   V. Asgeirsson, H. Jonsson                     : NEB implementation
   FAccTs GmbH                                   : IRC, NEB, NEB-TS, Multilevel, MM, QM/MM, CI optimization
   S Lehtola, MJT Oliveira, MAL Marques          : LibXC Library


 Your calculation uses the libint2 library for the computation of 2-el integrals
 For citations please refer to: http://libint.valeyev.net

 Your ORCA version has been built with support for libXC version: 4.2.3
 For citations please refer to: https://tddft.org/programs/libxc/

 This ORCA versions uses:
   CBLAS   interface :  Fast vector & matrix operations
   LAPACKE interface :  Fast linear algebra routines
   SCALAPACK package :  Parallel linear algebra routines


----- Orbital basis set information -----
Your calculation utilizes the basis: def2-TZVP
   F. Weigend and R. Ahlrichs, Phys. Chem. Chem. Phys. 7, 3297 (2005).

================================================================================
                                        WARNINGS
                       Please study these warnings very carefully!
================================================================================


WARNING: The frozen-core approximation for MP2-gradient calculations is turned on by default.

INFO   : the flag for use of LIBINT has been found!

================================================================================
                                       INPUT FILE
================================================================================
NAME = 12h2o.su.etal.mol1,2,4,6,7,8,9,11-orca.engrad-mp2.def2tzvp.frozencore.inp
|  1> # 12h2o.su.etal.mol1,2,4,6,7,8,9,11
|  2> ! MP2 def2-TZVP EnGrad TightSCF
|  3> 
|  4> %pal
|  5>     nprocs 6
|  6> end
|  7> 
|  8> %maxcore 8000
|  9> 
| 10> %scf
| 11>     ConvForced true
| 12> end
| 13> 
| 14> *xyz 0 1
| 15> O  -1.794470000  -0.923410000   2.768350000
| 16> H  -2.338250000  -1.359750000   3.430940000
| 17> H  -0.879480000  -1.303000000   2.865760000
| 18> O   0.923410000  -1.794470000  -2.768350000
| 19> H   1.359750000  -2.338250000  -3.430940000
| 20> H   1.303000000  -0.879480000  -2.865760000
| 21> O  -0.885520000   1.737840000   0.052730000
| 22> H  -1.032320000   2.090180000  -0.841890000
| 23> H  -1.284090000   0.839590000   0.017130000
| 24> O   1.737840000   0.885520000  -0.052730000
| 25> H   2.090180000   1.032320000   0.841890000
| 26> H   0.839590000   1.284090000  -0.017130000
| 27> O  -1.737840000  -0.885520000  -0.052730000
| 28> H  -2.090180000  -1.032320000   0.841890000
| 29> H  -0.839590000  -1.284090000  -0.017130000
| 30> O   1.752130000   0.741530000  -2.896280000
| 31> H   2.036450000   0.920500000  -1.984040000
| 32> H   0.921210000   1.242140000  -2.984230000
| 33> O   0.741530000  -1.752130000   2.896280000
| 34> H   0.920500000  -2.036450000   1.984040000
| 35> H   1.242140000  -0.921210000   2.984230000
| 36> O  -0.741530000   1.752130000   2.896280000
| 37> H  -0.920500000   2.036450000   1.984040000
| 38> H  -1.242140000   0.921210000   2.984230000
| 39> *
| 40> 
| 41>                          ****END OF INPUT****
================================================================================

                     *******************************
                     * Energy+Gradient Calculation *
                     *******************************

---------------------------------
CARTESIAN COORDINATES (ANGSTROEM)
---------------------------------
  O     -1.794470   -0.923410    2.768350
  H     -2.338250   -1.359750    3.430940
  H     -0.879480   -1.303000    2.865760
  O      0.923410   -1.794470   -2.768350
  H      1.359750   -2.338250   -3.430940
  H      1.303000   -0.879480   -2.865760
  O     -0.885520    1.737840    0.052730
  H     -1.032320    2.090180   -0.841890
  H     -1.284090    0.839590    0.017130
  O      1.737840    0.885520   -0.052730
  H      2.090180    1.032320    0.841890
  H      0.839590    1.284090   -0.017130
  O     -1.737840   -0.885520   -0.052730
  H     -2.090180   -1.032320    0.841890
  H     -0.839590   -1.284090   -0.017130
  O      1.752130    0.741530   -2.896280
  H      2.036450    0.920500   -1.984040
  H      0.921210    1.242140   -2.984230
  O      0.741530   -1.752130    2.896280
  H      0.920500   -2.036450    1.984040
  H      1.242140   -0.921210    2.984230
  O     -0.741530    1.752130    2.896280
  H     -0.920500    2.036450    1.984040
  H     -1.242140    0.921210    2.984230

----------------------------
CARTESIAN COORDINATES (A.U.)
----------------------------
  NO LB      ZA    FRAG     MASS         X           Y           Z
   0 O     8.0000    0    15.999   -3.391057   -1.744992    5.231423
   1 H     1.0000    0     1.008   -4.418652   -2.569555    6.483537
   2 H     1.0000    0     1.008   -1.661976   -2.462313    5.415502
   3 O     8.0000    0    15.999    1.744992   -3.391057   -5.231423
   4 H     1.0000    0     1.008    2.569555   -4.418652   -6.483537
   5 H     1.0000    0     1.008    2.462313   -1.661976   -5.415502
   6 O     8.0000    0    15.999   -1.673390    3.284042    0.099645
   7 H     1.0000    0     1.008   -1.950802    3.949868   -1.590942
   8 H     1.0000    0     1.008   -2.426578    1.586595    0.032371
   9 O     8.0000    0    15.999    3.284042    1.673390   -0.099645
  10 H     1.0000    0     1.008    3.949868    1.950802    1.590942
  11 H     1.0000    0     1.008    1.586595    2.426578   -0.032371
  12 O     8.0000    0    15.999   -3.284042   -1.673390   -0.099645
  13 H     1.0000    0     1.008   -3.949868   -1.950802    1.590942
  14 H     1.0000    0     1.008   -1.586595   -2.426578   -0.032371
  15 O     8.0000    0    15.999    3.311046    1.401289   -5.473176
  16 H     1.0000    0     1.008    3.848333    1.739493   -3.749292
  17 H     1.0000    0     1.008    1.740835    2.347304   -5.639377
  18 O     8.0000    0    15.999    1.401289   -3.311046    5.473176
  19 H     1.0000    0     1.008    1.739493   -3.848333    3.749292
  20 H     1.0000    0     1.008    2.347304   -1.740835    5.639377
  21 O     8.0000    0    15.999   -1.401289    3.311046    5.473176
  22 H     1.0000    0     1.008   -1.739493    3.848333    3.749292
  23 H     1.0000    0     1.008   -2.347304    1.740835    5.639377

--------------------------------
INTERNAL COORDINATES (ANGSTROEM)
--------------------------------
 O      0   0   0     0.000000000000     0.00000000     0.00000000
 H      1   0   0     0.961828878803     0.00000000     0.00000000
 H      1   2   0     0.995381322057   106.21731035     0.00000000
 O      3   1   2     5.935920367146   102.58474291   140.89009172
 H      4   3   1     0.961828878803   146.97742434   224.01286022
 H      4   3   1     0.995381322057    97.62005672    87.72090689
 O      1   2   3     3.909352075396   156.75189195   192.19368952
 H      7   1   2     0.972645187106   148.25827701   289.33301105
 H      7   1   2     0.983350632989    46.29716176   266.74328444
 O      7   1   2     2.760360281485    92.13838953   170.70547830
 H     10   7   1     0.972645187106   105.22009255   298.61152741
 H     10   7   1     0.983350632989     5.92595386   222.96568013
 O      9   7   1     1.785153773264   170.81379649   273.82543867
 H     13   9   7     0.972645187106   101.65007623   109.44492584
 H     13   9   7     0.983350632989    99.09581498     3.33484705
 O      6   4   3     1.682356278379   171.61043709   321.17145860
 H     16   6   4     0.972136791249   103.79460456    70.64587838
 H     16   6   4     0.974050112161   105.61118924   321.69395179
 O      3   1   2     1.682356278379   171.61043709   195.73896161
 H     19   3   1     0.972136791249   103.79460456   289.35412162
 H     19   3   1     0.974050112161   105.61118924    38.30604821
 O      7   1   2     2.847229166523    47.26764468    83.33509555
 H     22   7   1     0.972136791249    19.08819947   225.99629915
 H     22   7   1     0.974050112161    93.43428486   350.09257904

---------------------------
INTERNAL COORDINATES (A.U.)
---------------------------
 O      0   0   0     0.000000000000     0.00000000     0.00000000
 H      1   0   0     1.817593168635     0.00000000     0.00000000
 H      1   2   0     1.880998097508   106.21731035     0.00000000
 O      3   1   2    11.217263846671   102.58474291   140.89009172
 H      4   3   1     1.817593168635   146.97742434   224.01286022
 H      4   3   1     1.880998097508    97.62005672    87.72090689
 O      1   2   3     7.387604783574   156.75189195   192.19368952
 H      7   1   2     1.838033029106   148.25827701   289.33301105
 H      7   1   2     1.858263389967    46.29716176   266.74328444
 O      7   1   2     5.216324962960    92.13838953   170.70547830
 H     10   7   1     1.838033029106   105.22009255   298.61152741
 H     10   7   1     1.858263389967     5.92595386   222.96568013
 O      9   7   1     3.373451738406   170.81379649   273.82543867
 H     13   9   7     1.838033029106   101.65007623   109.44492584
 H     13   9   7     1.858263389967    99.09581498     3.33484705
 O      6   4   3     3.179192625819   171.61043709   321.17145860
 H     16   6   4     1.837072300170   103.79460456    70.64587838
 H     16   6   4     1.840687952699   105.61118924   321.69395179
 O      3   1   2     3.179192625819   171.61043709   195.73896161
 H     19   3   1     1.837072300170   103.79460456   289.35412162
 H     19   3   1     1.840687952699   105.61118924    38.30604821
 O      7   1   2     5.380483365242    47.26764468    83.33509555
 H     22   7   1     1.837072300170    19.08819947   225.99629915
 H     22   7   1     1.840687952699    93.43428486   350.09257904

---------------------
BASIS SET INFORMATION
---------------------
There are 2 groups of distinct atoms

 Group   1 Type O   : 11s6p2d1f contracted to 5s3p2d1f pattern {62111/411/11/1}
 Group   2 Type H   : 5s1p contracted to 3s1p pattern {311/1}

Atom   0O    basis set group =>   1
Atom   1H    basis set group =>   2
Atom   2H    basis set group =>   2
Atom   3O    basis set group =>   1
Atom   4H    basis set group =>   2
Atom   5H    basis set group =>   2
Atom   6O    basis set group =>   1
Atom   7H    basis set group =>   2
Atom   8H    basis set group =>   2
Atom   9O    basis set group =>   1
Atom  10H    basis set group =>   2
Atom  11H    basis set group =>   2
Atom  12O    basis set group =>   1
Atom  13H    basis set group =>   2
Atom  14H    basis set group =>   2
Atom  15O    basis set group =>   1
Atom  16H    basis set group =>   2
Atom  17H    basis set group =>   2
Atom  18O    basis set group =>   1
Atom  19H    basis set group =>   2
Atom  20H    basis set group =>   2
Atom  21O    basis set group =>   1
Atom  22H    basis set group =>   2
Atom  23H    basis set group =>   2


           ************************************************************
           *        Program running with 6 parallel MPI-processes     *
           *              working on a common directory               *
           ************************************************************
------------------------------------------------------------------------------
                           ORCA GTO INTEGRAL CALCULATION
------------------------------------------------------------------------------

                         BASIS SET STATISTICS AND STARTUP INFO

 # of primitive gaussian shells          ...  256
 # of primitive gaussian functions       ...  496
 # of contracted shells                  ...  152
 # of contracted basis functions         ...  344
 Highest angular momentum                ...    3
 Maximum contraction depth               ...    6
 Integral package used                   ... LIBINT
 Integral threshhold            Thresh   ...  2.500e-11
 Primitive cut-off              TCut     ...  2.500e-12


------------------------------ INTEGRAL EVALUATION ----------------------------


 * One electron integrals 
 Pre-screening matrix                    ... done
 Shell pair data                         ... done (   0.002 sec)



           ************************************************************
           *        Program running with 6 parallel MPI-processes     *
           *              working on a common directory               *
           ************************************************************
-------------------------------------------------------------------------------
                                 ORCA SCF
-------------------------------------------------------------------------------

------------
SCF SETTINGS
------------
Hamiltonian:
 Ab initio Hamiltonian  Method          .... Hartree-Fock(GTOs)


General Settings:
 Integral files         IntName         .... 12h2o.su.etal.mol1,2,4,6,7,8,9,11-orca.engrad-mp2.def2tzvp.frozencore
 Hartree-Fock type      HFTyp           .... RHF
 Total Charge           Charge          ....    0
 Multiplicity           Mult            ....    1
 Number of Electrons    NEL             ....   80
 Basis Dimension        Dim             ....  344
 Nuclear Repulsion      ENuc            ....    455.5388925409 Eh

Convergence Acceleration:
 DIIS                   CNVDIIS         .... on
   Start iteration      DIISMaxIt       ....    12
   Startup error        DIISStart       ....  0.200000
   # of expansion vecs  DIISMaxEq       ....     5
   Bias factor          DIISBfac        ....   1.050
   Max. coefficient     DIISMaxC        ....  10.000
 Newton-Raphson         CNVNR           .... off
 SOSCF                  CNVSOSCF        .... on
   Start iteration      SOSCFMaxIt      ....   150
   Startup grad/error   SOSCFStart      ....  0.003300
 Level Shifting         CNVShift        .... on
   Level shift para.    LevelShift      ....    0.2500
   Turn off err/grad.   ShiftErr        ....    0.0010
 Zerner damping         CNVZerner       .... off
 Static damping         CNVDamp         .... on
   Fraction old density DampFac         ....    0.7000
   Max. Damping (<1)    DampMax         ....    0.9800
   Min. Damping (>=0)   DampMin         ....    0.0000
   Turn off err/grad.   DampErr         ....    0.1000
 Fernandez-Rico         CNVRico         .... off

SCF Procedure:
 Maximum # iterations   MaxIter         ....   125
 SCF integral mode      SCFMode         .... Direct
   Integral package                     .... LIBINT
 Reset frequency        DirectResetFreq ....    20
 Integral Threshold     Thresh          ....  2.500e-11 Eh
 Primitive CutOff       TCut            ....  2.500e-12 Eh

Convergence Tolerance:
 Convergence Check Mode ConvCheckMode   .... Total+1el-Energy
 Convergence forced     ConvForced      .... 1
 Energy Change          TolE            ....  1.000e-08 Eh
 1-El. energy change                    ....  1.000e-05 Eh
 Orbital Gradient       TolG            ....  1.000e-05
 Orbital Rotation angle TolX            ....  1.000e-05
 DIIS Error             TolErr          ....  5.000e-07


Diagonalization of the overlap matrix:
Smallest eigenvalue                        ... 3.332e-03
Time for diagonalization                   ...    0.016 sec
Threshold for overlap eigenvalues          ... 1.000e-08
Number of eigenvalues below threshold      ... 0
Time for construction of square roots      ...    0.009 sec
Total time needed                          ...    0.025 sec

-------------------
DFT GRID GENERATION
-------------------

General Integration Accuracy     IntAcc      ...  4.340
Radial Grid Type                 RadialGrid  ... Gauss-Chebyshev
Angular Grid (max. acc.)         AngularGrid ... Lebedev-110
Angular grid pruning method      GridPruning ... 3 (G Style)
Weight generation scheme         WeightScheme... Becke
Basis function cutoff            BFCut       ...    1.0000e-11
Integration weight cutoff        WCut        ...    1.0000e-14
Grids for H and He will be reduced by one unit

# of grid points (after initial pruning)     ...  26432 (   0.0 sec)
# of grid points (after weights+screening)   ...  24605 (   0.0 sec)
nearest neighbour list constructed           ...    0.0 sec
Grid point re-assignment to atoms done       ...    0.0 sec
Grid point division into batches done        ...    0.0 sec
Reduced shell lists constructed in    0.1 sec

Total number of grid points                  ...    24605
Total number of batches                      ...      397
Average number of points per batch           ...       61
Average number of grid points per atom       ...     1025
Average number of shells per batch           ...    70.43 (46.33%)
Average number of basis functions per batch  ...   141.54 (41.15%)
Average number of large shells per batch     ...    47.40 (67.30%)
Average number of large basis fcns per batch ...    93.40 (65.98%)
Maximum spatial batch extension              ...  12.83, 16.09, 11.77 au
Average spatial batch extension              ...   0.49,  0.53,  0.48 au

Time for grid setup =    0.089 sec

------------------------------
INITIAL GUESS: MODEL POTENTIAL
------------------------------
Loading Hartree-Fock densities                     ... done
Calculating cut-offs                               ... done
Setting up the integral package                    ... done
Initializing the effective Hamiltonian             ... done
Starting the Coulomb interaction                   ... done (   0.0 sec)
Reading the grid                                   ... done
Mapping shells                                     ... done
Starting the XC term evaluation                    ... done (   0.0 sec)
Transforming the Hamiltonian                       ... done (   0.0 sec)
Diagonalizing the Hamiltonian                      ... done (   0.0 sec)
Back transforming the eigenvectors                 ... done (   0.0 sec)
Now organizing SCF variables                       ... done
                      ------------------
                      INITIAL GUESS DONE (   0.3 sec)
                      ------------------
--------------
SCF ITERATIONS
--------------
ITER       Energy         Delta-E        Max-DP      RMS-DP      [F,P]     Damp
               ***  Starting incremental Fock matrix formation  ***
  0   -607.8138189861   0.000000000000 0.04400717  0.00083442  0.3504959 0.7000
  1   -608.0852667311  -0.271447744990 0.02938103  0.00057860  0.2166441 0.7000
                               ***Turning on DIIS***
  2   -608.2294544187  -0.144187687620 0.01645321  0.00032419  0.1634499 0.7000
  3   -609.5406052152  -1.311150796433 0.00741746  0.00014929  0.1218348 0.7000
  4   -609.2746871827   0.265918032469 0.01646083  0.00034569  0.0861859 0.0000
  5   -608.5587062323   0.715980950398 0.00218344  0.00005540  0.0053388 0.0000
                      *** Initiating the SOSCF procedure ***
                           *** Shutting down DIIS ***
                      *** Re-Reading the Fockian *** 
                      *** Removing any level shift *** 
ITER      Energy       Delta-E        Grad      Rot      Max-DP    RMS-DP
  6   -608.51924086   0.0394653707  0.000855  0.000855  0.001397  0.000034
               *** Restarting incremental Fock matrix formation ***
  7   -608.50832799   0.0109128751  0.000284  0.000457  0.000646  0.000015
  8   -608.50833963  -0.0000116411  0.000128  0.000396  0.000543  0.000013
  9   -608.50834245  -0.0000028180  0.000075  0.000039  0.000091  0.000002
 10   -608.50834268  -0.0000002371  0.000012  0.000008  0.000021  0.000000
                  ***Gradient check signals convergence***
              ***Rediagonalizing the Fockian in SOSCF/NRSCF***

               *****************************************************
               *                     SUCCESS                       *
               *           SCF CONVERGED AFTER  11 CYCLES          *
               *****************************************************


----------------
TOTAL SCF ENERGY
----------------

Total Energy       :         -608.50834269 Eh          -16558.35382 eV

Components:
Nuclear Repulsion  :          455.53889254 Eh           12395.84346 eV
Electronic Energy  :        -1064.04723523 Eh          -28954.19727 eV
One Electron Energy:        -1748.09447509 Eh          -47568.06898 eV
Two Electron Energy:          684.04723986 Eh           18613.87171 eV

Virial components:
Potential Energy   :        -1216.25384092 Eh          -33095.94958 eV
Kinetic Energy     :          607.74549823 Eh           16537.59576 eV
Virial Ratio       :            2.00125520


---------------
SCF CONVERGENCE
---------------

  Last Energy change         ...   -6.9463e-09  Tolerance :   1.0000e-08
  Last MAX-Density change    ...    6.2143e-06  Tolerance :   1.0000e-07
  Last RMS-Density change    ...    1.2490e-07  Tolerance :   5.0000e-09
  Last Orbital Gradient      ...    2.4404e-06  Tolerance :   1.0000e-05
  Last Orbital Rotation      ...    2.8363e-06  Tolerance :   1.0000e-05

             **** THE GBW FILE WAS UPDATED (12h2o.su.etal.mol1,2,4,6,7,8,9,11-orca.engrad-mp2.def2tzvp.frozencore.gbw) ****
             **** DENSITY FILE WAS UPDATED (12h2o.su.etal.mol1,2,4,6,7,8,9,11-orca.engrad-mp2.def2tzvp.frozencore.scfp) ****
             **** ENERGY FILE WAS UPDATED (12h2o.su.etal.mol1,2,4,6,7,8,9,11-orca.engrad-mp2.def2tzvp.frozencore.en.tmp) ****
             **** THE GBW FILE WAS UPDATED (12h2o.su.etal.mol1,2,4,6,7,8,9,11-orca.engrad-mp2.def2tzvp.frozencore.gbw) ****
             **** DENSITY FILE WAS UPDATED (12h2o.su.etal.mol1,2,4,6,7,8,9,11-orca.engrad-mp2.def2tzvp.frozencore.scfp) ****
----------------
ORBITAL ENERGIES
----------------

  NO   OCC          E(Eh)            E(eV) 
   0   2.0000     -20.617879      -561.0410 
   1   2.0000     -20.586524      -560.1878 
   2   2.0000     -20.580592      -560.0264 
   3   2.0000     -20.576049      -559.9028 
   4   2.0000     -20.571353      -559.7750 
   5   2.0000     -20.568381      -559.6941 
   6   2.0000     -20.523018      -558.4597 
   7   2.0000     -20.514866      -558.2379 
   8   2.0000      -1.404410       -38.2159 
   9   2.0000      -1.380442       -37.5637 
  10   2.0000      -1.367664       -37.2160 
  11   2.0000      -1.361992       -37.0617 
  12   2.0000      -1.353948       -36.8428 
  13   2.0000      -1.347025       -36.6544 
  14   2.0000      -1.307993       -35.5923 
  15   2.0000      -1.296779       -35.2871 
  16   2.0000      -0.759966       -20.6797 
  17   2.0000      -0.748604       -20.3705 
  18   2.0000      -0.740256       -20.1434 
  19   2.0000      -0.728694       -19.8288 
  20   2.0000      -0.721757       -19.6400 
  21   2.0000      -0.716435       -19.4952 
  22   2.0000      -0.687187       -18.6993 
  23   2.0000      -0.684619       -18.6294 
  24   2.0000      -0.650584       -17.7033 
  25   2.0000      -0.630165       -17.1477 
  26   2.0000      -0.615842       -16.7579 
  27   2.0000      -0.604746       -16.4560 
  28   2.0000      -0.594338       -16.1727 
  29   2.0000      -0.585470       -15.9315 
  30   2.0000      -0.556354       -15.1392 
  31   2.0000      -0.546334       -14.8665 
  32   2.0000      -0.544376       -14.8132 
  33   2.0000      -0.529539       -14.4095 
  34   2.0000      -0.521845       -14.2001 
  35   2.0000      -0.517962       -14.0945 
  36   2.0000      -0.517271       -14.0757 
  37   2.0000      -0.500597       -13.6219 
  38   2.0000      -0.472876       -12.8676 
  39   2.0000      -0.465478       -12.6663 
  40   0.0000       0.077348         2.1047 
  41   0.0000       0.107241         2.9182 
  42   0.0000       0.134010         3.6466 
  43   0.0000       0.144472         3.9313 
  44   0.0000       0.167982         4.5710 
  45   0.0000       0.187430         5.1002 
  46   0.0000       0.197701         5.3797 
  47   0.0000       0.223264         6.0753 
  48   0.0000       0.241328         6.5669 
  49   0.0000       0.267006         7.2656 
  50   0.0000       0.270374         7.3573 
  51   0.0000       0.308382         8.3915 
  52   0.0000       0.312617         8.5067 
  53   0.0000       0.324827         8.8390 
  54   0.0000       0.330587         8.9957 
  55   0.0000       0.348521         9.4837 
  56   0.0000       0.410231        11.1630 
  57   0.0000       0.465378        12.6636 
  58   0.0000       0.466748        12.7009 
  59   0.0000       0.481244        13.0953 
  60   0.0000       0.494115        13.4456 
  61   0.0000       0.500302        13.6139 
  62   0.0000       0.514392        13.9973 
  63   0.0000       0.531217        14.4552 
  64   0.0000       0.541421        14.7328 
  65   0.0000       0.551730        15.0133 
  66   0.0000       0.556491        15.1429 
  67   0.0000       0.563724        15.3397 
  68   0.0000       0.568745        15.4763 
  69   0.0000       0.575634        15.6638 
  70   0.0000       0.594870        16.1872 
  71   0.0000       0.606359        16.4999 
  72   0.0000       0.610980        16.6256 
  73   0.0000       0.620526        16.8854 
  74   0.0000       0.639478        17.4011 
  75   0.0000       0.655302        17.8317 
  76   0.0000       0.665290        18.1035 
  77   0.0000       0.668325        18.1860 
  78   0.0000       0.693574        18.8731 
  79   0.0000       0.698827        19.0161 
  80   0.0000       0.717008        19.5108 
  81   0.0000       0.726319        19.7642 
  82   0.0000       0.739581        20.1250 
  83   0.0000       0.745029        20.2733 
  84   0.0000       0.757508        20.6128 
  85   0.0000       0.762524        20.7493 
  86   0.0000       0.779299        21.2058 
  87   0.0000       0.789311        21.4782 
  88   0.0000       0.793849        21.6017 
  89   0.0000       0.803068        21.8526 
  90   0.0000       0.830704        22.6046 
  91   0.0000       0.846602        23.0372 
  92   0.0000       0.849038        23.1035 
  93   0.0000       0.873788        23.7770 
  94   0.0000       0.884017        24.0553 
  95   0.0000       0.922684        25.1075 
  96   0.0000       0.931626        25.3508 
  97   0.0000       0.966519        26.3003 
  98   0.0000       0.991438        26.9784 
  99   0.0000       1.029495        28.0140 
 100   0.0000       1.050267        28.5792 
 101   0.0000       1.061297        28.8794 
 102   0.0000       1.109030        30.1783 
 103   0.0000       1.125952        30.6387 
 104   0.0000       1.338284        36.4166 
 105   0.0000       1.350139        36.7391 
 106   0.0000       1.367694        37.2168 
 107   0.0000       1.384475        37.6735 
 108   0.0000       1.389314        37.8052 
 109   0.0000       1.410295        38.3761 
 110   0.0000       1.417419        38.5699 
 111   0.0000       1.418418        38.5971 
 112   0.0000       1.436820        39.0979 
 113   0.0000       1.448343        39.4114 
 114   0.0000       1.453926        39.5633 
 115   0.0000       1.489829        40.5403 
 116   0.0000       1.497578        40.7512 
 117   0.0000       1.503807        40.9207 
 118   0.0000       1.518199        41.3123 
 119   0.0000       1.533366        41.7250 
 120   0.0000       1.555849        42.3368 
 121   0.0000       1.563998        42.5585 
 122   0.0000       1.582575        43.0641 
 123   0.0000       1.592471        43.3333 
 124   0.0000       1.598277        43.4913 
 125   0.0000       1.613781        43.9132 
 126   0.0000       1.645115        44.7658 
 127   0.0000       1.653044        44.9816 
 128   0.0000       1.768314        48.1183 
 129   0.0000       1.792812        48.7849 
 130   0.0000       1.818818        49.4926 
 131   0.0000       1.831682        49.8426 
 132   0.0000       1.847210        50.2652 
 133   0.0000       1.869550        50.8731 
 134   0.0000       1.875763        51.0421 
 135   0.0000       1.907658        51.9100 
 136   0.0000       1.915518        52.1239 
 137   0.0000       1.935276        52.6615 
 138   0.0000       1.946300        52.9615 
 139   0.0000       1.974468        53.7280 
 140   0.0000       1.984885        54.0115 
 141   0.0000       1.994394        54.2702 
 142   0.0000       2.002333        54.4862 
 143   0.0000       2.052604        55.8542 
 144   0.0000       2.067471        56.2588 
 145   0.0000       2.069670        56.3186 
 146   0.0000       2.098237        57.0959 
 147   0.0000       2.111125        57.4466 
 148   0.0000       2.133246        58.0486 
 149   0.0000       2.153534        58.6006 
 150   0.0000       2.162703        58.8501 
 151   0.0000       2.202675        59.9378 
 152   0.0000       2.224612        60.5348 
 153   0.0000       2.257646        61.4337 
 154   0.0000       2.271315        61.8056 
 155   0.0000       2.277294        61.9683 
 156   0.0000       2.297724        62.5243 
 157   0.0000       2.316230        63.0278 
 158   0.0000       2.330991        63.4295 
 159   0.0000       2.337839        63.6158 
 160   0.0000       2.346127        63.8414 
 161   0.0000       2.353258        64.0354 
 162   0.0000       2.361534        64.2606 
 163   0.0000       2.380124        64.7665 
 164   0.0000       2.386220        64.9323 
 165   0.0000       2.406721        65.4902 
 166   0.0000       2.432317        66.1867 
 167   0.0000       2.439712        66.3879 
 168   0.0000       2.449941        66.6663 
 169   0.0000       2.478210        67.4355 
 170   0.0000       2.494559        67.8804 
 171   0.0000       2.518608        68.5348 
 172   0.0000       2.531338        68.8812 
 173   0.0000       2.537550        69.0502 
 174   0.0000       2.558158        69.6110 
 175   0.0000       2.573440        70.0269 
 176   0.0000       2.591840        70.5276 
 177   0.0000       2.600822        70.7720 
 178   0.0000       2.613885        71.1274 
 179   0.0000       2.632817        71.6426 
 180   0.0000       2.636641        71.7466 
 181   0.0000       2.648423        72.0673 
 182   0.0000       2.654355        72.2287 
 183   0.0000       2.655926        72.2714 
 184   0.0000       2.668761        72.6207 
 185   0.0000       2.697740        73.4092 
 186   0.0000       2.709437        73.7275 
 187   0.0000       2.730279        74.2947 
 188   0.0000       2.742688        74.6323 
 189   0.0000       2.757749        75.0422 
 190   0.0000       2.808174        76.4143 
 191   0.0000       2.824586        76.8609 
 192   0.0000       2.881648        78.4136 
 193   0.0000       2.904700        79.0409 
 194   0.0000       2.909338        79.1671 
 195   0.0000       2.929004        79.7022 
 196   0.0000       2.936620        79.9095 
 197   0.0000       2.958004        80.4914 
 198   0.0000       2.966465        80.7216 
 199   0.0000       2.991800        81.4110 
 200   0.0000       2.994230        81.4771 
 201   0.0000       3.000464        81.6468 
 202   0.0000       3.014664        82.0332 
 203   0.0000       3.043520        82.8184 
 204   0.0000       3.056461        83.1705 
 205   0.0000       3.070380        83.5493 
 206   0.0000       3.086346        83.9838 
 207   0.0000       3.107935        84.5712 
 208   0.0000       3.123342        84.9905 
 209   0.0000       3.138581        85.4051 
 210   0.0000       3.162621        86.0593 
 211   0.0000       3.186968        86.7218 
 212   0.0000       3.209690        87.3401 
 213   0.0000       3.235830        88.0514 
 214   0.0000       3.242891        88.2436 
 215   0.0000       3.267091        88.9021 
 216   0.0000       3.281136        89.2843 
 217   0.0000       3.313018        90.1518 
 218   0.0000       3.334144        90.7267 
 219   0.0000       3.356467        91.3341 
 220   0.0000       3.421394        93.1009 
 221   0.0000       3.487634        94.9033 
 222   0.0000       3.496320        95.1397 
 223   0.0000       3.520335        95.7932 
 224   0.0000       3.991291       108.6086 
 225   0.0000       4.038423       109.8911 
 226   0.0000       4.046353       110.1069 
 227   0.0000       4.075066       110.8882 
 228   0.0000       4.094236       111.4098 
 229   0.0000       4.110436       111.8507 
 230   0.0000       4.125795       112.2686 
 231   0.0000       4.136066       112.5481 
 232   0.0000       4.257173       115.8436 
 233   0.0000       4.301962       117.0623 
 234   0.0000       4.306191       117.1774 
 235   0.0000       4.328034       117.7718 
 236   0.0000       4.343296       118.1871 
 237   0.0000       4.348160       118.3194 
 238   0.0000       4.372532       118.9826 
 239   0.0000       4.415018       120.1387 
 240   0.0000       5.490223       149.3966 
 241   0.0000       5.515954       150.0967 
 242   0.0000       5.524267       150.3229 
 243   0.0000       5.528799       150.4463 
 244   0.0000       5.533916       150.5855 
 245   0.0000       5.538229       150.7029 
 246   0.0000       5.580719       151.8591 
 247   0.0000       5.590390       152.1222 
 248   0.0000       5.617469       152.8591 
 249   0.0000       5.637604       153.4070 
 250   0.0000       5.644017       153.5815 
 251   0.0000       5.647943       153.6883 
 252   0.0000       5.661433       154.0554 
 253   0.0000       5.673702       154.3893 
 254   0.0000       5.688003       154.7784 
 255   0.0000       5.689948       154.8313 
 256   0.0000       5.771258       157.0439 
 257   0.0000       5.780701       157.3009 
 258   0.0000       5.790390       157.5645 
 259   0.0000       5.806713       158.0087 
 260   0.0000       5.814181       158.2119 
 261   0.0000       5.816064       158.2632 
 262   0.0000       5.819423       158.3545 
 263   0.0000       5.825705       158.5255 
 264   0.0000       5.831177       158.6744 
 265   0.0000       5.838605       158.8765 
 266   0.0000       5.840896       158.9389 
 267   0.0000       5.852146       159.2450 
 268   0.0000       5.854341       159.3047 
 269   0.0000       5.865568       159.6102 
 270   0.0000       5.874279       159.8472 
 271   0.0000       5.876831       159.9167 
 272   0.0000       5.883718       160.1041 
 273   0.0000       5.887890       160.2176 
 274   0.0000       5.893022       160.3573 
 275   0.0000       5.898241       160.4993 
 276   0.0000       5.903900       160.6533 
 277   0.0000       5.919775       161.0853 
 278   0.0000       5.939727       161.6282 
 279   0.0000       5.972290       162.5143 
 280   0.0000       6.432669       175.0418 
 281   0.0000       6.445893       175.4017 
 282   0.0000       6.451166       175.5452 
 283   0.0000       6.459937       175.7838 
 284   0.0000       6.463499       175.8807 
 285   0.0000       6.483360       176.4212 
 286   0.0000       6.512162       177.2049 
 287   0.0000       6.526272       177.5889 
 288   0.0000       6.634851       180.5435 
 289   0.0000       6.655993       181.1188 
 290   0.0000       6.697300       182.2428 
 291   0.0000       6.704557       182.4403 
 292   0.0000       6.717453       182.7912 
 293   0.0000       6.731527       183.1742 
 294   0.0000       6.758913       183.9194 
 295   0.0000       6.769160       184.1982 
 296   0.0000       6.813753       185.4116 
 297   0.0000       6.826499       185.7585 
 298   0.0000       6.842913       186.2051 
 299   0.0000       6.855630       186.5512 
 300   0.0000       6.862255       186.7314 
 301   0.0000       6.872740       187.0168 
 302   0.0000       6.876039       187.1065 
 303   0.0000       6.880917       187.2393 
 304   0.0000       6.890357       187.4962 
 305   0.0000       6.898108       187.7071 
 306   0.0000       6.909606       188.0199 
 307   0.0000       6.919105       188.2784 
 308   0.0000       6.922851       188.3804 
 309   0.0000       6.933400       188.6674 
 310   0.0000       6.935688       188.7297 
 311   0.0000       6.956427       189.2940 
 312   0.0000       6.979947       189.9340 
 313   0.0000       6.991270       190.2421 
 314   0.0000       6.996442       190.3829 
 315   0.0000       7.000431       190.4914 
 316   0.0000       7.025819       191.1823 
 317   0.0000       7.040622       191.5851 
 318   0.0000       7.070588       192.4005 
 319   0.0000       7.092558       192.9983 
 320   0.0000       7.338885       199.7012 
 321   0.0000       7.369938       200.5462 
 322   0.0000       7.407973       201.5812 
 323   0.0000       7.419966       201.9075 
 324   0.0000       7.427417       202.1103 
 325   0.0000       7.455959       202.8870 
 326   0.0000       7.465951       203.1589 
 327   0.0000       7.481488       203.5817 
 328   0.0000       7.511028       204.3855 
 329   0.0000       7.536196       205.0703 
 330   0.0000       7.544859       205.3061 
 331   0.0000       7.550312       205.4544 
 332   0.0000       7.564763       205.8477 
 333   0.0000       7.579660       206.2530 
 334   0.0000       7.586431       206.4373 
 335   0.0000       7.621652       207.3957 
 336   0.0000      44.913770      1222.1658 
 337   0.0000      44.964972      1223.5591 
 338   0.0000      44.973798      1223.7993 
 339   0.0000      44.975213      1223.8378 
 340   0.0000      44.991169      1224.2719 
 341   0.0000      45.009633      1224.7744 
 342   0.0000      45.052969      1225.9536 
 343   0.0000      45.097676      1227.1701 

                    ********************************
                    * MULLIKEN POPULATION ANALYSIS *
                    ********************************

-----------------------
MULLIKEN ATOMIC CHARGES
-----------------------
   0 O :   -0.790429
   1 H :    0.365624
   2 H :    0.409221
   3 O :   -0.763516
   4 H :    0.331837
   5 H :    0.396753
   6 O :   -0.772951
   7 H :    0.359907
   8 H :    0.408160
   9 O :   -0.765590
  10 H :    0.352734
  11 H :    0.387444
  12 O :   -0.734311
  13 H :    0.399520
  14 H :    0.359651
  15 O :   -0.723076
  16 H :    0.406941
  17 H :    0.343202
  18 O :   -0.714045
  19 H :    0.371941
  20 H :    0.380090
  21 O :   -0.761792
  22 H :    0.382750
  23 H :    0.369933
Sum of atomic charges:   -0.0000000

--------------------------------
MULLIKEN REDUCED ORBITAL CHARGES
--------------------------------
  0 O s       :     3.806950  s :     3.806950
      pz      :     1.726302  p :     4.959996
      px      :     1.435106
      py      :     1.798588
      dz2     :     0.003560  d :     0.022089
      dxz     :     0.004273
      dyz     :     0.005076
      dx2y2   :     0.002271
      dxy     :     0.006908
      f0      :     0.000081  f :     0.001394
      f+1     :     0.000315
      f-1     :     0.000171
      f+2     :     0.000062
      f-2     :     0.000347
      f+3     :     0.000083
      f-3     :     0.000336
  1 H s       :     0.589103  s :     0.589103
      pz      :     0.016829  p :     0.045273
      px      :     0.013727
      py      :     0.014718
  2 H s       :     0.535268  s :     0.535268
      pz      :     0.010091  p :     0.055510
      px      :     0.032240
      py      :     0.013179
  3 O s       :     3.808217  s :     3.808217
      pz      :     1.716771  p :     4.930192
      px      :     1.803075
      py      :     1.410346
      dz2     :     0.003982  d :     0.023637
      dxz     :     0.005518
      dyz     :     0.004653
      dx2y2   :     0.002301
      dxy     :     0.007183
      f0      :     0.000087  f :     0.001469
      f+1     :     0.000185
      f-1     :     0.000326
      f+2     :     0.000070
      f-2     :     0.000360
      f+3     :     0.000352
      f-3     :     0.000089
  4 H s       :     0.622040  s :     0.622040
      pz      :     0.017001  p :     0.046123
      px      :     0.015210
      py      :     0.013912
  5 H s       :     0.546383  s :     0.546383
      pz      :     0.010724  p :     0.056865
      px      :     0.013998
      py      :     0.032143
  6 O s       :     3.802590  s :     3.802590
      pz      :     1.557255  p :     4.945786
      px      :     1.849936
      py      :     1.538595
      dz2     :     0.010889  d :     0.023219
      dxz     :     0.002021
      dyz     :     0.002687
      dx2y2   :     0.003146
      dxy     :     0.004477
      f0      :     0.000188  f :     0.001356
      f+1     :     0.000111
      f-1     :     0.000447
      f+2     :     0.000068
      f-2     :     0.000037
      f+3     :     0.000411
      f-3     :     0.000094
  7 H s       :     0.595968  s :     0.595968
      pz      :     0.018793  p :     0.044125
      px      :     0.013485
      py      :     0.011847
  8 H s       :     0.539531  s :     0.539531
      pz      :     0.008441  p :     0.052309
      px      :     0.014162
      py      :     0.029706
  9 O s       :     3.809184  s :     3.809184
      pz      :     1.541146  p :     4.932012
      px      :     1.511994
      py      :     1.878872
      dz2     :     0.010215  d :     0.022946
      dxz     :     0.002562
      dyz     :     0.002300
      dx2y2   :     0.002853
      dxy     :     0.005017
      f0      :     0.000207  f :     0.001448
      f+1     :     0.000437
      f-1     :     0.000124
      f+2     :     0.000077
      f-2     :     0.000037
      f+3     :     0.000116
      f-3     :     0.000450
 10 H s       :     0.602296  s :     0.602296
      pz      :     0.018537  p :     0.044970
      px      :     0.012205
      py      :     0.014228
 11 H s       :     0.559041  s :     0.559041
      pz      :     0.008876  p :     0.053516
      px      :     0.029114
      py      :     0.015525
 12 O s       :     3.804624  s :     3.804624
      pz      :     1.602676  p :     4.903093
      px      :     1.464559
      py      :     1.835859
      dz2     :     0.011622  d :     0.025234
      dxz     :     0.002930
      dyz     :     0.002223
      dx2y2   :     0.003628
      dxy     :     0.004832
      f0      :     0.000143  f :     0.001361
      f+1     :     0.000455
      f-1     :     0.000111
      f+2     :     0.000066
      f-2     :     0.000039
      f+3     :     0.000103
      f-3     :     0.000443
 13 H s       :     0.552004  s :     0.552004
      pz      :     0.025327  p :     0.048476
      px      :     0.010704
      py      :     0.012445
 14 H s       :     0.597583  s :     0.597583
      pz      :     0.010091  p :     0.042766
      px      :     0.018534
      py      :     0.014140
 15 O s       :     3.797433  s :     3.797433
      pz      :     1.579236  p :     4.899154
      px      :     1.535381
      py      :     1.784537
      dz2     :     0.011841  d :     0.025083
      dxz     :     0.001170
      dyz     :     0.002420
      dx2y2   :     0.002503
      dxy     :     0.007148
      f0      :     0.000226  f :     0.001406
      f+1     :     0.000382
      f-1     :     0.000157
      f+2     :     0.000051
      f-2     :     0.000056
      f+3     :     0.000054
      f-3     :     0.000480
 16 H s       :     0.545290  s :     0.545290
      pz      :     0.025066  p :     0.047768
      px      :     0.010989
      py      :     0.011714
 17 H s       :     0.612689  s :     0.612689
      pz      :     0.010810  p :     0.044109
      px      :     0.018167
      py      :     0.015132
 18 O s       :     3.800209  s :     3.800209
      pz      :     1.530708  p :     4.886543
      px      :     1.788809
      py      :     1.567026
      dz2     :     0.012637  d :     0.025856
      dxz     :     0.002420
      dyz     :     0.001260
      dx2y2   :     0.002480
      dxy     :     0.007059
      f0      :     0.000247  f :     0.001437
      f+1     :     0.000161
      f-1     :     0.000393
      f+2     :     0.000051
      f-2     :     0.000056
      f+3     :     0.000478
      f-3     :     0.000051
 19 H s       :     0.584305  s :     0.584305
      pz      :     0.019526  p :     0.043753
      px      :     0.012574
      py      :     0.011653
 20 H s       :     0.576832  s :     0.576832
      pz      :     0.010014  p :     0.043078
      px      :     0.014401
      py      :     0.018663
 21 O s       :     3.807000  s :     3.807000
      pz      :     1.547223  p :     4.928675
      px      :     1.817749
      py      :     1.563703
      dz2     :     0.011529  d :     0.024682
      dxz     :     0.002823
      dyz     :     0.001243
      dx2y2   :     0.002059
      dxy     :     0.007028
      f0      :     0.000252  f :     0.001435
      f+1     :     0.000159
      f-1     :     0.000370
      f+2     :     0.000055
      f-2     :     0.000054
      f+3     :     0.000480
      f-3     :     0.000063
 22 H s       :     0.568712  s :     0.568712
      pz      :     0.023833  p :     0.048538
      px      :     0.013075
      py      :     0.011629
 23 H s       :     0.579559  s :     0.579559
      pz      :     0.010239  p :     0.050508
      px      :     0.016566
      py      :     0.023702


                     *******************************
                     * LOEWDIN POPULATION ANALYSIS *
                     *******************************

----------------------
LOEWDIN ATOMIC CHARGES
----------------------
   0 O :   -0.324606
   1 H :    0.161431
   2 H :    0.156025
   3 O :   -0.376367
   4 H :    0.147388
   5 H :    0.152484
   6 O :   -0.306339
   7 H :    0.166369
   8 H :    0.159345
   9 O :   -0.346098
  10 H :    0.163582
  11 H :    0.152415
  12 O :   -0.303915
  13 H :    0.159327
  14 H :    0.173024
  15 O :   -0.286025
  16 H :    0.165803
  17 H :    0.164479
  18 O :   -0.274975
  19 H :    0.174973
  20 H :    0.180121
  21 O :   -0.359266
  22 H :    0.153086
  23 H :    0.147739

-------------------------------
LOEWDIN REDUCED ORBITAL CHARGES
-------------------------------
  0 O s       :     3.454952  s :     3.454952
      pz      :     1.683302  p :     4.839080
      px      :     1.402934
      py      :     1.752843
      dz2     :     0.004706  d :     0.028618
      dxz     :     0.006473
      dyz     :     0.005116
      dx2y2   :     0.003658
      dxy     :     0.008664
      f0      :     0.000084  f :     0.001957
      f+1     :     0.000428
      f-1     :     0.000261
      f+2     :     0.000031
      f-2     :     0.000602
      f+3     :     0.000083
      f-3     :     0.000467
  1 H s       :     0.673048  s :     0.673048
      pz      :     0.066143  p :     0.165521
      px      :     0.046169
      py      :     0.053209
  2 H s       :     0.647500  s :     0.647500
      pz      :     0.033417  p :     0.196475
      px      :     0.115429
      py      :     0.047629
  3 O s       :     3.467481  s :     3.467481
      pz      :     1.705082  p :     4.877352
      px      :     1.779792
      py      :     1.392478
      dz2     :     0.004234  d :     0.029524
      dxz     :     0.005777
      dyz     :     0.007176
      dx2y2   :     0.003292
      dxy     :     0.009045
      f0      :     0.000073  f :     0.002011
      f+1     :     0.000267
      f-1     :     0.000439
      f+2     :     0.000034
      f-2     :     0.000634
      f+3     :     0.000479
      f-3     :     0.000084
  4 H s       :     0.688291  s :     0.688291
      pz      :     0.065485  p :     0.164321
      px      :     0.053320
      py      :     0.045515
  5 H s       :     0.653105  s :     0.653105
      pz      :     0.033482  p :     0.194411
      px      :     0.047540
      py      :     0.113389
  6 O s       :     3.456184  s :     3.456184
      pz      :     1.531109  p :     4.817910
      px      :     1.790204
      py      :     1.496597
      dz2     :     0.015067  d :     0.030267
      dxz     :     0.001299
      dyz     :     0.004125
      dx2y2   :     0.004478
      dxy     :     0.005298
      f0      :     0.000386  f :     0.001979
      f+1     :     0.000193
      f-1     :     0.000736
      f+2     :     0.000039
      f-2     :     0.000047
      f+3     :     0.000515
      f-3     :     0.000063
  7 H s       :     0.673735  s :     0.673735
      pz      :     0.079324  p :     0.159896
      px      :     0.043276
      py      :     0.037296
  8 H s       :     0.651736  s :     0.651736
      pz      :     0.028761  p :     0.188919
      px      :     0.052499
      py      :     0.107659
  9 O s       :     3.461763  s :     3.461763
      pz      :     1.525859  p :     4.852716
      px      :     1.487226
      py      :     1.839632
      dz2     :     0.014391  d :     0.029602
      dxz     :     0.004127
      dyz     :     0.001583
      dx2y2   :     0.003639
      dxy     :     0.005863
      f0      :     0.000405  f :     0.002017
      f+1     :     0.000731
      f-1     :     0.000184
      f+2     :     0.000046
      f-2     :     0.000044
      f+3     :     0.000064
      f-3     :     0.000542
 10 H s       :     0.677453  s :     0.677453
      pz      :     0.078917  p :     0.158965
      px      :     0.036712
      py      :     0.043336
 11 H s       :     0.660850  s :     0.660850
      pz      :     0.028960  p :     0.186734
      px      :     0.105164
      py      :     0.052611
 12 O s       :     3.461846  s :     3.461846
      pz      :     1.577549  p :     4.808622
      px      :     1.453272
      py      :     1.777801
      dz2     :     0.014448  d :     0.031447
      dxz     :     0.003800
      dyz     :     0.001305
      dx2y2   :     0.005501
      dxy     :     0.006393
      f0      :     0.000320  f :     0.001999
      f+1     :     0.000708
      f-1     :     0.000204
      f+2     :     0.000037
      f-2     :     0.000043
      f+3     :     0.000073
      f-3     :     0.000614
 13 H s       :     0.667053  s :     0.667053
      pz      :     0.095289  p :     0.173620
      px      :     0.036021
      py      :     0.042311
 14 H s       :     0.672608  s :     0.672608
      pz      :     0.030567  p :     0.154368
      px      :     0.074652
      py      :     0.049149
 15 O s       :     3.454034  s :     3.454034
      pz      :     1.547187  p :     4.797607
      px      :     1.524347
      py      :     1.726073
      dz2     :     0.015290  d :     0.032249
      dxz     :     0.001685
      dyz     :     0.001837
      dx2y2   :     0.003815
      dxy     :     0.009623
      f0      :     0.000400  f :     0.002134
      f+1     :     0.000564
      f-1     :     0.000336
      f+2     :     0.000021
      f-2     :     0.000045
      f+3     :     0.000027
      f-3     :     0.000741
 16 H s       :     0.662148  s :     0.662148
      pz      :     0.095142  p :     0.172050
      px      :     0.035709
      py      :     0.041198
 17 H s       :     0.677638  s :     0.677638
      pz      :     0.031497  p :     0.157883
      px      :     0.071460
      py      :     0.054926
 18 O s       :     3.456570  s :     3.456570
      pz      :     1.519303  p :     4.783131
      px      :     1.727039
      py      :     1.536789
      dz2     :     0.016708  d :     0.033108
      dxz     :     0.001914
      dyz     :     0.001972
      dx2y2   :     0.003627
      dxy     :     0.008887
      f0      :     0.000455  f :     0.002167
      f+1     :     0.000340
      f-1     :     0.000583
      f+2     :     0.000022
      f-2     :     0.000048
      f+3     :     0.000693
      f-3     :     0.000026
 19 H s       :     0.666029  s :     0.666029
      pz      :     0.081658  p :     0.158998
      px      :     0.041589
      py      :     0.035751
 20 H s       :     0.661876  s :     0.661876
      pz      :     0.029633  p :     0.158003
      px      :     0.054822
      py      :     0.073547
 21 O s       :     3.460365  s :     3.460365
      pz      :     1.531373  p :     4.866824
      px      :     1.791285
      py      :     1.544166
      dz2     :     0.014990  d :     0.030052
      dxz     :     0.002190
      dyz     :     0.001919
      dx2y2   :     0.002143
      dxy     :     0.008809
      f0      :     0.000451  f :     0.002024
      f+1     :     0.000303
      f-1     :     0.000544
      f+2     :     0.000023
      f-2     :     0.000047
      f+3     :     0.000655
      f-3     :     0.000002
 22 H s       :     0.676381  s :     0.676381
      pz      :     0.091298  p :     0.170533
      px      :     0.042273
      py      :     0.036963
 23 H s       :     0.678229  s :     0.678229
      pz      :     0.031215  p :     0.174032
      px      :     0.057927
      py      :     0.084890


                      *****************************
                      * MAYER POPULATION ANALYSIS *
                      *****************************

  NA   - Mulliken gross atomic population
  ZA   - Total nuclear charge
  QA   - Mulliken gross atomic charge
  VA   - Mayer's total valence
  BVA  - Mayer's bonded valence
  FA   - Mayer's free valence

  ATOM       NA         ZA         QA         VA         BVA        FA
  0 O      8.7904     8.0000    -0.7904     1.6836     1.6836     0.0000
  1 H      0.6344     1.0000     0.3656     0.8840     0.8840    -0.0000
  2 H      0.5908     1.0000     0.4092     0.8668     0.8668     0.0000
  3 O      8.7635     8.0000    -0.7635     1.6931     1.6931    -0.0000
  4 H      0.6682     1.0000     0.3318     0.9056     0.9056    -0.0000
  5 H      0.6032     1.0000     0.3968     0.8779     0.8779     0.0000
  6 O      8.7730     8.0000    -0.7730     1.6946     1.6946     0.0000
  7 H      0.6401     1.0000     0.3599     0.8877     0.8877     0.0000
  8 H      0.5918     1.0000     0.4082     0.8749     0.8749    -0.0000
  9 O      8.7656     8.0000    -0.7656     1.7018     1.7018    -0.0000
 10 H      0.6473     1.0000     0.3527     0.8946     0.8946    -0.0000
 11 H      0.6126     1.0000     0.3874     0.8921     0.8921    -0.0000
 12 O      8.7343     8.0000    -0.7343     1.7606     1.7606    -0.0000
 13 H      0.6005     1.0000     0.3995     0.8694     0.8694     0.0000
 14 H      0.6403     1.0000     0.3597     0.8911     0.8911    -0.0000
 15 O      8.7231     8.0000    -0.7231     1.7575     1.7575    -0.0000
 16 H      0.5931     1.0000     0.4069     0.8620     0.8620     0.0000
 17 H      0.6568     1.0000     0.3432     0.8987     0.8987    -0.0000
 18 O      8.7140     8.0000    -0.7140     1.7753     1.7753     0.0000
 19 H      0.6281     1.0000     0.3719     0.8777     0.8777     0.0000
 20 H      0.6199     1.0000     0.3801     0.8747     0.8747    -0.0000
 21 O      8.7618     8.0000    -0.7618     1.7294     1.7294     0.0000
 22 H      0.6173     1.0000     0.3827     0.8763     0.8763    -0.0000
 23 H      0.6301     1.0000     0.3699     0.8950     0.8950     0.0000

  Mayer bond orders larger than 0.100000
B(  0-O ,  1-H ) :   0.8737 B(  0-O ,  2-H ) :   0.7862 B(  3-O ,  4-H ) :   0.8996 
B(  3-O ,  5-H ) :   0.8114 B(  6-O ,  7-H ) :   0.8774 B(  6-O ,  8-H ) :   0.7840 
B(  9-O , 10-H ) :   0.8841 B(  9-O , 11-H ) :   0.8097 B( 12-O , 13-H ) :   0.8296 
B( 12-O , 14-H ) :   0.8731 B( 15-O , 16-H ) :   0.8273 B( 15-O , 17-H ) :   0.8893 
B( 18-O , 19-H ) :   0.8685 B( 18-O , 20-H ) :   0.8600 B( 21-O , 22-H ) :   0.8591 
B( 21-O , 23-H ) :   0.8585 

-------
TIMINGS
-------

Total SCF time: 0 days 0 hours 0 min 26 sec 

Total time                  ....      26.747 sec
Sum of individual times     ....      26.451 sec  ( 98.9%)

Fock matrix formation       ....      25.888 sec  ( 96.8%)
Diagonalization             ....       0.141 sec  (  0.5%)
Density matrix formation    ....       0.016 sec  (  0.1%)
Population analysis         ....       0.015 sec  (  0.1%)
Initial guess               ....       0.187 sec  (  0.7%)
Orbital Transformation      ....       0.000 sec  (  0.0%)
Orbital Orthonormalization  ....       0.000 sec  (  0.0%)
DIIS solution               ....       0.055 sec  (  0.2%)
SOSCF solution              ....       0.060 sec  (  0.2%)


           ************************************************************
           *        Program running with 6 parallel MPI-processes     *
           *              working on a common directory               *
           ************************************************************

------------------------------------------------------------------------------
                                ORCA  MP2 
------------------------------------------------------------------------------

Freezing NCore=16 chemical core electrons
MP2 will be done in the AO integral direct mode
The Q1-step will be done using symmetric double matrices
Dimension of the basis                    ...  344
Memory devoted for MP2                    ... 8000 MB   
Memory needed for all in one shot         ...  935 MB
Number of MOs that can be treated together...   50      
MP2 density construction                  ... relaxed
The MP2 gradient is requested => amplitudes will be stored on disk
Total number of MOs              ...   32
Number of MOs treated per batch  ...    6 
Number of batches necessary      ...    1 
OPERATORS   0/  0 PASS   0
-----------------------------------------------
 MP2 CORRELATION ENERGY   :     -2.071773080 Eh
-----------------------------------------------


---------------------
MP2 DENSITY FORMATION
---------------------

Completing the external part of the density      ... done
Storing the unrelaxed density                    ... done

Calculating G(D)                                 ... done
Completing the Lagrangian                        ... done
Solving the Z-vector equations                   ... 

------------------------------------------------------------------------------
                           ORCA CP-SCF CALCULATION
------------------------------------------------------------------------------

Input orbitals are from        ... 12h2o.su.etal.mol1,2,4,6,7,8,9,11-orca.engrad-mp2.def2tzvp.frozencore.gbw
Input Perturbation             ... 12h2o.su.etal.mol1,2,4,6,7,8,9,11-orca.engrad-mp2.def2tzvp.frozencore.pin.tmp
Wavefunction output            ... 12h2o.su.etal.mol1,2,4,6,7,8,9,11-orca.engrad-mp2.def2tzvp.frozencore.pout.tmp
Perturbation mode              ... Real perturbation (singlet)
Solver                         ... POPLE
Max. number of iterations      ... 128
Convergence tolerance          ... 1.000e-08
Integral handling              ... Direct
Number of perturbations        ... 1
Number of operators            ... 1
Orbital ranges used for CP-SCF:
 Operator 0:  Orbitals   0... 39  to  40...343
Variables per vector in CP-SCF ... 12160
Number of vectors sought       ... 1
     CP-SCF ITERATION   0: 
     CP-SCF ITERATION   1:      0.001037293043
     CP-SCF ITERATION   2:      0.000027551209
     CP-SCF ITERATION   3:      0.000001187861
     CP-SCF ITERATION   4:      0.000000133034
     CP-SCF ITERATION   5:      0.000000011718
     CP-SCF ITERATION   6:      0.000000000669
                                                 ... done
Finalizing the relaxed density                   ... done
Transforming P to the AO basis                   ... done
Storing the relaxed density                      ... done

------------------------------------
ENERGY WEIGHTED DENSITY FINALIZATION
------------------------------------

Gathering the parts of the W-matrix              ...                                                      done
Forming the Z-density                            ... done
Transforming Z to the AO basis                   ... done
Calculating G(Z)                                 ... done
Finalizing the W-matrix                          ...                                                      done
Transforming W to the AO basis and storing       ... done

                *********************************************
                * UNRELAXED MP2 DENSITY POPULATION ANALYSIS *
                *********************************************

------------------------------------------------------------------------------
                           ORCA POPULATION ANALYSIS
------------------------------------------------------------------------------
Input electron density              ... 12h2o.su.etal.mol1,2,4,6,7,8,9,11-orca.engrad-mp2.def2tzvp.frozencore.pmp2ur
BaseName (.gbw .S,...)              ... 12h2o.su.etal.mol1,2,4,6,7,8,9,11-orca.engrad-mp2.def2tzvp.frozencore

                    ********************************
                    * MULLIKEN POPULATION ANALYSIS *
                    ********************************

-----------------------
MULLIKEN ATOMIC CHARGES
-----------------------
   0 O :   -0.783890
   1 H :    0.363292
   2 H :    0.404480
   3 O :   -0.758112
   4 H :    0.329588
   5 H :    0.392368
   6 O :   -0.765883
   7 H :    0.357429
   8 H :    0.403475
   9 O :   -0.759469
  10 H :    0.350293
  11 H :    0.382666
  12 O :   -0.727320
  13 H :    0.396368
  14 H :    0.356759
  15 O :   -0.716564
  16 H :    0.403932
  17 H :    0.340660
  18 O :   -0.707593
  19 H :    0.369478
  20 H :    0.377472
  21 O :   -0.755780
  22 H :    0.379843
  23 H :    0.366508
Sum of atomic charges:   -0.0000000

--------------------------------
MULLIKEN REDUCED ORBITAL CHARGES
--------------------------------
  0 O s       :     3.802025  s :     3.802025
      pz      :     1.715142  p :     4.927849
      px      :     1.426180
      py      :     1.786527
      dz2     :     0.009248  d :     0.050025
      dxz     :     0.009806
      dyz     :     0.010634
      dx2y2   :     0.007939
      dxy     :     0.012398
      f0      :     0.000454  f :     0.003991
      f+1     :     0.000683
      f-1     :     0.000539
      f+2     :     0.000434
      f-2     :     0.000715
      f+3     :     0.000461
      f-3     :     0.000705
  1 H s       :     0.589853  s :     0.589853
      pz      :     0.017286  p :     0.046855
      px      :     0.014156
      py      :     0.015413
  2 H s       :     0.538379  s :     0.538379
      pz      :     0.010899  p :     0.057141
      px      :     0.032352
      py      :     0.013891
  3 O s       :     3.803321  s :     3.803321
      pz      :     1.706373  p :     4.900067
      px      :     1.791803
      py      :     1.401891
      dz2     :     0.009464  d :     0.050689
      dxz     :     0.010861
      dyz     :     0.010025
      dx2y2   :     0.007805
      dxy     :     0.012534
      f0      :     0.000455  f :     0.004035
      f+1     :     0.000548
      f-1     :     0.000690
      f+2     :     0.000438
      f-2     :     0.000724
      f+3     :     0.000718
      f-3     :     0.000462
  4 H s       :     0.622559  s :     0.622559
      pz      :     0.017513  p :     0.047853
      px      :     0.015961
      py      :     0.014378
  5 H s       :     0.549096  s :     0.549096
      pz      :     0.011557  p :     0.058536
      px      :     0.014731
      py      :     0.032248
  6 O s       :     3.797273  s :     3.797273
      pz      :     1.547795  p :     4.913519
      px      :     1.836800
      py      :     1.528924
      dz2     :     0.016268  d :     0.051131
      dxz     :     0.007744
      dyz     :     0.008174
      dx2y2   :     0.008863
      dxy     :     0.010082
      f0      :     0.000573  f :     0.003961
      f+1     :     0.000487
      f-1     :     0.000816
      f+2     :     0.000435
      f-2     :     0.000406
      f+3     :     0.000775
      f-3     :     0.000469
  7 H s       :     0.596822  s :     0.596822
      pz      :     0.018954  p :     0.045749
      px      :     0.014331
      py      :     0.012465
  8 H s       :     0.542659  s :     0.542659
      pz      :     0.009201  p :     0.053866
      px      :     0.014809
      py      :     0.029856
  9 O s       :     3.804158  s :     3.804158
      pz      :     1.531714  p :     4.900939
      px      :     1.502511
      py      :     1.866714
      dz2     :     0.015532  d :     0.050348
      dxz     :     0.008022
      dyz     :     0.007917
      dx2y2   :     0.008404
      dxy     :     0.010473
      f0      :     0.000588  f :     0.004024
      f+1     :     0.000805
      f-1     :     0.000495
      f+2     :     0.000441
      f-2     :     0.000404
      f+3     :     0.000484
      f-3     :     0.000807
 10 H s       :     0.603103  s :     0.603103
      pz      :     0.018673  p :     0.046605
      px      :     0.012840
      py      :     0.015092
 11 H s       :     0.562182  s :     0.562182
      pz      :     0.009666  p :     0.055152
      px      :     0.029250
      py      :     0.016236
 12 O s       :     3.799511  s :     3.799511
      pz      :     1.592601  p :     4.871355
      px      :     1.455796
      py      :     1.822957
      dz2     :     0.016847  d :     0.052506
      dxz     :     0.008301
      dyz     :     0.007865
      dx2y2   :     0.009170
      dxy     :     0.010323
      f0      :     0.000531  f :     0.003948
      f+1     :     0.000823
      f-1     :     0.000488
      f+2     :     0.000431
      f-2     :     0.000405
      f+3     :     0.000471
      f-3     :     0.000798
 13 H s       :     0.553690  s :     0.553690
      pz      :     0.025418  p :     0.049942
      px      :     0.011273
      py      :     0.013251
 14 H s       :     0.598871  s :     0.598871
      pz      :     0.010938  p :     0.044370
      px      :     0.018571
      py      :     0.014860
 15 O s       :     3.792280  s :     3.792280
      pz      :     1.569508  p :     4.867914
      px      :     1.526132
      py      :     1.772274
      dz2     :     0.017062  d :     0.052368
      dxz     :     0.006616
      dyz     :     0.008031
      dx2y2   :     0.008137
      dxy     :     0.012522
      f0      :     0.000611  f :     0.004001
      f+1     :     0.000751
      f-1     :     0.000536
      f+2     :     0.000414
      f-2     :     0.000423
      f+3     :     0.000428
      f-3     :     0.000838
 16 H s       :     0.546873  s :     0.546873
      pz      :     0.025093  p :     0.049195
      px      :     0.011609
      py      :     0.012493
 17 H s       :     0.613584  s :     0.613584
      pz      :     0.011619  p :     0.045756
      px      :     0.018360
      py      :     0.015777
 18 O s       :     3.795026  s :     3.795026
      pz      :     1.521512  p :     4.855636
      px      :     1.776411
      py      :     1.557712
      dz2     :     0.017706  d :     0.052910
      dxz     :     0.007984
      dyz     :     0.006649
      dx2y2   :     0.008102
      dxy     :     0.012470
      f0      :     0.000627  f :     0.004022
      f+1     :     0.000537
      f-1     :     0.000758
      f+2     :     0.000412
      f-2     :     0.000422
      f+3     :     0.000839
      f-3     :     0.000426
 19 H s       :     0.585240  s :     0.585240
      pz      :     0.019587  p :     0.045281
      px      :     0.013380
      py      :     0.012315
 20 H s       :     0.577963  s :     0.577963
      pz      :     0.010761  p :     0.044566
      px      :     0.015002
      py      :     0.018804
 21 O s       :     3.802221  s :     3.802221
      pz      :     1.537717  p :     4.897837
      px      :     1.806020
      py      :     1.554101
      dz2     :     0.016699  d :     0.051711
      dxz     :     0.008336
      dyz     :     0.006711
      dx2y2   :     0.007632
      dxy     :     0.012332
      f0      :     0.000633  f :     0.004010
      f+1     :     0.000533
      f-1     :     0.000740
      f+2     :     0.000416
      f-2     :     0.000421
      f+3     :     0.000836
      f-3     :     0.000432
 22 H s       :     0.570024  s :     0.570024
      pz      :     0.023901  p :     0.050133
      px      :     0.013921
      py      :     0.012311
 23 H s       :     0.581352  s :     0.581352
      pz      :     0.011048  p :     0.052140
      px      :     0.017188
      py      :     0.023904


                     *******************************
                     * LOEWDIN POPULATION ANALYSIS *
                     *******************************

----------------------
LOEWDIN ATOMIC CHARGES
----------------------
   0 O :   -0.320487
   1 H :    0.160140
   2 H :    0.153352
   3 O :   -0.373983
   4 H :    0.146092
   5 H :    0.149984
   6 O :   -0.301858
   7 H :    0.164789
   8 H :    0.156651
   9 O :   -0.342698
  10 H :    0.162013
  11 H :    0.149681
  12 O :   -0.299219
  13 H :    0.157274
  14 H :    0.171139
  15 O :   -0.281791
  16 H :    0.163936
  17 H :    0.162880
  18 O :   -0.270553
  19 H :    0.173535
  20 H :    0.178617
  21 O :   -0.356171
  22 H :    0.151169
  23 H :    0.145505

-------------------------------
LOEWDIN REDUCED ORBITAL CHARGES
-------------------------------
  0 O s       :     3.451312  s :     3.451312
      pz      :     1.671693  p :     4.806738
      px      :     1.394353
      py      :     1.740693
      dz2     :     0.010520  d :     0.057684
      dxz     :     0.012221
      dyz     :     0.011006
      dx2y2   :     0.009420
      dxy     :     0.014517
      f0      :     0.000469  f :     0.004753
      f+1     :     0.000845
      f-1     :     0.000649
      f+2     :     0.000411
      f-2     :     0.001014
      f+3     :     0.000475
      f-3     :     0.000890
  1 H s       :     0.671275  s :     0.671275
      pz      :     0.067330  p :     0.168585
      px      :     0.047070
      py      :     0.054185
  2 H s       :     0.647768  s :     0.647768
      pz      :     0.034246  p :     0.198880
      px      :     0.116137
      py      :     0.048496
  3 O s       :     3.463840  s :     3.463840
      pz      :     1.694671  p :     4.847728
      px      :     1.768867
      py      :     1.384190
      dz2     :     0.009792  d :     0.057642
      dxz     :     0.011439
      dyz     :     0.012771
      dx2y2   :     0.008896
      dxy     :     0.014746
      f0      :     0.000451  f :     0.004773
      f+1     :     0.000649
      f-1     :     0.000851
      f+2     :     0.000410
      f-2     :     0.001043
      f+3     :     0.000897
      f-3     :     0.000471
  4 H s       :     0.686254  s :     0.686254
      pz      :     0.066796  p :     0.167654
      px      :     0.054357
      py      :     0.046500
  5 H s       :     0.653146  s :     0.653146
      pz      :     0.034320  p :     0.196870
      px      :     0.048415
      py      :     0.114135
  6 O s       :     3.452429  s :     3.452429
      pz      :     1.520856  p :     4.785373
      px      :     1.777249
      py      :     1.487268
      dz2     :     0.021089  d :     0.059273
      dxz     :     0.006954
      dyz     :     0.009654
      dx2y2   :     0.010351
      dxy     :     0.011226
      f0      :     0.000804  f :     0.004783
      f+1     :     0.000586
      f-1     :     0.001176
      f+2     :     0.000414
      f-2     :     0.000422
      f+3     :     0.000934
      f-3     :     0.000448
  7 H s       :     0.672108  s :     0.672108
      pz      :     0.080927  p :     0.163103
      px      :     0.044061
      py      :     0.038115
  8 H s       :     0.651874  s :     0.651874
      pz      :     0.029559  p :     0.191474
      px      :     0.053292
      py      :     0.108623
  9 O s       :     3.458065  s :     3.458065
      pz      :     1.515660  p :     4.821695
      px      :     1.477989
      py      :     1.828045
      dz2     :     0.020348  d :     0.058149
      dxz     :     0.009612
      dyz     :     0.007137
      dx2y2   :     0.009386
      dxy     :     0.011665
      f0      :     0.000819  f :     0.004789
      f+1     :     0.001168
      f-1     :     0.000572
      f+2     :     0.000417
      f-2     :     0.000417
      f+3     :     0.000442
      f-3     :     0.000954
 10 H s       :     0.675817  s :     0.675817
      pz      :     0.080519  p :     0.162169
      px      :     0.037527
      py      :     0.044123
 11 H s       :     0.660867  s :     0.660867
      pz      :     0.029778  p :     0.189452
      px      :     0.106211
      py      :     0.053463
 12 O s       :     3.458017  s :     3.458017
      pz      :     1.567539  p :     4.776618
      px      :     1.444210
      py      :     1.764870
      dz2     :     0.020295  d :     0.059801
      dxz     :     0.009214
      dyz     :     0.006870
      dx2y2   :     0.011237
      dxy     :     0.012185
      f0      :     0.000738  f :     0.004783
      f+1     :     0.001145
      f-1     :     0.000596
      f+2     :     0.000410
      f-2     :     0.000416
      f+3     :     0.000453
      f-3     :     0.001026
 13 H s       :     0.666362  s :     0.666362
      pz      :     0.096558  p :     0.176364
      px      :     0.036743
      py      :     0.043062
 14 H s       :     0.671316  s :     0.671316
      pz      :     0.031403  p :     0.157545
      px      :     0.076068
      py      :     0.050074
 15 O s       :     3.450218  s :     3.450218
      pz      :     1.537516  p :     4.766069
      px      :     1.514841
      py      :     1.713711
      dz2     :     0.021174  d :     0.060578
      dxz     :     0.007083
      dyz     :     0.007378
      dx2y2   :     0.009429
      dxy     :     0.015514
      f0      :     0.000825  f :     0.004928
      f+1     :     0.000987
      f-1     :     0.000738
      f+2     :     0.000389
      f-2     :     0.000420
      f+3     :     0.000407
      f-3     :     0.001161
 16 H s       :     0.661357  s :     0.661357
      pz      :     0.096316  p :     0.174706
      px      :     0.036413
      py      :     0.041978
 17 H s       :     0.675957  s :     0.675957
      pz      :     0.032279  p :     0.161163
      px      :     0.072880
      py      :     0.056004
 18 O s       :     3.452700  s :     3.452700
      pz      :     1.509847  p :     4.751728
      px      :     1.714567
      py      :     1.527314
      dz2     :     0.022482  d :     0.061177
      dxz     :     0.007403
      dyz     :     0.007300
      dx2y2   :     0.009223
      dxy     :     0.014769
      f0      :     0.000876  f :     0.004947
      f+1     :     0.000739
      f-1     :     0.001002
      f+2     :     0.000388
      f-2     :     0.000422
      f+3     :     0.001113
      f-3     :     0.000407
 19 H s       :     0.664482  s :     0.664482
      pz      :     0.083123  p :     0.161983
      px      :     0.042381
      py      :     0.036478
 20 H s       :     0.660500  s :     0.660500
      pz      :     0.030348  p :     0.160883
      px      :     0.055783
      py      :     0.074752
 21 O s       :     3.456728  s :     3.456728
      pz      :     1.521770  p :     4.836404
      px      :     1.780031
      py      :     1.534603
      dz2     :     0.020862  d :     0.058243
      dxz     :     0.007652
      dyz     :     0.007347
      dx2y2   :     0.007701
      dxy     :     0.014682
      f0      :     0.000873  f :     0.004796
      f+1     :     0.000700
      f-1     :     0.000968
      f+2     :     0.000388
      f-2     :     0.000421
      f+3     :     0.001071
      f-3     :     0.000376
 22 H s       :     0.675308  s :     0.675308
      pz      :     0.092695  p :     0.173523
      px      :     0.043086
      py      :     0.037743
 23 H s       :     0.677448  s :     0.677448
      pz      :     0.032006  p :     0.177047
      px      :     0.058892
      py      :     0.086149


                      *****************************
                      * MAYER POPULATION ANALYSIS *
                      *****************************

  NA   - Mulliken gross atomic population
[...]
      f+1     :     0.000527
      f-1     :     0.000736
      f+2     :     0.000413
      f-2     :     0.000421
      f+3     :     0.000814
      f-3     :     0.000426
 19 H s       :     0.590878  s :     0.590878
      pz      :     0.018831  p :     0.045859
      px      :     0.014197
      py      :     0.012831
 20 H s       :     0.585599  s :     0.585599
      pz      :     0.011390  p :     0.045088
      px      :     0.015433
      py      :     0.018265
 21 O s       :     3.800150  s :     3.800150
      pz      :     1.533034  p :     4.878191
      px      :     1.797256
      py      :     1.547900
      dz2     :     0.015491  d :     0.049748
      dxz     :     0.008309
      dyz     :     0.006682
      dx2y2   :     0.007574
      dxy     :     0.011691
      f0      :     0.000617  f :     0.003941
      f+1     :     0.000523
      f-1     :     0.000719
      f+2     :     0.000416
      f-2     :     0.000420
      f+3     :     0.000814
      f-3     :     0.000433
 22 H s       :     0.581448  s :     0.581448
      pz      :     0.023022  p :     0.050620
      px      :     0.014788
      py      :     0.012810
 23 H s       :     0.597645  s :     0.597645
      pz      :     0.011751  p :     0.052753
      px      :     0.017670
      py      :     0.023332


                     *******************************
                     * LOEWDIN POPULATION ANALYSIS *
                     *******************************

----------------------
LOEWDIN ATOMIC CHARGES
----------------------
   0 O :   -0.313469
   1 H :    0.161912
   2 H :    0.145898
   3 O :   -0.376259
   4 H :    0.147976
   5 H :    0.142732
   6 O :   -0.294085
   7 H :    0.166113
   8 H :    0.148854
   9 O :   -0.341106
  10 H :    0.163008
  11 H :    0.142108
  12 O :   -0.291613
  13 H :    0.152789
  14 H :    0.171864
  15 O :   -0.275726
  16 H :    0.160256
  17 H :    0.164575
  18 O :   -0.264593
  19 H :    0.174851
  20 H :    0.179197
  21 O :   -0.354879
  22 H :    0.148432
  23 H :    0.141166

-------------------------------
LOEWDIN REDUCED ORBITAL CHARGES
-------------------------------
  0 O s       :     3.452843  s :     3.452843
      pz      :     1.666377  p :     4.798568
      px      :     1.398219
      py      :     1.733971
      dz2     :     0.010602  d :     0.057267
      dxz     :     0.011902
      dyz     :     0.010976
      dx2y2   :     0.009465
      dxy     :     0.014321
      f0      :     0.000473  f :     0.004791
      f+1     :     0.000856
      f-1     :     0.000650
      f+2     :     0.000412
      f-2     :     0.001016
      f+3     :     0.000480
      f-3     :     0.000905
  1 H s       :     0.669620  s :     0.669620
      pz      :     0.067201  p :     0.168468
      px      :     0.046635
      py      :     0.054633
  2 H s       :     0.654944  s :     0.654944
      pz      :     0.034794  p :     0.199158
      px      :     0.115405
      py      :     0.048959
  3 O s       :     3.465375  s :     3.465375
      pz      :     1.694274  p :     4.849246
      px      :     1.767332
      py      :     1.387640
      dz2     :     0.009742  d :     0.056828
      dxz     :     0.011336
      dyz     :     0.012398
      dx2y2   :     0.008882
      dxy     :     0.014469
      f0      :     0.000454  f :     0.004811
      f+1     :     0.000650
      f-1     :     0.000863
      f+2     :     0.000410
      f-2     :     0.001044
      f+3     :     0.000914
      f-3     :     0.000476
  4 H s       :     0.684060  s :     0.684060
      pz      :     0.066878  p :     0.167964
      px      :     0.054977
      py      :     0.046109
  5 H s       :     0.660248  s :     0.660248
      pz      :     0.035008  p :     0.197020
      px      :     0.048975
      py      :     0.113037
  6 O s       :     3.453983  s :     3.453983
      pz      :     1.520327  p :     4.776455
      px      :     1.766188
      py      :     1.489940
      dz2     :     0.020694  d :     0.058829
      dxz     :     0.007039
      dyz     :     0.009448
      dx2y2   :     0.010417
      dxy     :     0.011231
      f0      :     0.000804  f :     0.004819
      f+1     :     0.000588
      f-1     :     0.001189
      f+2     :     0.000416
      f-2     :     0.000421
      f+3     :     0.000949
      f-3     :     0.000452
  7 H s       :     0.670594  s :     0.670594
      pz      :     0.080267  p :     0.163292
      px      :     0.044782
      py      :     0.038243
  8 H s       :     0.659096  s :     0.659096
      pz      :     0.029882  p :     0.192051
      px      :     0.053732
      py      :     0.108437
  9 O s       :     3.459349  s :     3.459349
      pz      :     1.514380  p :     4.819574
      px      :     1.480372
      py      :     1.824822
      dz2     :     0.019857  d :     0.057360
      dxz     :     0.009392
      dyz     :     0.007201
      dx2y2   :     0.009341
      dxy     :     0.011569
      f0      :     0.000820  f :     0.004823
      f+1     :     0.001181
      f-1     :     0.000573
      f+2     :     0.000419
      f-2     :     0.000416
      f+3     :     0.000445
      f-3     :     0.000969
 10 H s       :     0.674657  s :     0.674657
      pz      :     0.079744  p :     0.162335
      px      :     0.037577
      py      :     0.045014
 11 H s       :     0.667765  s :     0.667765
      pz      :     0.030095  p :     0.190127
      px      :     0.105876
      py      :     0.054156
 12 O s       :     3.459024  s :     3.459024
      pz      :     1.568604  p :     4.768924
      px      :     1.447126
      py      :     1.753194
      dz2     :     0.019839  d :     0.058864
      dxz     :     0.009028
      dyz     :     0.006951
      dx2y2   :     0.011072
      dxy     :     0.011974
      f0      :     0.000738  f :     0.004800
      f+1     :     0.001153
      f-1     :     0.000597
      f+2     :     0.000412
      f-2     :     0.000415
      f+3     :     0.000455
      f-3     :     0.001031
 13 H s       :     0.670633  s :     0.670633
      pz      :     0.096120  p :     0.176577
      px      :     0.036777
      py      :     0.043680
 14 H s       :     0.670439  s :     0.670439
      pz      :     0.032042  p :     0.157696
      px      :     0.075121
      py      :     0.050533
 15 O s       :     3.451134  s :     3.451134
      pz      :     1.539137  p :     4.759930
      px      :     1.516471
      py      :     1.704321
      dz2     :     0.020654  d :     0.059715
      dxz     :     0.006980
      dyz     :     0.007425
      dx2y2   :     0.009475
      dxy     :     0.015179
      f0      :     0.000829  f :     0.004948
      f+1     :     0.000993
      f-1     :     0.000739
      f+2     :     0.000391
      f-2     :     0.000420
      f+3     :     0.000408
      f-3     :     0.001168
 16 H s       :     0.664996  s :     0.664996
      pz      :     0.095423  p :     0.174748
      px      :     0.036710
      py      :     0.042615
 17 H s       :     0.673968  s :     0.673968
      pz      :     0.032774  p :     0.161457
      px      :     0.072208
      py      :     0.056475
 18 O s       :     3.453853  s :     3.453853
      pz      :     1.512037  p :     4.745661
      px      :     1.704372
      py      :     1.529251
      dz2     :     0.021755  d :     0.060119
      dxz     :     0.007441
      dyz     :     0.007167
      dx2y2   :     0.009269
      dxy     :     0.014487
      f0      :     0.000874  f :     0.004961
      f+1     :     0.000739
      f-1     :     0.001008
      f+2     :     0.000390
      f-2     :     0.000421
      f+3     :     0.001120
      f-3     :     0.000408
 19 H s       :     0.663237  s :     0.663237
      pz      :     0.082240  p :     0.161912
      px      :     0.043025
      py      :     0.036647
 20 H s       :     0.660179  s :     0.660179
      pz      :     0.030641  p :     0.160624
      px      :     0.056067
      py      :     0.073916
 21 O s       :     3.457504  s :     3.457504
      pz      :     1.522718  p :     4.835257
      px      :     1.776902
      py      :     1.535638
      dz2     :     0.020294  d :     0.057298
      dxz     :     0.007682
      dyz     :     0.007234
      dx2y2   :     0.007661
      dxy     :     0.014426
      f0      :     0.000877  f :     0.004819
      f+1     :     0.000699
      f-1     :     0.000976
      f+2     :     0.000390
      f-2     :     0.000421
      f+3     :     0.001081
      f-3     :     0.000376
 22 H s       :     0.677736  s :     0.677736
      pz      :     0.091811  p :     0.173832
      px      :     0.043852
      py      :     0.038169
 23 H s       :     0.681086  s :     0.681086
      pz      :     0.032522  p :     0.177748
      px      :     0.059443
      py      :     0.085783


                      *****************************
                      * MAYER POPULATION ANALYSIS *
                      *****************************

  NA   - Mulliken gross atomic population
  ZA   - Total nuclear charge
  QA   - Mulliken gross atomic charge
  VA   - Mayer's total valence
  BVA  - Mayer's bonded valence
  FA   - Mayer's free valence

  ATOM       NA         ZA         QA         VA         BVA        FA
  0 O      8.7542     8.0000    -0.7542     2.0447     1.6547     0.3899
  1 H      0.6440     1.0000     0.3560     0.8951     0.8494     0.0457
  2 H      0.6177     1.0000     0.3823     0.9008     0.8559     0.0448
  3 O      8.7393     8.0000    -0.7393     2.0138     1.6264     0.3873
  4 H      0.6766     1.0000     0.3234     0.9154     0.8673     0.0481
  5 H      0.6297     1.0000     0.3703     0.9124     0.8676     0.0448
  6 O      8.7339     8.0000    -0.7339     2.0537     1.6653     0.3884
  7 H      0.6501     1.0000     0.3499     0.8991     0.8520     0.0471
  8 H      0.6211     1.0000     0.3789     0.9147     0.8706     0.0442
  9 O      8.7347     8.0000    -0.7347     2.0373     1.6489     0.3883
 10 H      0.6581     1.0000     0.3419     0.9072     0.8598     0.0475
 11 H      0.6421     1.0000     0.3579     0.9338     0.8880     0.0458
 12 O      8.6966     8.0000    -0.6966     2.1115     1.7261     0.3854
 13 H      0.6195     1.0000     0.3805     0.8977     0.8545     0.0432
 14 H      0.6515     1.0000     0.3485     0.9073     0.8593     0.0480
 15 O      8.6899     8.0000    -0.6899     2.1026     1.7208     0.3818
 16 H      0.6105     1.0000     0.3895     0.8879     0.8454     0.0425
 17 H      0.6655     1.0000     0.3345     0.9104     0.8622     0.0482
 18 O      8.6832     8.0000    -0.6832     2.1131     1.7323     0.3808
 19 H      0.6367     1.0000     0.3633     0.8893     0.8438     0.0456
 20 H      0.6307     1.0000     0.3693     0.8899     0.8450     0.0449
 21 O      8.7320     8.0000    -0.7320     2.0647     1.6783     0.3864
 22 H      0.6321     1.0000     0.3679     0.8981     0.8534     0.0448
 23 H      0.6504     1.0000     0.3496     0.9256     0.8797     0.0460

  Mayer bond orders larger than 0.100000
B(  0-O ,  1-H ) :   0.8373 B(  0-O ,  2-H ) :   0.7487 B(  3-O ,  4-H ) :   0.8612 
B(  3-O ,  5-H ) :   0.7769 B(  6-O ,  7-H ) :   0.8393 B(  6-O ,  8-H ) :   0.7463 
B(  8-H , 12-O ) :   0.1115 B(  9-O , 10-H ) :   0.8466 B(  9-O , 11-H ) :   0.7708 
B( 12-O , 13-H ) :   0.7968 B( 12-O , 14-H ) :   0.8341 B( 15-O , 16-H ) :   0.7962 
B( 15-O , 17-H ) :   0.8503 B( 18-O , 19-H ) :   0.8325 B( 18-O , 20-H ) :   0.8249 
B( 21-O , 22-H ) :   0.8257 B( 21-O , 23-H ) :   0.8231 


----------------------------------
MP2 DERIVATIVE INTEGRAL GENERATION
----------------------------------


Input Wavefunction Amplitudes       ... 12h2o.su.etal.mol1,2,4,6,7,8,9,11-orca.engrad-mp2.def2tzvp.frozencore.mp2tsaa.tmp
Input Correlated Electron Density   ... 12h2o.su.etal.mol1,2,4,6,7,8,9,11-orca.engrad-mp2.def2tzvp.frozencore.pmp2re
Input Energy Weighted Density       ... 12h2o.su.etal.mol1,2,4,6,7,8,9,11-orca.engrad-mp2.def2tzvp.frozencore.wmp2.tmp
Input SCF Electron Density          ... 12h2o.su.etal.mol1,2,4,6,7,8,9,11-orca.engrad-mp2.def2tzvp.frozencore.scfp

One-Electron Terms    ...
                        ... One-Electron Terms done
Prescreening matrices              ... done

Batch handling in the gradient evaluation:
Memory available                      ... 8000.0 MB
Memory per occupied orbital in Q2     ...   28.9 MB
Memory per occupied orbital in Q3     ...    0.1 MB
Total memory requirement per |i>      ...   29.0 MB
Max. Number of orbitals possible      ...    275
Number of orbitals treated per batch  ...     32
Number of batches to be done          ...      1
Batch   0: i=    8 ...    39

---------------------------------------
MP2 TOTAL ENERGY:     -610.580115770 Eh
---------------------------------------

The final MP2 gradient
  0:  -0.00554943   0.00405391   0.00169155
  1:   0.00060054   0.00069819  -0.00137594
  2:   0.01066635  -0.00324686  -0.00303466
  3:  -0.00290424  -0.00842803  -0.00140501
  4:  -0.00002936  -0.00195751  -0.00044842
  5:   0.00504536   0.01740158   0.00049713
  6:  -0.00148084  -0.00284201   0.01435325
  7:   0.00269710  -0.00038298  -0.00934160
  8:   0.00266086   0.00407948   0.00110527
  9:   0.00067657  -0.00166968  -0.00949839
 10:   0.00126626  -0.00132572   0.01050895
 11:  -0.00261115   0.00230116  -0.00366657
 12:  -0.01720990   0.00191693  -0.00228899
 13:  -0.00117534   0.00009993  -0.00251298
 14:   0.01670109  -0.00431496   0.00619995
 15:   0.00826450  -0.01206341   0.00067364
 16:  -0.00106186   0.00133802  -0.00314671
 17:  -0.00988749   0.00490072   0.00117024
 18:  -0.00616186  -0.00605564   0.00964529
 19:  -0.00260198   0.00036836  -0.00627069
 20:   0.00395302   0.00590886  -0.00118711
 21:  -0.00013356   0.00404590   0.00325209
 22:  -0.00081778   0.00068295  -0.00580598
 23:  -0.00090689  -0.00550917   0.00088569

-----------------------------------
NORM OF THE MP2 GRADIENT:  0.050277
-----------------------------------

-------------------------   --------------------
FINAL SINGLE POINT ENERGY      -610.580115770104
-------------------------   --------------------


                            ***************************************
                            *     ORCA property calculations      *
                            ***************************************

                                    ---------------------
                                    Active property flags
                                    ---------------------
   (+) Dipole Moment


------------------------------------------------------------------------------
                       ORCA ELECTRIC PROPERTIES CALCULATION
------------------------------------------------------------------------------

Dipole Moment Calculation                       ... on
Quadrupole Moment Calculation                   ... off
Polarizability Calculation                      ... off
GBWName                                         ... 12h2o.su.etal.mol1,2,4,6,7,8,9,11-orca.engrad-mp2.def2tzvp.frozencore.gbw
Electron density file                           ... 12h2o.su.etal.mol1,2,4,6,7,8,9,11-orca.engrad-mp2.def2tzvp.frozencore.scfp
The origin for moment calculation is the CENTER OF MASS  = ( 0.000207, -0.060451  0.673091)

-------------
DIPOLE MOMENT
-------------
                                X             Y             Z
Electronic contribution:     -0.03218      -0.09453       0.26063
Nuclear contribution   :      0.07922      -0.25891       0.08817
                        -----------------------------------------
Total Dipole Moment    :      0.04703      -0.35343       0.34880
                        -----------------------------------------
Magnitude (a.u.)       :      0.49879
Magnitude (Debye)      :      1.26782



--------------------
Rotational spectrum 
--------------------
 
Rotational constants in cm-1:     0.037026     0.017123     0.015517 
Rotational constants in MHz :  1110.002707   513.339032   465.194912 

 Dipole components along the rotational axes: 
x,y,z [a.u.] :     0.302232     0.345220     0.195623 
x,y,z [Debye]:     0.768213     0.877479     0.497235 

 

                         *** MP2 UNRELAXED DENSITY ***

------------------------------------------------------------------------------
                       ORCA ELECTRIC PROPERTIES CALCULATION
------------------------------------------------------------------------------

Dipole Moment Calculation                       ... on
Quadrupole Moment Calculation                   ... off
Polarizability Calculation                      ... off
GBWName                                         ... 12h2o.su.etal.mol1,2,4,6,7,8,9,11-orca.engrad-mp2.def2tzvp.frozencore.gbw
Electron density file                           ... 12h2o.su.etal.mol1,2,4,6,7,8,9,11-orca.engrad-mp2.def2tzvp.frozencore.pmp2ur
The origin for moment calculation is the CENTER OF MASS  = ( 0.000207, -0.060451  0.673091)

-------------
DIPOLE MOMENT
-------------
                                X             Y             Z
Electronic contribution:     -0.03410      -0.09420       0.26332
Nuclear contribution   :      0.07922      -0.25891       0.08817
                        -----------------------------------------
Total Dipole Moment    :      0.04512      -0.35311       0.35149
                        -----------------------------------------
Magnitude (a.u.)       :      0.50027
Magnitude (Debye)      :      1.27159



--------------------
Rotational spectrum 
--------------------
 
Rotational constants in cm-1:     0.037026     0.017123     0.015517 
Rotational constants in MHz :  1110.002707   513.339032   465.194912 

 Dipole components along the rotational axes: 
x,y,z [a.u.] :     0.305459     0.344929     0.194906 
x,y,z [Debye]:     0.776416     0.876740     0.495413 

 

                           *** MP2 RELAXED DENSITY ***

------------------------------------------------------------------------------
                       ORCA ELECTRIC PROPERTIES CALCULATION
------------------------------------------------------------------------------

Dipole Moment Calculation                       ... on
Quadrupole Moment Calculation                   ... off
Polarizability Calculation                      ... off
GBWName                                         ... 12h2o.su.etal.mol1,2,4,6,7,8,9,11-orca.engrad-mp2.def2tzvp.frozencore.gbw
Electron density file                           ... 12h2o.su.etal.mol1,2,4,6,7,8,9,11-orca.engrad-mp2.def2tzvp.frozencore.pmp2re
The origin for moment calculation is the CENTER OF MASS  = ( 0.000207, -0.060451  0.673091)

-------------
DIPOLE MOMENT
-------------
                                X             Y             Z
Electronic contribution:     -0.04146      -0.10792       0.27636
Nuclear contribution   :      0.07922      -0.25891       0.08817
                        -----------------------------------------
Total Dipole Moment    :      0.03776      -0.36683       0.36453
                        -----------------------------------------
Magnitude (a.u.)       :      0.51853
Magnitude (Debye)      :      1.31800



--------------------
Rotational spectrum 
--------------------
 
Rotational constants in cm-1:     0.037026     0.017123     0.015517 
Rotational constants in MHz :  1110.002707   513.339032   465.194912 

 Dipole components along the rotational axes: 
x,y,z [a.u.] :     0.320330     0.358719     0.193860 
x,y,z [Debye]:     0.814215     0.911790     0.492752 

 

Timings for individual modules:

Sum of individual times         ...      187.874 sec (=   3.131 min)
GTO integral calculation        ...        1.598 sec (=   0.027 min)   0.9 %
SCF iterations                  ...       27.711 sec (=   0.462 min)  14.7 %
MP2 module                      ...      158.565 sec (=   2.643 min)  84.4 %
                             ****ORCA TERMINATED NORMALLY****
TOTAL RUN TIME: 0 days 0 hours 3 minutes 8 seconds 864 msec
