
                                 *****************
                                 * O   R   C   A *
                                 *****************

           --- An Ab Initio, DFT and Semiempirical electronic structure package ---

                  #######################################################
                  #                        -***-                        #
                  #          Department of theory and spectroscopy      #
                  #               Directorship: Frank Neese             #
                  #        Max Planck Institute fuer Kohlenforschung    #
                  #                Kaiser Wilhelm Platz 1               #
                  #                 D-45470 Muelheim/Ruhr               #
                  #                      Germany                        #
                  #                                                     #
                  #                  All rights reserved                #
                  #                        -***-                        #
                  #######################################################


                         Program Version 4.2.0 -  RELEASE  -


 With contributions from (in alphabetic order):
   Daniel Aravena         : Magnetic Suceptibility
   Michael Atanasov       : Ab Initio Ligand Field Theory (pilot matlab implementation)
   Alexander A. Auer      : GIAO ZORA, VPT2
   Ute Becker             : Parallelization
   Giovanni Bistoni       : ED, misc. LED, open-shell LED, HFLED
   Martin Brehm           : Molecular dynamics
   Dmytro Bykov           : SCF Hessian
   Vijay G. Chilkuri      : MRCI spin determinant printing, contributions to CSF-ICE
   Dipayan Datta          : RHF DLPNO-CCSD density
   Achintya Kumar Dutta   : EOM-CC, STEOM-CC
   Dmitry Ganyushin       : Spin-Orbit,Spin-Spin,Magnetic field MRCI
   Miquel Garcia          : C-PCM Hessian, Gaussian charge scheme
   Yang Guo               : DLPNO-NEVPT2, CIM, IAO-localization
   Andreas Hansen         : Spin unrestricted coupled pair/coupled cluster methods
   Benjamin Helmich-Paris : CASSCF linear response (MC-RPA)
   Lee Huntington         : MR-EOM, pCC
   Robert Izsak           : Overlap fitted RIJCOSX, COSX-SCS-MP3, EOM
   Christian Kollmar      : KDIIS, OOCD, Brueckner-CCSD(T), CCSD density
   Simone Kossmann        : Meta GGA functionals, TD-DFT gradient, OOMP2, MP2 Hessian
   Martin Krupicka        : AUTO-CI
   Lucas Lang             : DCDCAS
   Dagmar Lenk            : GEPOL surface, SMD
   Dimitrios Liakos       : Extrapolation schemes; Compound Job, initial MDCI parallelization
   Dimitrios Manganas     : Further ROCIS development; embedding schemes
   Dimitrios Pantazis     : SARC Basis sets
   Taras Petrenko         : DFT Hessian,TD-DFT gradient, ASA, ECA, R-Raman, ABS, FL, XAS/XES, NRVS
   Peter Pinski           : DLPNO-MP2, DLPNO-MP2 Gradient
   Christoph Reimann      : Effective Core Potentials
   Marius Retegan         : Local ZFS, SOC
   Christoph Riplinger    : Optimizer, TS searches, QM/MM, DLPNO-CCSD(T), (RO)-DLPNO pert. Triples
   Tobias Risthaus        : Range-separated hybrids, TD-DFT gradient, RPA, STAB
   Michael Roemelt        : Original ROCIS implementation
   Masaaki Saitow         : Open-shell DLPNO-CCSD energy and density
   Barbara Sandhoefer     : DKH picture change effects
   Avijit Sen             : IP-ROCIS
   Kantharuban Sivalingam : CASSCF convergence, NEVPT2, FIC-MRCI
   Bernardo de Souza      : ESD, SOC TD-DFT
   Georgi Stoychev        : AutoAux, RI-MP2 NMR
   Willem Van den Heuvel  : Paramagnetic NMR
   Boris Wezisla          : Elementary symmetry handling
   Frank Wennmohs         : Technical directorship


 We gratefully acknowledge several colleagues who have allowed us to
 interface, adapt or use parts of their codes:
   Stefan Grimme, W. Hujo, H. Kruse,             : VdW corrections, initial TS optimization,
                  C. Bannwarth                     DFT functionals, gCP, sTDA/sTD-DF
   Ed Valeev, F. Pavosevic, A. Kumar             : LibInt (2-el integral package), F12 methods
   Garnet Chan, S. Sharma, J. Yang, R. Olivares  : DMRG
   Ulf Ekstrom                                   : XCFun DFT Library
   Mihaly Kallay                                 : mrcc  (arbitrary order and MRCC methods)
   Andreas Klamt, Michael Diedenhofen            : otool_cosmo (COSMO solvation model)
   Jiri Pittner, Ondrej Demel                    : Mk-CCSD
   Frank Weinhold                                : gennbo (NPA and NBO analysis)
   Christopher J. Cramer and Donald G. Truhlar   : smd solvation model
   Lars Goerigk                                  : TD-DFT with DH, B97 family of functionals
   V. Asgeirsson, H. Jonsson                     : NEB implementation
   FAccTs GmbH                                   : IRC, NEB, NEB-TS, Multilevel, MM, QM/MM, CI optimization
   S Lehtola, MJT Oliveira, MAL Marques          : LibXC Library


 Your calculation uses the libint2 library for the computation of 2-el integrals
 For citations please refer to: http://libint.valeyev.net

 Your ORCA version has been built with support for libXC version: 4.2.3
 For citations please refer to: https://tddft.org/programs/libxc/

 This ORCA versions uses:
   CBLAS   interface :  Fast vector & matrix operations
   LAPACKE interface :  Fast linear algebra routines
   SCALAPACK package :  Parallel linear algebra routines


----- Orbital basis set information -----
Your calculation utilizes the basis: def2-TZVP
   F. Weigend and R. Ahlrichs, Phys. Chem. Chem. Phys. 7, 3297 (2005).

================================================================================
                                        WARNINGS
                       Please study these warnings very carefully!
================================================================================


WARNING: The frozen-core approximation for MP2-gradient calculations is turned on by default.

INFO   : the flag for use of LIBINT has been found!

================================================================================
                                       INPUT FILE
================================================================================
NAME = 12meoh.boyd.etal.mol0,4,9-orca.engrad-mp2.def2tzvp.frozencore.inp
|  1> # 12meoh.boyd.etal.mol0,4,9
|  2> ! MP2 def2-TZVP EnGrad TightSCF
|  3> 
|  4> %pal
|  5>     nprocs 6
|  6> end
|  7> 
|  8> %maxcore 8000
|  9> 
| 10> %scf
| 11>     ConvForced true
| 12> end
| 13> 
| 14> *xyz 0 1
| 15> O  -1.776108874  -2.741384797  -1.019308298
| 16> H  -2.520094035  -2.452295987  -0.420778302
| 17> C  -2.174025166  -3.952700964  -1.647004581
| 18> H  -1.359803895  -4.272673416  -2.304149236
| 19> H  -3.075973971  -3.808692420  -2.256751112
| 20> H  -2.370225393  -4.752784761  -0.918966137
| 21> O  -1.358578914   1.232360421   1.189721000
| 22> H  -1.058250183   1.216459361   0.238591307
| 23> C  -0.389763452   1.957872567   1.943072362
| 24> H  -0.747220771   2.012806578   2.975200343
| 25> H  -0.260410585   2.982763209   1.565366540
| 26> H   0.585220638   1.453754179   1.934070793
| 27> O   1.390610024   3.194080770  -1.536658882
| 28> H   2.162932299   2.881562730  -0.993525056
| 29> C   1.202977189   4.580367182  -1.302880219
| 30> H   0.374773115   4.915764831  -1.934164643
| 31> H   2.098649340   5.157710875  -1.570472348
| 32> H   0.950320401   4.800436015  -0.254328827
| 33> *
| 34> 
| 35>                          ****END OF INPUT****
================================================================================

                     *******************************
                     * Energy+Gradient Calculation *
                     *******************************

---------------------------------
CARTESIAN COORDINATES (ANGSTROEM)
---------------------------------
  O     -1.776109   -2.741385   -1.019308
  H     -2.520094   -2.452296   -0.420778
  C     -2.174025   -3.952701   -1.647005
  H     -1.359804   -4.272673   -2.304149
  H     -3.075974   -3.808692   -2.256751
  H     -2.370225   -4.752785   -0.918966
  O     -1.358579    1.232360    1.189721
  H     -1.058250    1.216459    0.238591
  C     -0.389763    1.957873    1.943072
  H     -0.747221    2.012807    2.975200
  H     -0.260411    2.982763    1.565367
  H      0.585221    1.453754    1.934071
  O      1.390610    3.194081   -1.536659
  H      2.162932    2.881563   -0.993525
  C      1.202977    4.580367   -1.302880
  H      0.374773    4.915765   -1.934165
  H      2.098649    5.157711   -1.570472
  H      0.950320    4.800436   -0.254329

----------------------------
CARTESIAN COORDINATES (A.U.)
----------------------------
  NO LB      ZA    FRAG     MASS         X           Y           Z
   0 O     8.0000    0    15.999   -3.356359   -5.180466   -1.926214
   1 H     1.0000    0     1.008   -4.762288   -4.634168   -0.795156
   2 C     6.0000    0    12.011   -4.108312   -7.469522   -3.112388
   3 H     1.0000    0     1.008   -2.569657   -8.074183   -4.354211
   4 H     1.0000    0     1.008   -5.812748   -7.197386   -4.264642
   5 H     1.0000    0     1.008   -4.479077   -8.981462   -1.736594
   6 O     8.0000    0    15.999   -2.567342    2.328824    2.248247
   7 H     1.0000    0     1.008   -1.999803    2.298775    0.450872
   8 C     6.0000    0    12.011   -0.736546    3.699843    3.671875
   9 H     1.0000    0     1.008   -1.412043    3.803653    5.622314
  10 H     1.0000    0     1.008   -0.492105    5.636606    2.958114
  11 H     1.0000    0     1.008    1.105907    2.747197    3.654864
  12 O     8.0000    0    15.999    2.627872    6.035938   -2.903864
  13 H     1.0000    0     1.008    4.087350    5.445364   -1.877490
  14 C     6.0000    0    12.011    2.273297    8.655640   -2.462087
  15 H     1.0000    0     1.008    0.708219    9.289449   -3.655041
  16 H     1.0000    0     1.008    3.965873    9.746661   -2.967763
  17 H     1.0000    0     1.008    1.795845    9.071509   -0.480612

--------------------------------
INTERNAL COORDINATES (ANGSTROEM)
--------------------------------
 O      0   0   0     0.000000000000     0.00000000     0.00000000
 H      1   0   0     0.997659468941     0.00000000     0.00000000
 C      1   2   0     1.421135762539   107.64775557     0.00000000
 H      3   1   2     1.094156179795   107.82879233   180.01581697
 H      3   1   2     1.098198952673   111.31077271    61.21076131
 H      3   1   2     1.099394645811   112.19621244   299.46622341
 O      2   1   3     4.185632356415   106.19934313   183.48690833
 H      7   2   1     0.997545930411    72.70143758    38.43416772
 C      7   2   1     1.425661091575   147.12777596   302.05091386
 H      9   7   2     1.093655178580   107.58652868   263.02036100
 H      9   7   2     1.099906668874   111.87891396   144.06156185
 H      9   7   2     1.097638534818   111.44220277    22.12538215
 O     11   9   7     3.520381496609   114.43602323   288.67564631
 H     13  11   9     0.994556974101    82.19066065   291.65152439
 C     13  11   9     1.418325971045    81.45350794   181.34281879
 H     15  13  11     1.094044603812   107.73887728   256.67379152
 H     15  13  11     1.098708282224   111.44548874   137.88801859
 H     15  13  11     1.100784159336   112.50562595    16.01895652

---------------------------
INTERNAL COORDINATES (A.U.)
---------------------------
 O      0   0   0     0.000000000000     0.00000000     0.00000000
 H      1   0   0     1.885303171211     0.00000000     0.00000000
 C      1   2   0     2.685557390320   107.64775557     0.00000000
 H      3   1   2     2.067655527549   107.82879233   180.01581697
 H      3   1   2     2.075295261111   111.31077271    61.21076131
 H      3   1   2     2.077554793683   112.19621244   299.46622341
 O      2   1   3     7.909698850904   106.19934313   183.48690833
 H      7   2   1     1.885088614484    72.70143758    38.43416772
 C      7   2   1     2.694109022864   147.12777596   302.05091386
 H      9   7   2     2.066708772461   107.58652868   263.02036100
 H      9   7   2     2.078522377045   111.87891396   144.06156185
 H      9   7   2     2.074236224845   111.44220277    22.12538215
 O     11   9   7     6.652556915514   114.43602323   288.67564631
 H     13  11   9     1.879440305631    82.19066065   291.65152439
 C     13  11   9     2.680247653903    81.45350794   181.34281879
 H     15  13  11     2.067444679499   107.73887728   256.67379152
 H     15  13  11     2.076257754474   111.44548874   137.88801859
 H     15  13  11     2.080180593704   112.50562595    16.01895652

---------------------
BASIS SET INFORMATION
---------------------
There are 3 groups of distinct atoms

 Group   1 Type O   : 11s6p2d1f contracted to 5s3p2d1f pattern {62111/411/11/1}
 Group   2 Type H   : 5s1p contracted to 3s1p pattern {311/1}
 Group   3 Type C   : 11s6p2d1f contracted to 5s3p2d1f pattern {62111/411/11/1}

Atom   0O    basis set group =>   1
Atom   1H    basis set group =>   2
Atom   2C    basis set group =>   3
Atom   3H    basis set group =>   2
Atom   4H    basis set group =>   2
Atom   5H    basis set group =>   2
Atom   6O    basis set group =>   1
Atom   7H    basis set group =>   2
Atom   8C    basis set group =>   3
Atom   9H    basis set group =>   2
Atom  10H    basis set group =>   2
Atom  11H    basis set group =>   2
Atom  12O    basis set group =>   1
Atom  13H    basis set group =>   2
Atom  14C    basis set group =>   3
Atom  15H    basis set group =>   2
Atom  16H    basis set group =>   2
Atom  17H    basis set group =>   2


           ************************************************************
           *        Program running with 6 parallel MPI-processes     *
           *              working on a common directory               *
           ************************************************************
------------------------------------------------------------------------------
                           ORCA GTO INTEGRAL CALCULATION
------------------------------------------------------------------------------

                         BASIS SET STATISTICS AND STARTUP INFO

 # of primitive gaussian shells          ...  192
 # of primitive gaussian functions       ...  372
 # of contracted shells                  ...  114
 # of contracted basis functions         ...  258
 Highest angular momentum                ...    3
 Maximum contraction depth               ...    6
 Integral package used                   ... LIBINT
 Integral threshhold            Thresh   ...  2.500e-11
 Primitive cut-off              TCut     ...  2.500e-12


------------------------------ INTEGRAL EVALUATION ----------------------------


 * One electron integrals 
 Pre-screening matrix                    ... done
 Shell pair data                         ... done (   0.001 sec)



           ************************************************************
           *        Program running with 6 parallel MPI-processes     *
           *              working on a common directory               *
           ************************************************************
-------------------------------------------------------------------------------
                                 ORCA SCF
-------------------------------------------------------------------------------

------------
SCF SETTINGS
------------
Hamiltonian:
 Ab initio Hamiltonian  Method          .... Hartree-Fock(GTOs)


General Settings:
 Integral files         IntName         .... 12meoh.boyd.etal.mol0,4,9-orca.engrad-mp2.def2tzvp.frozencore
 Hartree-Fock type      HFTyp           .... RHF
 Total Charge           Charge          ....    0
 Multiplicity           Mult            ....    1
 Number of Electrons    NEL             ....   54
 Basis Dimension        Dim             ....  258
 Nuclear Repulsion      ENuc            ....    210.2415461554 Eh

Convergence Acceleration:
 DIIS                   CNVDIIS         .... on
   Start iteration      DIISMaxIt       ....    12
   Startup error        DIISStart       ....  0.200000
   # of expansion vecs  DIISMaxEq       ....     5
   Bias factor          DIISBfac        ....   1.050
   Max. coefficient     DIISMaxC        ....  10.000
 Newton-Raphson         CNVNR           .... off
 SOSCF                  CNVSOSCF        .... on
   Start iteration      SOSCFMaxIt      ....   150
   Startup grad/error   SOSCFStart      ....  0.003300
 Level Shifting         CNVShift        .... on
   Level shift para.    LevelShift      ....    0.2500
   Turn off err/grad.   ShiftErr        ....    0.0010
 Zerner damping         CNVZerner       .... off
 Static damping         CNVDamp         .... on
   Fraction old density DampFac         ....    0.7000
   Max. Damping (<1)    DampMax         ....    0.9800
   Min. Damping (>=0)   DampMin         ....    0.0000
   Turn off err/grad.   DampErr         ....    0.1000
 Fernandez-Rico         CNVRico         .... off

SCF Procedure:
 Maximum # iterations   MaxIter         ....   125
 SCF integral mode      SCFMode         .... Direct
   Integral package                     .... LIBINT
 Reset frequency        DirectResetFreq ....    20
 Integral Threshold     Thresh          ....  2.500e-11 Eh
 Primitive CutOff       TCut            ....  2.500e-12 Eh

Convergence Tolerance:
 Convergence Check Mode ConvCheckMode   .... Total+1el-Energy
 Convergence forced     ConvForced      .... 1
 Energy Change          TolE            ....  1.000e-08 Eh
 1-El. energy change                    ....  1.000e-05 Eh
 Orbital Gradient       TolG            ....  1.000e-05
 Orbital Rotation angle TolX            ....  1.000e-05
 DIIS Error             TolErr          ....  5.000e-07


Diagonalization of the overlap matrix:
Smallest eigenvalue                        ... 1.287e-03
Time for diagonalization                   ...    0.011 sec
Threshold for overlap eigenvalues          ... 1.000e-08
Number of eigenvalues below threshold      ... 0
Time for construction of square roots      ...    0.005 sec
Total time needed                          ...    0.017 sec

-------------------
DFT GRID GENERATION
-------------------

General Integration Accuracy     IntAcc      ...  4.340
Radial Grid Type                 RadialGrid  ... Gauss-Chebyshev
Angular Grid (max. acc.)         AngularGrid ... Lebedev-110
Angular grid pruning method      GridPruning ... 3 (G Style)
Weight generation scheme         WeightScheme... Becke
Basis function cutoff            BFCut       ...    1.0000e-11
Integration weight cutoff        WCut        ...    1.0000e-14
Grids for H and He will be reduced by one unit

# of grid points (after initial pruning)     ...  19644 (   0.0 sec)
# of grid points (after weights+screening)   ...  18760 (   0.0 sec)
nearest neighbour list constructed           ...    0.0 sec
Grid point re-assignment to atoms done       ...    0.0 sec
Grid point division into batches done        ...    0.0 sec
Reduced shell lists constructed in    0.0 sec

Total number of grid points                  ...    18760
Total number of batches                      ...      303
Average number of points per batch           ...       61
Average number of grid points per atom       ...     1042
Average number of shells per batch           ...    51.73 (45.38%)
Average number of basis functions per batch  ...   109.19 (42.32%)
Average number of large shells per batch     ...    37.31 (72.12%)
Average number of large basis fcns per batch ...    84.65 (77.53%)
Maximum spatial batch extension              ...  18.35, 13.47, 16.71 au
Average spatial batch extension              ...   0.52,  0.45,  0.52 au

Time for grid setup =    0.096 sec

------------------------------
INITIAL GUESS: MODEL POTENTIAL
------------------------------
Loading Hartree-Fock densities                     ... done
Calculating cut-offs                               ... done
Setting up the integral package                    ... done
Initializing the effective Hamiltonian             ... done
Starting the Coulomb interaction                   ... done (   0.0 sec)
Reading the grid                                   ... done
Mapping shells                                     ... done
Starting the XC term evaluation                    ... done (   0.0 sec)
Transforming the Hamiltonian                       ... done (   0.0 sec)
Diagonalizing the Hamiltonian                      ... done (   0.0 sec)
Back transforming the eigenvectors                 ... done (   0.0 sec)
Now organizing SCF variables                       ... done
                      ------------------
                      INITIAL GUESS DONE (   0.2 sec)
                      ------------------
--------------
SCF ITERATIONS
--------------
ITER       Energy         Delta-E        Max-DP      RMS-DP      [F,P]     Damp
               ***  Starting incremental Fock matrix formation  ***
  0   -344.9111083303   0.000000000000 0.03655427  0.00076941  0.2887598 0.7000
  1   -345.0417523753  -0.130644044947 0.02494854  0.00057021  0.2178560 0.7000
                               ***Turning on DIIS***
  2   -345.1170635924  -0.075311217118 0.01451681  0.00035130  0.1628188 0.7000
  3   -345.9902753114  -0.873211718950 0.00753180  0.00019572  0.1199431 0.7000
  4   -345.8380114270   0.152263884344 0.01676949  0.00046788  0.0845523 0.0000
  5   -345.3004329514   0.537578475610 0.00221249  0.00006232  0.0061319 0.0000
                      *** Initiating the SOSCF procedure ***
                           *** Shutting down DIIS ***
                      *** Re-Reading the Fockian *** 
                      *** Removing any level shift *** 
ITER      Energy       Delta-E        Grad      Rot      Max-DP    RMS-DP
  6   -345.27524044   0.0251925136  0.000757  0.000757  0.000804  0.000031
               *** Restarting incremental Fock matrix formation ***
  7   -345.27002544   0.0052149961  0.000283  0.000348  0.000479  0.000017
  8   -345.27003237  -0.0000069261  0.000190  0.000202  0.000338  0.000012
  9   -345.27003407  -0.0000017038  0.000029  0.000028  0.000054  0.000002
 10   -345.27003412  -0.0000000525  0.000006  0.000012  0.000017  0.000001
                 **** Energy Check signals convergence ****
              ***Rediagonalizing the Fockian in SOSCF/NRSCF***

               *****************************************************
               *                     SUCCESS                       *
               *           SCF CONVERGED AFTER  11 CYCLES          *
               *****************************************************


----------------
TOTAL SCF ENERGY
----------------

Total Energy       :         -345.27003413 Eh           -9395.27528 eV

Components:
Nuclear Repulsion  :          210.24154616 Eh            5720.96332 eV
Electronic Energy  :         -555.51158028 Eh          -15116.23859 eV
One Electron Energy:         -889.51135611 Eh          -24204.83455 eV
Two Electron Energy:          333.99977582 Eh            9088.59596 eV

Virial components:
Potential Energy   :         -689.87206991 Eh          -18772.37339 eV
Kinetic Energy     :          344.60203578 Eh            9377.09812 eV
Virial Ratio       :            2.00193846


---------------
SCF CONVERGENCE
---------------

  Last Energy change         ...   -4.3070e-09  Tolerance :   1.0000e-08
  Last MAX-Density change    ...    4.1618e-06  Tolerance :   1.0000e-07
  Last RMS-Density change    ...    1.3106e-07  Tolerance :   5.0000e-09
  Last Orbital Gradient      ...    2.0242e-06  Tolerance :   1.0000e-05
  Last Orbital Rotation      ...    4.8134e-06  Tolerance :   1.0000e-05

             **** THE GBW FILE WAS UPDATED (12meoh.boyd.etal.mol0,4,9-orca.engrad-mp2.def2tzvp.frozencore.gbw) ****
             **** DENSITY FILE WAS UPDATED (12meoh.boyd.etal.mol0,4,9-orca.engrad-mp2.def2tzvp.frozencore.scfp) ****
             **** ENERGY FILE WAS UPDATED (12meoh.boyd.etal.mol0,4,9-orca.engrad-mp2.def2tzvp.frozencore.en.tmp) ****
             **** THE GBW FILE WAS UPDATED (12meoh.boyd.etal.mol0,4,9-orca.engrad-mp2.def2tzvp.frozencore.gbw) ****
             **** DENSITY FILE WAS UPDATED (12meoh.boyd.etal.mol0,4,9-orca.engrad-mp2.def2tzvp.frozencore.scfp) ****
----------------
ORBITAL ENERGIES
----------------

  NO   OCC          E(Eh)            E(eV) 
   0   2.0000     -20.564520      -559.5891 
   1   2.0000     -20.552560      -559.2636 
   2   2.0000     -20.549835      -559.1894 
   3   2.0000     -11.276469      -306.8483 
   4   2.0000     -11.267246      -306.5974 
   5   2.0000     -11.267193      -306.5959 
   6   2.0000      -1.354826       -36.8667 
   7   2.0000      -1.341765       -36.5113 
   8   2.0000      -1.337553       -36.3967 
   9   2.0000      -0.924813       -25.1654 
  10   2.0000      -0.914591       -24.8873 
  11   2.0000      -0.914074       -24.8732 
  12   2.0000      -0.688974       -18.7479 
  13   2.0000      -0.676497       -18.4084 
  14   2.0000      -0.673652       -18.3310 
  15   2.0000      -0.623091       -16.9552 
  16   2.0000      -0.612657       -16.6712 
  17   2.0000      -0.610691       -16.6178 
  18   2.0000      -0.598142       -16.2763 
  19   2.0000      -0.586395       -15.9566 
  20   2.0000      -0.583827       -15.8868 
  21   2.0000      -0.505052       -13.7432 
  22   2.0000      -0.495565       -13.4850 
  23   2.0000      -0.494489       -13.4557 
  24   2.0000      -0.454813       -12.3761 
  25   2.0000      -0.443946       -12.0804 
  26   2.0000      -0.442659       -12.0454 
  27   0.0000       0.116177         3.1613 
  28   0.0000       0.137781         3.7492 
  29   0.0000       0.161869         4.4047 
  30   0.0000       0.168579         4.5873 
  31   0.0000       0.179313         4.8794 
  32   0.0000       0.190619         5.1870 
  33   0.0000       0.218228         5.9383 
  34   0.0000       0.225857         6.1459 
  35   0.0000       0.230258         6.2657 
  36   0.0000       0.232910         6.3378 
  37   0.0000       0.234199         6.3729 
  38   0.0000       0.251427         6.8417 
  39   0.0000       0.259410         7.0589 
  40   0.0000       0.263598         7.1729 
  41   0.0000       0.304661         8.2903 
  42   0.0000       0.323062         8.7910 
  43   0.0000       0.331924         9.0321 
  44   0.0000       0.342540         9.3210 
  45   0.0000       0.344663         9.3788 
  46   0.0000       0.345124         9.3913 
  47   0.0000       0.407109        11.0780 
  48   0.0000       0.458085        12.4651 
  49   0.0000       0.463576        12.6146 
  50   0.0000       0.479937        13.0597 
  51   0.0000       0.518021        14.0961 
  52   0.0000       0.523067        14.2334 
  53   0.0000       0.532827        14.4989 
  54   0.0000       0.567699        15.4479 
  55   0.0000       0.580797        15.8043 
  56   0.0000       0.591458        16.0944 
  57   0.0000       0.603553        16.4235 
  58   0.0000       0.611771        16.6471 
  59   0.0000       0.624384        16.9903 
  60   0.0000       0.625096        17.0097 
  61   0.0000       0.633978        17.2514 
  62   0.0000       0.646990        17.6055 
  63   0.0000       0.655944        17.8491 
  64   0.0000       0.666887        18.1469 
  65   0.0000       0.682819        18.5805 
  66   0.0000       0.687978        18.7208 
  67   0.0000       0.691005        18.8032 
  68   0.0000       0.703558        19.1448 
  69   0.0000       0.710982        19.3468 
  70   0.0000       0.717815        19.5327 
  71   0.0000       0.748133        20.3577 
  72   0.0000       0.770017        20.9532 
  73   0.0000       0.779326        21.2065 
  74   0.0000       0.826809        22.4986 
  75   0.0000       0.886950        24.1351 
  76   0.0000       0.888443        24.1758 
  77   0.0000       0.893499        24.3133 
  78   0.0000       0.919876        25.0311 
  79   0.0000       0.926942        25.2234 
  80   0.0000       0.933991        25.4152 
  81   0.0000       0.945513        25.7287 
  82   0.0000       0.957759        26.0619 
  83   0.0000       0.990216        26.9452 
  84   0.0000       1.094114        29.7724 
  85   0.0000       1.095270        29.8038 
  86   0.0000       1.097635        29.8682 
  87   0.0000       1.111272        30.2392 
  88   0.0000       1.120168        30.4813 
  89   0.0000       1.177900        32.0523 
  90   0.0000       1.246814        33.9275 
  91   0.0000       1.251926        34.0666 
  92   0.0000       1.258444        34.2440 
  93   0.0000       1.538209        41.8568 
  94   0.0000       1.539905        41.9030 
  95   0.0000       1.548000        42.1232 
  96   0.0000       1.656777        45.0832 
  97   0.0000       1.662078        45.2274 
  98   0.0000       1.673443        45.5367 
  99   0.0000       1.705654        46.4132 
 100   0.0000       1.711605        46.5752 
 101   0.0000       1.717174        46.7267 
 102   0.0000       1.772242        48.2251 
 103   0.0000       1.781028        48.4642 
 104   0.0000       1.784356        48.5548 
 105   0.0000       1.790388        48.7189 
 106   0.0000       1.792809        48.7848 
 107   0.0000       1.795940        48.8700 
 108   0.0000       1.797651        48.9166 
 109   0.0000       1.803783        49.0834 
 110   0.0000       1.810690        49.2714 
 111   0.0000       1.828476        49.7554 
 112   0.0000       1.847174        50.2642 
 113   0.0000       1.862322        50.6764 
 114   0.0000       1.866613        50.7931 
 115   0.0000       1.871031        50.9133 
 116   0.0000       1.885736        51.3135 
 117   0.0000       1.966318        53.5062 
 118   0.0000       1.971011        53.6339 
 119   0.0000       1.993133        54.2359 
 120   0.0000       2.133413        58.0531 
 121   0.0000       2.141705        58.2788 
 122   0.0000       2.158075        58.7242 
 123   0.0000       2.212268        60.1989 
 124   0.0000       2.212931        60.2169 
 125   0.0000       2.227805        60.6216 
 126   0.0000       2.247606        61.1605 
 127   0.0000       2.249128        61.2019 
 128   0.0000       2.258590        61.4594 
 129   0.0000       2.285210        62.1837 
 130   0.0000       2.291687        62.3600 
 131   0.0000       2.295664        62.4682 
 132   0.0000       2.312250        62.9195 
 133   0.0000       2.316976        63.0481 
 134   0.0000       2.326147        63.2977 
 135   0.0000       2.440640        66.4132 
 136   0.0000       2.446480        66.5721 
 137   0.0000       2.451034        66.6960 
 138   0.0000       2.546423        69.2917 
 139   0.0000       2.547480        69.3204 
 140   0.0000       2.556692        69.5711 
 141   0.0000       2.559256        69.6409 
 142   0.0000       2.571856        69.9838 
 143   0.0000       2.583708        70.3063 
 144   0.0000       2.596568        70.6562 
 145   0.0000       2.605423        70.8972 
 146   0.0000       2.610782        71.0430 
 147   0.0000       2.633312        71.6561 
 148   0.0000       2.638073        71.7856 
 149   0.0000       2.676132        72.8213 
 150   0.0000       2.700297        73.4788 
 151   0.0000       2.702513        73.5391 
 152   0.0000       2.706549        73.6489 
 153   0.0000       2.777825        75.5885 
 154   0.0000       2.784684        75.7751 
 155   0.0000       2.802286        76.2541 
 156   0.0000       2.832297        77.0707 
 157   0.0000       2.843472        77.3748 
 158   0.0000       2.852029        77.6077 
 159   0.0000       2.902427        78.9790 
 160   0.0000       2.906614        79.0930 
 161   0.0000       2.914594        79.3101 
 162   0.0000       3.046273        82.8933 
 163   0.0000       3.051218        83.0279 
 164   0.0000       3.054663        83.1216 
 165   0.0000       3.110705        84.6466 
 166   0.0000       3.114795        84.7579 
 167   0.0000       3.124375        85.0186 
 168   0.0000       3.140341        85.4530 
 169   0.0000       3.141657        85.4888 
 170   0.0000       3.156996        85.9062 
 171   0.0000       3.238946        88.1362 
 172   0.0000       3.250974        88.4635 
 173   0.0000       3.276314        89.1530 
 174   0.0000       3.361073        91.4594 
 175   0.0000       3.362521        91.4989 
 176   0.0000       3.365276        91.5738 
 177   0.0000       3.418012        93.0088 
 178   0.0000       3.424210        93.1775 
 179   0.0000       3.427695        93.2723 
 180   0.0000       3.536548        96.2344 
 181   0.0000       3.543161        96.4143 
 182   0.0000       3.551116        96.6308 
 183   0.0000       3.630089        98.7797 
 184   0.0000       3.641722        99.0963 
 185   0.0000       3.646743        99.2329 
 186   0.0000       3.673322        99.9562 
 187   0.0000       3.674846        99.9976 
 188   0.0000       3.677670       100.0745 
 189   0.0000       3.723550       101.3229 
 190   0.0000       3.726420       101.4010 
 191   0.0000       3.727824       101.4392 
 192   0.0000       3.863451       105.1298 
 193   0.0000       3.867067       105.2283 
 194   0.0000       3.869229       105.2871 
 195   0.0000       3.887950       105.7965 
 196   0.0000       3.896039       106.0166 
 197   0.0000       3.899249       106.1040 
 198   0.0000       3.906350       106.2972 
 199   0.0000       3.906869       106.3113 
 200   0.0000       3.915578       106.5483 
 201   0.0000       4.246304       115.5478 
 202   0.0000       4.257158       115.8432 
 203   0.0000       4.272218       116.2530 
 204   0.0000       4.487469       122.1102 
 205   0.0000       4.500400       122.4621 
 206   0.0000       4.506416       122.6258 
 207   0.0000       4.532166       123.3265 
 208   0.0000       4.538618       123.5021 
 209   0.0000       4.544229       123.6548 
 210   0.0000       4.703306       127.9835 
 211   0.0000       4.713231       128.2535 
 212   0.0000       4.733840       128.8143 
 213   0.0000       4.863616       132.3457 
 214   0.0000       4.872229       132.5801 
 215   0.0000       4.884700       132.9195 
 216   0.0000       5.686369       154.7340 
 217   0.0000       5.700072       155.1068 
 218   0.0000       5.700199       155.1103 
 219   0.0000       5.760207       156.7432 
 220   0.0000       5.777621       157.2171 
 221   0.0000       5.778631       157.2445 
 222   0.0000       5.876015       159.8945 
 223   0.0000       5.881157       160.0344 
 224   0.0000       5.883826       160.1070 
 225   0.0000       6.165243       167.7648 
 226   0.0000       6.170557       167.9094 
 227   0.0000       6.172096       167.9513 
 228   0.0000       6.174270       168.0104 
 229   0.0000       6.175868       168.0539 
 230   0.0000       6.180873       168.1901 
 231   0.0000       6.320812       171.9980 
 232   0.0000       6.326369       172.1493 
 233   0.0000       6.332329       172.3114 
 234   0.0000       6.657731       181.1661 
 235   0.0000       6.659107       181.2035 
 236   0.0000       6.661224       181.2611 
 237   0.0000       6.942931       188.9267 
 238   0.0000       6.953778       189.2219 
 239   0.0000       6.956469       189.2951 
 240   0.0000       7.149412       194.5454 
 241   0.0000       7.157639       194.7693 
 242   0.0000       7.161239       194.8672 
 243   0.0000       7.219279       196.4466 
 244   0.0000       7.224015       196.5754 
 245   0.0000       7.224818       196.5973 
 246   0.0000       7.453624       202.8234 
 247   0.0000       7.464386       203.1163 
 248   0.0000       7.470119       203.2723 
 249   0.0000       7.588850       206.5031 
 250   0.0000       7.591854       206.5848 
 251   0.0000       7.612296       207.1411 
 252   0.0000      23.360095       635.6605 
 253   0.0000      23.370221       635.9361 
 254   0.0000      23.377404       636.1315 
 255   0.0000      45.145706      1228.4771 
 256   0.0000      45.152421      1228.6598 
 257   0.0000      45.182852      1229.4879 

                    ********************************
                    * MULLIKEN POPULATION ANALYSIS *
                    ********************************

-----------------------
MULLIKEN ATOMIC CHARGES
-----------------------
   0 O :   -0.545837
   1 H :    0.334615
   2 C :   -0.075211
   3 H :    0.106318
   4 H :    0.089902
   5 H :    0.090063
   6 O :   -0.556249
   7 H :    0.342840
   8 C :   -0.066973
   9 H :    0.107321
  10 H :    0.084257
  11 H :    0.086856
  12 O :   -0.549718
  13 H :    0.332413
  14 C :   -0.075726
  15 H :    0.111563
  16 H :    0.097117
  17 H :    0.086451
Sum of atomic charges:   -0.0000000

--------------------------------
MULLIKEN REDUCED ORBITAL CHARGES
--------------------------------
  0 O s       :     3.806542  s :     3.806542
      pz      :     1.631869  p :     4.704862
      px      :     1.582976
      py      :     1.490017
      dz2     :     0.002580  d :     0.032706
      dxz     :     0.009550
      dyz     :     0.004692
      dx2y2   :     0.008362
      dxy     :     0.007521
      f0      :     0.000294  f :     0.001727
      f+1     :     0.000124
      f-1     :     0.000212
      f+2     :     0.000475
      f-2     :     0.000322
      f+3     :     0.000152
      f-3     :     0.000148
  1 H s       :     0.622997  s :     0.622997
      pz      :     0.015898  p :     0.042388
      px      :     0.014974
      py      :     0.011515
  2 C s       :     3.193297  s :     3.193297
      pz      :     0.967545  p :     2.757369
      px      :     1.024299
      py      :     0.765525
      dz2     :     0.013290  d :     0.115594
      dxz     :     0.026315
      dyz     :     0.028175
      dx2y2   :     0.026063
      dxy     :     0.021752
      f0      :     0.000508  f :     0.008950
      f+1     :     0.000225
      f-1     :     0.001995
      f+2     :     0.002323
      f-2     :     0.001509
      f+3     :     0.001134
      f-3     :     0.001256
  3 H s       :     0.872574  s :     0.872574
      pz      :     0.007711  p :     0.021108
      px      :     0.009679
      py      :     0.003719
  4 H s       :     0.890008  s :     0.890008
      pz      :     0.006903  p :     0.020091
      px      :     0.010733
      py      :     0.002455
  5 H s       :     0.889900  s :     0.889900
      pz      :     0.007592  p :     0.020038
      px      :     0.003638
      py      :     0.008808
  6 O s       :     3.805808  s :     3.805808
      pz      :     1.305251  p :     4.716302
      px      :     1.624636
      py      :     1.786416
      dz2     :     0.009539  d :     0.032420
      dxz     :     0.009446
      dyz     :     0.002646
      dx2y2   :     0.003943
      dxy     :     0.006846
      f0      :     0.000441  f :     0.001719
      f+1     :     0.000350
      f-1     :     0.000146
      f+2     :     0.000116
      f-2     :     0.000306
      f+3     :     0.000147
      f-3     :     0.000214
  7 H s       :     0.614874  s :     0.614874
      pz      :     0.019029  p :     0.042287
      px      :     0.010723
      py      :     0.012534
  8 C s       :     3.189760  s :     3.189760
      pz      :     0.958982  p :     2.752526
      px      :     0.865956
      py      :     0.927588
      dz2     :     0.034735  d :     0.115775
      dxz     :     0.016109
      dyz     :     0.014086
      dx2y2   :     0.031737
      dxy     :     0.019108
      f0      :     0.000957  f :     0.008912
      f+1     :     0.001720
      f-1     :     0.000600
      f+2     :     0.001519
      f-2     :     0.001130
      f+3     :     0.001259
      f-3     :     0.001727
  9 H s       :     0.871644  s :     0.871644
      pz      :     0.013794  p :     0.021034
      px      :     0.003982
      py      :     0.003258
 10 H s       :     0.895848  s :     0.895848
      pz      :     0.004025  p :     0.019895
      px      :     0.002914
      py      :     0.012957
 11 H s       :     0.893002  s :     0.893002
      pz      :     0.002962  p :     0.020142
      px      :     0.011867
      py      :     0.005313
 12 O s       :     3.805511  s :     3.805511
      pz      :     1.747641  p :     4.709861
      px      :     1.594963
      py      :     1.367257
      dz2     :     0.003167  d :     0.032599
      dxz     :     0.007721
      dyz     :     0.005884
      dx2y2   :     0.011768
      dxy     :     0.004059
      f0      :     0.000244  f :     0.001747
      f+1     :     0.000121
      f-1     :     0.000228
      f+2     :     0.000345
      f-2     :     0.000204
      f+3     :     0.000236
      f-3     :     0.000370
 13 H s       :     0.624765  s :     0.624765
      pz      :     0.014814  p :     0.042822
      px      :     0.017375
      py      :     0.010633
 14 C s       :     3.192590  s :     3.192590
      pz      :     1.029870  p :     2.757580
      px      :     1.051076
      py      :     0.676633
      dz2     :     0.019286  d :     0.116523
      dxz     :     0.010256
      dyz     :     0.030662
      dx2y2   :     0.019415
      dxy     :     0.036903
      f0      :     0.001573  f :     0.009034
      f+1     :     0.000549
      f-1     :     0.001075
      f+2     :     0.001557
      f-2     :     0.000376
      f+3     :     0.001843
      f-3     :     0.002061
 15 H s       :     0.867222  s :     0.867222
      pz      :     0.007402  p :     0.021215
      px      :     0.010274
      py      :     0.003539
 16 H s       :     0.882737  s :     0.882737
      pz      :     0.004131  p :     0.020146
      px      :     0.010466
      py      :     0.005549
 17 H s       :     0.893552  s :     0.893552
      pz      :     0.013312  p :     0.019997
      px      :     0.004101
      py      :     0.002585


                     *******************************
                     * LOEWDIN POPULATION ANALYSIS *
                     *******************************

----------------------
LOEWDIN ATOMIC CHARGES
----------------------
   0 O :   -0.129823
   1 H :    0.193927
   2 C :   -0.339580
   3 H :    0.100622
   4 H :    0.087319
   5 H :    0.087414
   6 O :   -0.134827
   7 H :    0.196045
   8 C :   -0.335859
   9 H :    0.099897
  10 H :    0.086375
  11 H :    0.086972
  12 O :   -0.126280
  13 H :    0.190585
  14 C :   -0.340386
  15 H :    0.102658
  16 H :    0.089230
  17 H :    0.085711

-------------------------------
LOEWDIN REDUCED ORBITAL CHARGES
-------------------------------
  0 O s       :     3.395733  s :     3.395733
      pz      :     1.580030  p :     4.661209
      px      :     1.570357
      py      :     1.510822
      dz2     :     0.006994  d :     0.068748
      dxz     :     0.016275
      dyz     :     0.014082
      dx2y2   :     0.015060
      dxy     :     0.016336
      f0      :     0.000467  f :     0.004133
      f+1     :     0.000224
      f-1     :     0.000626
      f+2     :     0.000951
      f-2     :     0.000590
      f+3     :     0.000612
      f-3     :     0.000664
  1 H s       :     0.663344  s :     0.663344
      pz      :     0.050118  p :     0.142729
      px      :     0.061525
      py      :     0.031086
  2 C s       :     2.861811  s :     2.861811
      pz      :     1.028931  p :     2.993486
      px      :     1.075053
      py      :     0.889503
      dz2     :     0.041940  d :     0.426471
      dxz     :     0.092736
      dyz     :     0.112257
      dx2y2   :     0.103093
      dxy     :     0.076445
      f0      :     0.006041  f :     0.057812
      f+1     :     0.002270
      f-1     :     0.014303
      f+2     :     0.007672
      f-2     :     0.007643
      f+3     :     0.010017
      f-3     :     0.009867
  3 H s       :     0.840800  s :     0.840800
      pz      :     0.020983  p :     0.058578
      px      :     0.026765
      py      :     0.010830
  4 H s       :     0.854185  s :     0.854185
      pz      :     0.020200  p :     0.058497
      px      :     0.029416
      py      :     0.008881
  5 H s       :     0.854222  s :     0.854222
      pz      :     0.021955  p :     0.058364
      px      :     0.012614
      py      :     0.023796
  6 O s       :     3.396872  s :     3.396872
      pz      :     1.306790  p :     4.666385
      px      :     1.632460
      py      :     1.727134
      dz2     :     0.023408  d :     0.067525
      dxz     :     0.015789
      dyz     :     0.007241
      dx2y2   :     0.009348
      dxy     :     0.011738
      f0      :     0.000623  f :     0.004045
      f+1     :     0.001117
      f-1     :     0.000320
      f+2     :     0.000473
      f-2     :     0.000631
      f+3     :     0.000483
      f-3     :     0.000397
  7 H s       :     0.660663  s :     0.660663
      pz      :     0.070807  p :     0.143292
      px      :     0.037036
      py      :     0.035449
  8 C s       :     2.862247  s :     2.862247
      pz      :     1.010847  p :     2.992849
      px      :     0.968923
      py      :     1.013080
      dz2     :     0.107222  d :     0.423713
      dxz     :     0.064645
      dyz     :     0.048220
      dx2y2   :     0.117346
      dxy     :     0.086279
      f0      :     0.005114  f :     0.057051
      f+1     :     0.009661
      f-1     :     0.004365
      f+2     :     0.011812
      f-2     :     0.009919
      f+3     :     0.007112
      f-3     :     0.009068
  9 H s       :     0.841533  s :     0.841533
      pz      :     0.034824  p :     0.058570
      px      :     0.012774
      py      :     0.010972
 10 H s       :     0.855398  s :     0.855398
      pz      :     0.013499  p :     0.058227
      px      :     0.010234
      py      :     0.034493
 11 H s       :     0.854506  s :     0.854506
      pz      :     0.011000  p :     0.058521
      px      :     0.031296
      py      :     0.016225
 12 O s       :     3.390640  s :     3.390640
      pz      :     1.685923  p :     4.662171
      px      :     1.549679
      py      :     1.426569
      dz2     :     0.005697  d :     0.069314
      dxz     :     0.010335
      dyz     :     0.016058
      dx2y2   :     0.020942
      dxy     :     0.016283
      f0      :     0.000398  f :     0.004155
      f+1     :     0.000149
      f-1     :     0.000545
      f+2     :     0.001044
      f-2     :     0.000358
      f+3     :     0.000947
      f-3     :     0.000713
 13 H s       :     0.665278  s :     0.665278
      pz      :     0.052014  p :     0.144137
      px      :     0.063700
      py      :     0.028423
 14 C s       :     2.861007  s :     2.861007
      pz      :     1.081593  p :     2.993815
      px      :     1.085999
      py      :     0.826223
      dz2     :     0.072122  d :     0.427321
      dxz     :     0.034732
      dyz     :     0.106654
      dx2y2   :     0.091937
      dxy     :     0.121876
      f0      :     0.007617  f :     0.058242
      f+1     :     0.001632
      f-1     :     0.007462
      f+2     :     0.011794
      f-2     :     0.004381
      f+3     :     0.011571
      f-3     :     0.013785
 15 H s       :     0.838534  s :     0.838534
      pz      :     0.021174  p :     0.058808
      px      :     0.027727
      py      :     0.009907
 16 H s       :     0.852245  s :     0.852245
      pz      :     0.013773  p :     0.058525
      px      :     0.029048
      py      :     0.015704
 17 H s       :     0.856092  s :     0.856092
      pz      :     0.035717  p :     0.058196
      px      :     0.013803
      py      :     0.008676


                      *****************************
                      * MAYER POPULATION ANALYSIS *
                      *****************************

  NA   - Mulliken gross atomic population
  ZA   - Total nuclear charge
  QA   - Mulliken gross atomic charge
  VA   - Mayer's total valence
  BVA  - Mayer's bonded valence
  FA   - Mayer's free valence

  ATOM       NA         ZA         QA         VA         BVA        FA
  0 O      8.5458     8.0000    -0.5458     1.7942     1.7942     0.0000
  1 H      0.6654     1.0000     0.3346     0.8949     0.8949     0.0000
  2 C      6.0752     6.0000    -0.0752     3.9049     3.9049     0.0000
  3 H      0.8937     1.0000     0.1063     0.9622     0.9622    -0.0000
  4 H      0.9101     1.0000     0.0899     0.9611     0.9611     0.0000
  5 H      0.9099     1.0000     0.0901     0.9605     0.9605     0.0000
  6 O      8.5562     8.0000    -0.5562     1.7897     1.7897     0.0000
  7 H      0.6572     1.0000     0.3428     0.8911     0.8911    -0.0000
  8 C      6.0670     6.0000    -0.0670     3.9118     3.9118    -0.0000
  9 H      0.8927     1.0000     0.1073     0.9615     0.9615     0.0000
 10 H      0.9157     1.0000     0.0843     0.9581     0.9581    -0.0000
 11 H      0.9131     1.0000     0.0869     0.9619     0.9619    -0.0000
 12 O      8.5497     8.0000    -0.5497     1.7914     1.7914     0.0000
 13 H      0.6676     1.0000     0.3324     0.8962     0.8962     0.0000
 14 C      6.0757     6.0000    -0.0757     3.8925     3.8925     0.0000
 15 H      0.8884     1.0000     0.1116     0.9628     0.9628    -0.0000
 16 H      0.9029     1.0000     0.0971     0.9634     0.9634    -0.0000
 17 H      0.9135     1.0000     0.0865     0.9557     0.9557    -0.0000

  Mayer bond orders larger than 0.100000
B(  0-O ,  1-H ) :   0.8834 B(  0-O ,  2-C ) :   0.9377 B(  2-C ,  3-H ) :   0.9833 
B(  2-C ,  4-H ) :   0.9885 B(  2-C ,  5-H ) :   0.9872 B(  6-O ,  7-H ) :   0.8778 
B(  6-O ,  8-C ) :   0.9384 B(  8-C ,  9-H ) :   0.9838 B(  8-C , 10-H ) :   0.9883 
B(  8-C , 11-H ) :   0.9896 B( 12-O , 13-H ) :   0.8848 B( 12-O , 14-C ) :   0.9283 
B( 14-C , 15-H ) :   0.9834 B( 14-C , 16-H ) :   0.9900 B( 14-C , 17-H ) :   0.9851 


-------
TIMINGS
-------

Total SCF time: 0 days 0 hours 0 min 13 sec 

Total time                  ....      13.248 sec
Sum of individual times     ....      12.901 sec  ( 97.4%)

Fock matrix formation       ....      12.467 sec  ( 94.1%)
Diagonalization             ....       0.094 sec  (  0.7%)
Density matrix formation    ....       0.010 sec  (  0.1%)
Population analysis         ....       0.018 sec  (  0.1%)
Initial guess               ....       0.145 sec  (  1.1%)
Orbital Transformation      ....       0.000 sec  (  0.0%)
Orbital Orthonormalization  ....       0.000 sec  (  0.0%)
DIIS solution               ....       0.032 sec  (  0.2%)
SOSCF solution              ....       0.038 sec  (  0.3%)


           ************************************************************
           *        Program running with 6 parallel MPI-processes     *
           *              working on a common directory               *
           ************************************************************

------------------------------------------------------------------------------
                                ORCA  MP2 
------------------------------------------------------------------------------

Freezing NCore=12 chemical core electrons
MP2 will be done in the AO integral direct mode
The Q1-step will be done using symmetric double matrices
Dimension of the basis                    ...  258
Memory devoted for MP2                    ... 8000 MB   
Memory needed for all in one shot         ...  264 MB
Number of MOs that can be treated together...  120      
MP2 density construction                  ... relaxed
The MP2 gradient is requested => amplitudes will be stored on disk
Total number of MOs              ...   21
Number of MOs treated per batch  ...    4 
Number of batches necessary      ...    1 
OPERATORS   0/  0 PASS   0
-----------------------------------------------
 MP2 CORRELATION ENERGY   :     -1.252920521 Eh
-----------------------------------------------


---------------------
MP2 DENSITY FORMATION
---------------------

Completing the external part of the density      ... done
Storing the unrelaxed density                    ... done

Calculating G(D)                                 ... done
Completing the Lagrangian                        ... done
Solving the Z-vector equations                   ... 

------------------------------------------------------------------------------
                           ORCA CP-SCF CALCULATION
------------------------------------------------------------------------------

Input orbitals are from        ... 12meoh.boyd.etal.mol0,4,9-orca.engrad-mp2.def2tzvp.frozencore.gbw
Input Perturbation             ... 12meoh.boyd.etal.mol0,4,9-orca.engrad-mp2.def2tzvp.frozencore.pin.tmp
Wavefunction output            ... 12meoh.boyd.etal.mol0,4,9-orca.engrad-mp2.def2tzvp.frozencore.pout.tmp
Perturbation mode              ... Real perturbation (singlet)
Solver                         ... POPLE
Max. number of iterations      ... 128
Convergence tolerance          ... 1.000e-08
Integral handling              ... Direct
Number of perturbations        ... 1
Number of operators            ... 1
Orbital ranges used for CP-SCF:
 Operator 0:  Orbitals   0... 26  to  27...257
Variables per vector in CP-SCF ... 6237
Number of vectors sought       ... 1
     CP-SCF ITERATION   0: 
     CP-SCF ITERATION   1:      0.000367038742
     CP-SCF ITERATION   2:      0.000018135926
     CP-SCF ITERATION   3:      0.000002788566
     CP-SCF ITERATION   4:      0.000000162304
     CP-SCF ITERATION   5:      0.000000004902
                                                 ... done
Finalizing the relaxed density                   ... done
Transforming P to the AO basis                   ... done
Storing the relaxed density                      ... done

------------------------------------
ENERGY WEIGHTED DENSITY FINALIZATION
------------------------------------

Gathering the parts of the W-matrix              ...                                                      done
Forming the Z-density                            ... done
Transforming Z to the AO basis                   ... done
Calculating G(Z)                                 ... done
Finalizing the W-matrix                          ...                                                      done
Transforming W to the AO basis and storing       ... done

                *********************************************
                * UNRELAXED MP2 DENSITY POPULATION ANALYSIS *
                *********************************************

------------------------------------------------------------------------------
                           ORCA POPULATION ANALYSIS
------------------------------------------------------------------------------
Input electron density              ... 12meoh.boyd.etal.mol0,4,9-orca.engrad-mp2.def2tzvp.frozencore.pmp2ur
BaseName (.gbw .S,...)              ... 12meoh.boyd.etal.mol0,4,9-orca.engrad-mp2.def2tzvp.frozencore

                    ********************************
                    * MULLIKEN POPULATION ANALYSIS *
                    ********************************

-----------------------
MULLIKEN ATOMIC CHARGES
-----------------------
   0 O :   -0.534753
   1 H :    0.331875
   2 C :   -0.091208
   3 H :    0.109108
   4 H :    0.092334
   5 H :    0.092483
   6 O :   -0.544999
   7 H :    0.340041
   8 C :   -0.083186
   9 H :    0.110136
  10 H :    0.086563
  11 H :    0.089320
  12 O :   -0.538575
  13 H :    0.329739
  14 C :   -0.091529
  15 H :    0.114327
  16 H :    0.099558
  17 H :    0.088765
Sum of atomic charges:   -0.0000000

--------------------------------
MULLIKEN REDUCED ORBITAL CHARGES
--------------------------------
  0 O s       :     3.801288  s :     3.801288
      pz      :     1.620201  p :     4.669125
      px      :     1.570894
      py      :     1.478031
      dz2     :     0.008273  d :     0.059956
      dxz     :     0.014856
      dyz     :     0.010242
      dx2y2   :     0.013698
      dxy     :     0.012887
      f0      :     0.000661  f :     0.004383
      f+1     :     0.000503
      f-1     :     0.000590
      f+2     :     0.000850
      f-2     :     0.000700
      f+3     :     0.000542
      f-3     :     0.000539
  1 H s       :     0.624037  s :     0.624037
      pz      :     0.016415  p :     0.044088
      px      :     0.015406
      py      :     0.012267
  2 C s       :     3.191420  s :     3.191420
      pz      :     0.964726  p :     2.751297
      px      :     1.020080
      py      :     0.766491
      dz2     :     0.018602  d :     0.136210
      dxz     :     0.030307
      dyz     :     0.031281
      dx2y2   :     0.029650
      dxy     :     0.026370
      f0      :     0.000959  f :     0.012282
      f+1     :     0.000765
      f-1     :     0.002479
      f+2     :     0.002725
      f-2     :     0.002012
      f+3     :     0.001606
      f-3     :     0.001737
  3 H s       :     0.866694  s :     0.866694
      pz      :     0.008735  p :     0.024198
      px      :     0.010618
      py      :     0.004845
  4 H s       :     0.884375  s :     0.884375
      pz      :     0.007960  p :     0.023290
      px      :     0.011705
      py      :     0.003626
  5 H s       :     0.884287  s :     0.884287
      pz      :     0.008625  p :     0.023231
      px      :     0.004790
      py      :     0.009816
  6 O s       :     3.800543  s :     3.800543
      pz      :     1.296372  p :     4.680375
      px      :     1.611220
      py      :     1.772784
      dz2     :     0.014857  d :     0.059709
      dxz     :     0.014718
      dyz     :     0.008319
      dx2y2   :     0.009556
      dxy     :     0.012259
      f0      :     0.000811  f :     0.004372
      f+1     :     0.000736
      f-1     :     0.000524
      f+2     :     0.000498
      f-2     :     0.000682
      f+3     :     0.000531
      f-3     :     0.000591
  7 H s       :     0.616014  s :     0.616014
      pz      :     0.018923  p :     0.043945
      px      :     0.011570
      py      :     0.013451
  8 C s       :     3.187881  s :     3.187881
      pz      :     0.956814  p :     2.746649
      px      :     0.864732
      py      :     0.925103
      dz2     :     0.038879  d :     0.136422
      dxz     :     0.020249
      dyz     :     0.018645
      dx2y2   :     0.035706
      dxy     :     0.022944
      f0      :     0.001438  f :     0.012234
      f+1     :     0.002168
      f-1     :     0.001143
      f+2     :     0.001991
      f-2     :     0.001542
      f+3     :     0.001810
      f-3     :     0.002143
  9 H s       :     0.865728  s :     0.865728
      pz      :     0.014669  p :     0.024135
      px      :     0.005075
      py      :     0.004391
 10 H s       :     0.890327  s :     0.890327
      pz      :     0.005158  p :     0.023110
      px      :     0.004088
      py      :     0.013864
 11 H s       :     0.887328  s :     0.887328
      pz      :     0.004126  p :     0.023352
      px      :     0.012816
      py      :     0.006410
 12 O s       :     3.800323  s :     3.800323
      pz      :     1.734603  p :     4.673929
      px      :     1.583604
      py      :     1.355722
      dz2     :     0.008806  d :     0.059917
      dxz     :     0.013073
      dyz     :     0.011409
      dx2y2   :     0.016997
      dxy     :     0.009632
      f0      :     0.000615  f :     0.004406
      f+1     :     0.000495
      f-1     :     0.000608
      f+2     :     0.000731
      f-2     :     0.000577
      f+3     :     0.000629
      f-3     :     0.000750
 13 H s       :     0.625736  s :     0.625736
      pz      :     0.015486  p :     0.044525
      px      :     0.017705
      py      :     0.011335
 14 C s       :     3.190692  s :     3.190692
      pz      :     1.025431  p :     2.751317
      px      :     1.046570
      py      :     0.679316
      dz2     :     0.023114  d :     0.137155
      dxz     :     0.015152
      dyz     :     0.035212
      dx2y2   :     0.022890
      dxy     :     0.040787
      f0      :     0.002030  f :     0.012364
      f+1     :     0.001068
      f-1     :     0.001545
      f+2     :     0.002026
      f-2     :     0.000894
      f+3     :     0.002363
      f-3     :     0.002437
 15 H s       :     0.861384  s :     0.861384
      pz      :     0.008408  p :     0.024289
      px      :     0.011214
      py      :     0.004667
 16 H s       :     0.877112  s :     0.877112
      pz      :     0.005261  p :     0.023330
      px      :     0.011429
      py      :     0.006640
 17 H s       :     0.888025  s :     0.888025
      pz      :     0.014209  p :     0.023210
      px      :     0.005237
      py      :     0.003764


                     *******************************
                     * LOEWDIN POPULATION ANALYSIS *
                     *******************************

----------------------
LOEWDIN ATOMIC CHARGES
----------------------
   0 O :   -0.122001
   1 H :    0.192030
   2 C :   -0.350182
   3 H :    0.102380
   4 H :    0.088772
   5 H :    0.088870
   6 O :   -0.126909
   7 H :    0.194134
   8 C :   -0.346644
   9 H :    0.101646
  10 H :    0.087797
  11 H :    0.088418
  12 O :   -0.118425
  13 H :    0.188734
  14 C :   -0.350871
  15 H :    0.104427
  16 H :    0.090711
  17 H :    0.087114

-------------------------------
LOEWDIN REDUCED ORBITAL CHARGES
-------------------------------
  0 O s       :     3.392262  s :     3.392262
      pz      :     1.568495  p :     4.625291
      px      :     1.558497
      py      :     1.498299
      dz2     :     0.012585  d :     0.097405
      dxz     :     0.022105
      dyz     :     0.020081
      dx2y2   :     0.020782
      dxy     :     0.021853
      f0      :     0.000874  f :     0.007042
      f+1     :     0.000619
      f-1     :     0.001021
      f+2     :     0.001394
      f-2     :     0.001021
      f+3     :     0.001034
      f-3     :     0.001080
  1 H s       :     0.661701  s :     0.661701
      pz      :     0.051277  p :     0.146269
      px      :     0.063035
      py      :     0.031958
  2 C s       :     2.860678  s :     2.860678
      pz      :     1.023739  p :     2.979640
      px      :     1.068820
      py      :     0.887081
      dz2     :     0.046633  d :     0.447167
      dxz     :     0.097217
      dyz     :     0.115738
      dx2y2   :     0.107008
      dxy     :     0.080571
      f0      :     0.006717  f :     0.062697
      f+1     :     0.002908
      f-1     :     0.014779
      f+2     :     0.008715
      f-2     :     0.008434
      f+3     :     0.010692
      f-3     :     0.010453
  3 H s       :     0.834024  s :     0.834024
      pz      :     0.022694  p :     0.063596
      px      :     0.028633
      py      :     0.012269
  4 H s       :     0.847474  s :     0.847474
      pz      :     0.021902  p :     0.063754
      px      :     0.031608
      py      :     0.010244
  5 H s       :     0.847525  s :     0.847525
      pz      :     0.023759  p :     0.063606
      px      :     0.013924
      py      :     0.025922
  6 O s       :     3.393399  s :     3.393399
      pz      :     1.297538  p :     4.630332
      px      :     1.618993
      py      :     1.713801
      dz2     :     0.029062  d :     0.096230
      dxz     :     0.021576
      dyz     :     0.012944
      dx2y2   :     0.014952
      dxy     :     0.017695
      f0      :     0.001073  f :     0.006949
      f+1     :     0.001548
      f-1     :     0.000711
      f+2     :     0.000870
      f-2     :     0.001065
      f+3     :     0.000875
      f-3     :     0.000806
  7 H s       :     0.659125  s :     0.659125
      pz      :     0.072398  p :     0.146742
      px      :     0.038038
      py      :     0.036305
  8 C s       :     2.861129  s :     2.861129
      pz      :     1.006017  p :     2.979065
      px      :     0.964893
      py      :     1.008155
      dz2     :     0.111085  d :     0.444517
      dxz     :     0.069089
      dyz     :     0.052772
      dx2y2   :     0.121109
      dxy     :     0.090462
      f0      :     0.005969  f :     0.061933
      f+1     :     0.010324
      f-1     :     0.004991
      f+2     :     0.012328
      f-2     :     0.010656
      f+3     :     0.007733
      f-3     :     0.009932
  9 H s       :     0.834744  s :     0.834744
      pz      :     0.037231  p :     0.063610
      px      :     0.014149
      py      :     0.012230
 10 H s       :     0.848686  s :     0.848686
      pz      :     0.014933  p :     0.063517
      px      :     0.011591
      py      :     0.036994
 11 H s       :     0.847790  s :     0.847790
      pz      :     0.012297  p :     0.063792
      px      :     0.033754
      py      :     0.017741
 12 O s       :     3.387224  s :     3.387224
      pz      :     1.673386  p :     4.626113
      px      :     1.538574
      py      :     1.414153
      dz2     :     0.011474  d :     0.098017
      dxz     :     0.016283
      dyz     :     0.021550
      dx2y2   :     0.027007
      dxy     :     0.021703
      f0      :     0.000803  f :     0.007070
      f+1     :     0.000534
      f-1     :     0.000961
      f+2     :     0.001472
      f-2     :     0.000763
      f+3     :     0.001362
      f-3     :     0.001175
 13 H s       :     0.663578  s :     0.663578
      pz      :     0.053231  p :     0.147688
      px      :     0.065167
      py      :     0.029290
 14 C s       :     2.859877  s :     2.859877
      pz      :     1.075242  p :     2.979873
      px      :     1.079573
      py      :     0.825058
      dz2     :     0.076567  d :     0.447996
      dxz     :     0.040008
      dyz     :     0.110309
      dx2y2   :     0.096014
      dxy     :     0.125097
      f0      :     0.008346  f :     0.063125
      f+1     :     0.002329
      f-1     :     0.008232
      f+2     :     0.012336
      f-2     :     0.005048
      f+3     :     0.012145
      f-3     :     0.014690
 15 H s       :     0.831768  s :     0.831768
      pz      :     0.022777  p :     0.063805
      px      :     0.029641
      py      :     0.011387
 16 H s       :     0.845531  s :     0.845531
      pz      :     0.015082  p :     0.063758
      px      :     0.031149
      py      :     0.017527
 17 H s       :     0.849420  s :     0.849420
      pz      :     0.038187  p :     0.063466
      px      :     0.015121
      py      :     0.010158


                      *****************************
                      * MAYER POPULATION ANALYSIS *
                      *****************************

  NA   - Mulliken gross atomic population
  ZA   - Total nuclear charge
  QA   - Mulliken gross atomic charge
  VA   - Mayer's total valence
  BVA  - Mayer's bonded valence
  FA   - Mayer's free valence

  ATOM       NA         ZA         QA         VA         BVA        FA
  0 O      8.5348     8.0000    -0.5348     2.0929     1.6881     0.4048
  1 H      0.6681     1.0000     0.3319     0.9014     0.8486     0.0528
  2 C      6.0912     6.0000    -0.0912     4.0096     3.7310     0.2786
  3 H      0.8909     1.0000     0.1091     0.9712     0.9241     0.0470
  4 H      0.9077     1.0000     0.0923     0.9711     0.9219     0.0492
  5 H      0.9075     1.0000     0.0925     0.9705     0.9212     0.0493
  6 O      8.5450     8.0000    -0.5450     2.0901     1.6838     0.4063
  7 H      0.6600     1.0000     0.3400     0.8976     0.8454     0.0521
  8 C      6.0832     6.0000    -0.0832     4.0162     3.7367     0.2795
  9 H      0.8899     1.0000     0.1101     0.9705     0.9235     0.0470
 10 H      0.9134     1.0000     0.0866     0.9687     0.9185     0.0501
 11 H      0.9107     1.0000     0.0893     0.9720     0.9226     0.0494
 12 O      8.5386     8.0000    -0.5386     2.0911     1.6860     0.4051
 13 H      0.6703     1.0000     0.3297     0.9026     0.8499     0.0527
 14 C      6.0915     6.0000    -0.0915     3.9976     3.7194     0.2782
 15 H      0.8857     1.0000     0.1143     0.9716     0.9247     0.0468
 16 H      0.9004     1.0000     0.0996     0.9731     0.9243     0.0488
 17 H      0.9112     1.0000     0.0888     0.9661     0.9161     0.0500

  Mayer bond orders larger than 0.100000
B(  0-O ,  1-H ) :   0.8381 B(  0-O ,  2-C ) :   0.8785 B(  2-C ,  3-H ) :   0.9458 
B(  2-C ,  4-H ) :   0.9502 B(  2-C ,  5-H ) :   0.9489 B(  6-O ,  7-H ) :   0.8332 
B(  6-O ,  8-C ) :   0.8788 B(  8-C ,  9-H ) :   0.9463 B(  8-C , 10-H ) :   0.9496 
B(  8-C , 11-H ) :   0.9512 B( 12-O , 13-H ) :   0.8395 B( 12-O , 14-C ) :   0.8700 
B( 14-C , 15-H ) :   0.9460 B( 14-C , 16-H ) :   0.9519 B( 14-C , 17-H ) :   0.9465 



                *******************************************
                * RELAXED MP2 DENSITY POPULATION ANALYSIS *
                *******************************************

------------------------------------------------------------------------------
                           ORCA POPULATION ANALYSIS
------------------------------------------------------------------------------
Input electron density              ... 12meoh.boyd.etal.mol0,4,9-orca.engrad-mp2.def2tzvp.frozencore.pmp2re
BaseName (.gbw .S,...)              ... 12meoh.boyd.etal.mol0,4,9-orca.engrad-mp2.def2tzvp.frozencore

                    ********************************
                    * MULLIKEN POPULATION ANALYSIS *
                    ********************************

-----------------------
MULLIKEN ATOMIC CHARGES
-----------------------
   0 O :   -0.497380
   1 H :    0.326214
   2 C :   -0.173481
   3 H :    0.127293
   4 H :    0.108581
   5 H :    0.108525
   6 O :   -0.506884
   7 H :    0.333402
   8 C :   -0.167061
   9 H :    0.127841
  10 H :    0.103604
  11 H :    0.105474
  12 O :   -0.500210
  13 H :    0.324684
  14 C :   -0.173563
  15 H :    0.132507
  16 H :    0.115693
  17 H :    0.104762
Sum of atomic charges:   -0.0000000

--------------------------------
MULLIKEN REDUCED ORBITAL CHARGES
--------------------------------
  0 O s       :     3.802868  s :     3.802868
      pz      :     1.609034  p :     4.632381
      px      :     1.553708
      py      :     1.469640
      dz2     :     0.008354  d :     0.057803
      dxz     :     0.013980
      dyz     :     0.009937
      dx2y2   :     0.012958
      dxy     :     0.012574
      f0      :     0.000646  f :     0.004328
      f+1     :     0.000499
      f-1     :     0.000599
      f+2     :     0.000830
      f-2     :     0.000689
      f+3     :     0.000530
      f-3     :     0.000535
  1 H s       :     0.629140  s :     0.629140
      pz      :     0.016615  p :     0.044646
      px      :     0.015278
      py      :     0.012753
  2 C s       :     3.213579  s :     3.213579
      pz      :     0.989561  p :     2.821534
      px      :     1.047113
      py      :     0.784860
      dz2     :     0.020631  d :     0.126646
      dxz     :     0.025736
      dyz     :     0.026692
      dx2y2   :     0.026070
      dxy     :     0.027517
      f0      :     0.000912  f :     0.011723
      f+1     :     0.000738
      f-1     :     0.002350
      f+2     :     0.002546
      f-2     :     0.001958
      f+3     :     0.001574
      f-3     :     0.001644
  3 H s       :     0.849661  s :     0.849661
      pz      :     0.008303  p :     0.023046
      px      :     0.009857
      py      :     0.004887
  4 H s       :     0.869231  s :     0.869231
      pz      :     0.007584  p :     0.022188
      px      :     0.010732
      py      :     0.003872
  5 H s       :     0.869349  s :     0.869349
      pz      :     0.008120  p :     0.022126
      px      :     0.004980
      py      :     0.009026
  6 O s       :     3.801776  s :     3.801776
      pz      :     1.285552  p :     4.643216
      px      :     1.597135
      py      :     1.760528
      dz2     :     0.014181  d :     0.057575
      dxz     :     0.013580
      dyz     :     0.008149
      dx2y2   :     0.009835
      dxy     :     0.011829
      f0      :     0.000786  f :     0.004317
      f+1     :     0.000725
      f-1     :     0.000528
      f+2     :     0.000498
      f-2     :     0.000661
      f+3     :     0.000536
      f-3     :     0.000583
  7 H s       :     0.622154  s :     0.622154
      pz      :     0.017758  p :     0.044444
      px      :     0.012237
      py      :     0.014449
  8 C s       :     3.210736  s :     3.210736
      pz      :     0.979992  p :     2.817955
      px      :     0.887627
      py      :     0.950335
      dz2     :     0.036294  d :     0.126703
      dxz     :     0.018674
      dyz     :     0.017604
      dx2y2   :     0.033057
      dxy     :     0.021074
      f0      :     0.001371  f :     0.011667
      f+1     :     0.002037
      f-1     :     0.001114
      f+2     :     0.001874
      f-2     :     0.001469
      f+3     :     0.001783
      f-3     :     0.002019
  9 H s       :     0.849170  s :     0.849170
      pz      :     0.013270  p :     0.022990
      px      :     0.005102
      py      :     0.004618
 10 H s       :     0.874349  s :     0.874349
      pz      :     0.005202  p :     0.022047
      px      :     0.004328
      py      :     0.012517
 11 H s       :     0.872266  s :     0.872266
      pz      :     0.004350  p :     0.022259
      px      :     0.011615
      py      :     0.006294
 12 O s       :     3.801761  s :     3.801761
      pz      :     1.718497  p :     4.636283
      px      :     1.569600
      py      :     1.348186
      dz2     :     0.008682  d :     0.057816
      dxz     :     0.012300
      dyz     :     0.011453
      dx2y2   :     0.015456
      dxy     :     0.009925
      f0      :     0.000608  f :     0.004349
      f+1     :     0.000494
      f-1     :     0.000600
      f+2     :     0.000719
      f-2     :     0.000570
      f+3     :     0.000634
      f-3     :     0.000724
 13 H s       :     0.630206  s :     0.630206
      pz      :     0.015948  p :     0.045110
      px      :     0.017550
      py      :     0.011612
 14 C s       :     3.212501  s :     3.212501
      pz      :     1.053718  p :     2.821351
      px      :     1.072954
      py      :     0.694679
      dz2     :     0.018489  d :     0.127900
      dxz     :     0.012878
      dyz     :     0.036766
      dx2y2   :     0.021085
      dxy     :     0.038682
      f0      :     0.001926  f :     0.011810
      f+1     :     0.001024
      f-1     :     0.001475
      f+2     :     0.001972
      f-2     :     0.000838
      f+3     :     0.002276
      f-3     :     0.002299
 15 H s       :     0.844369  s :     0.844369
      pz      :     0.008042  p :     0.023125
      px      :     0.010413
      py      :     0.004670
 16 H s       :     0.862083  s :     0.862083
      pz      :     0.005389  p :     0.022224
      px      :     0.010492
      py      :     0.006343
 17 H s       :     0.873096  s :     0.873096
      pz      :     0.012848  p :     0.022142
      px      :     0.005360
      py      :     0.003934


                     *******************************
                     * LOEWDIN POPULATION ANALYSIS *
                     *******************************

----------------------
LOEWDIN ATOMIC CHARGES
----------------------
   0 O :   -0.109090
   1 H :    0.194458
   2 C :   -0.385044
   3 H :    0.109684
   4 H :    0.094860
   5 H :    0.094936
   6 O :   -0.113733
   7 H :    0.196090
   8 C :   -0.381901
   9 H :    0.108885
  10 H :    0.093933
  11 H :    0.094317
  12 O :   -0.105186
  13 H :    0.191542
  14 C :   -0.385459
  15 H :    0.111716
  16 H :    0.096947
  17 H :    0.093045

-------------------------------
LOEWDIN REDUCED ORBITAL CHARGES
-------------------------------
  0 O s       :     3.395209  s :     3.395209
      pz      :     1.564616  p :     4.609860
      px      :     1.552194
      py      :     1.493050
      dz2     :     0.012896  d :     0.096866
      dxz     :     0.021637
      dyz     :     0.019978
      dx2y2   :     0.020483
      dxy     :     0.021872
      f0      :     0.000882  f :     0.007154
      f+1     :     0.000624
      f-1     :     0.001047
      f+2     :     0.001418
      f-2     :     0.001039
      f+3     :     0.001043
      f-3     :     0.001102
  1 H s       :     0.658692  s :     0.658692
      pz      :     0.051357  p :     0.146850
      px      :     0.063326
      py      :     0.032166
  2 C s       :     2.866601  s :     2.866601
      pz      :     1.038221  p :     3.019503
      px      :     1.083741
      py      :     0.897541
      dz2     :     0.047379  d :     0.437782
      dxz     :     0.094196
      dyz     :     0.111178
      dx2y2   :     0.104751
      dxy     :     0.080278
      f0      :     0.006685  f :     0.061158
      f+1     :     0.002831
      f-1     :     0.014395
      f+2     :     0.008396
      f-2     :     0.008152
      f+3     :     0.010584
      f-3     :     0.010117
  3 H s       :     0.826356  s :     0.826356
      pz      :     0.022807  p :     0.063960
      px      :     0.028488
      py      :     0.012665
  4 H s       :     0.840614  s :     0.840614
      pz      :     0.022176  p :     0.064526
      px      :     0.031545
      py      :     0.010806
  5 H s       :     0.840704  s :     0.840704
      pz      :     0.023813  p :     0.064360
      px      :     0.014384
      py      :     0.026163
  6 O s       :     3.396282  s :     3.396282
      pz      :     1.300855  p :     4.614691
      px      :     1.609355
      py      :     1.704481
      dz2     :     0.028743  d :     0.095702
      dxz     :     0.021064
      dyz     :     0.012956
      dx2y2   :     0.015340
      dxy     :     0.017599
      f0      :     0.001093  f :     0.007060
      f+1     :     0.001569
      f-1     :     0.000719
      f+2     :     0.000886
      f-2     :     0.001086
      f+3     :     0.000886
      f-3     :     0.000822
  7 H s       :     0.656727  s :     0.656727
      pz      :     0.071194  p :     0.147183
      px      :     0.038825
      py      :     0.037163
  8 C s       :     2.867202  s :     2.867202
      pz      :     1.019475  p :     3.019206
      px      :     0.977299
      py      :     1.022432
      dz2     :     0.108380  d :     0.435083
      dxz     :     0.066899
      dyz     :     0.050392
      dx2y2   :     0.121038
      dxy     :     0.088374
      f0      :     0.005828  f :     0.060410
      f+1     :     0.010058
      f-1     :     0.004848
      f+2     :     0.012043
      f-2     :     0.010542
      f+3     :     0.007317
      f-3     :     0.009773
  9 H s       :     0.827121  s :     0.827121
      pz      :     0.036795  p :     0.063994
      px      :     0.014479
      py      :     0.012720
 10 H s       :     0.841782  s :     0.841782
      pz      :     0.015332  p :     0.064286
      px      :     0.012142
      py      :     0.036812
 11 H s       :     0.841120  s :     0.841120
      pz      :     0.012841  p :     0.064563
      px      :     0.033732
      py      :     0.017990
 12 O s       :     3.390192  s :     3.390192
      pz      :     1.665284  p :     4.610277
      px      :     1.535107
      py      :     1.409886
      dz2     :     0.011402  d :     0.097535
      dxz     :     0.015959
      dyz     :     0.021900
      dx2y2   :     0.026203
      dxy     :     0.022071
      f0      :     0.000819  f :     0.007182
      f+1     :     0.000535
      f-1     :     0.000976
      f+2     :     0.001488
      f-2     :     0.000773
      f+3     :     0.001387
      f-3     :     0.001203
 13 H s       :     0.660178  s :     0.660178
      pz      :     0.053896  p :     0.148280
      px      :     0.065123
      py      :     0.029260
 14 C s       :     2.865840  s :     2.865840
      pz      :     1.091107  p :     3.019756
      px      :     1.094955
      py      :     0.833694
      dz2     :     0.072514  d :     0.438330
      dxz     :     0.037522
      dyz     :     0.111803
      dx2y2   :     0.092938
      dxy     :     0.123553
      f0      :     0.008130  f :     0.061533
      f+1     :     0.002252
      f-1     :     0.007968
      f+2     :     0.012089
      f-2     :     0.004929
      f+3     :     0.011680
      f-3     :     0.014483
 15 H s       :     0.824122  s :     0.824122
      pz      :     0.022890  p :     0.064162
      px      :     0.029511
      py      :     0.011761
 16 H s       :     0.838535  s :     0.838535
      pz      :     0.015482  p :     0.064517
      px      :     0.031004
      py      :     0.018032
 17 H s       :     0.842710  s :     0.842710
      pz      :     0.037902  p :     0.064246
      px      :     0.015544
      py      :     0.010800


                      *****************************
                      * MAYER POPULATION ANALYSIS *
                      *****************************

  NA   - Mulliken gross atomic population
  ZA   - Total nuclear charge
  QA   - Mulliken gross atomic charge
  VA   - Mayer's total valence
  BVA  - Mayer's bonded valence
  FA   - Mayer's free valence

  ATOM       NA         ZA         QA         VA         BVA        FA
  0 O      8.4974     8.0000    -0.4974     2.1472     1.7490     0.3982
  1 H      0.6738     1.0000     0.3262     0.9043     0.8514     0.0529
  2 C      6.1735     6.0000    -0.1735     4.0309     3.7546     0.2763
  3 H      0.8727     1.0000     0.1273     0.9627     0.9163     0.0465
  4 H      0.8914     1.0000     0.1086     0.9639     0.9153     0.0486
  5 H      0.8915     1.0000     0.1085     0.9632     0.9145     0.0487
  6 O      8.5069     8.0000    -0.5069     2.1449     1.7452     0.3997
  7 H      0.6666     1.0000     0.3334     0.9019     0.8497     0.0522
  8 C      6.1671     6.0000    -0.1671     4.0401     3.7632     0.2770
  9 H      0.8722     1.0000     0.1278     0.9617     0.9153     0.0464
 10 H      0.8964     1.0000     0.1036     0.9628     0.9134     0.0494
 11 H      0.8945     1.0000     0.1055     0.9644     0.9156     0.0488
 12 O      8.5002     8.0000    -0.5002     2.1480     1.7497     0.3982
 13 H      0.6753     1.0000     0.3247     0.9049     0.8521     0.0528
 14 C      6.1736     6.0000    -0.1736     4.0177     3.7417     0.2760
 15 H      0.8675     1.0000     0.1325     0.9631     0.9168     0.0463
 16 H      0.8843     1.0000     0.1157     0.9664     0.9182     0.0482
 17 H      0.8952     1.0000     0.1048     0.9591     0.9097     0.0493

  Mayer bond orders larger than 0.100000
B(  0-O ,  1-H ) :   0.8384 B(  0-O ,  2-C ) :   0.9299 B(  2-C ,  3-H ) :   0.9378 
B(  2-C ,  4-H ) :   0.9397 B(  2-C ,  5-H ) :   0.9382 B(  6-O ,  7-H ) :   0.8338 
B(  6-O ,  8-C ) :   0.9310 B(  8-C ,  9-H ) :   0.9374 B(  8-C , 10-H ) :   0.9393 
B(  8-C , 11-H ) :   0.9407 B( 12-O , 13-H ) :   0.8394 B( 12-O , 14-C ) :   0.9213 
B( 14-C , 15-H ) :   0.9378 B( 14-C , 16-H ) :   0.9415 B( 14-C , 17-H ) :   0.9351 



----------------------------------
MP2 DERIVATIVE INTEGRAL GENERATION
----------------------------------


Input Wavefunction Amplitudes       ... 12meoh.boyd.etal.mol0,4,9-orca.engrad-mp2.def2tzvp.frozencore.mp2tsaa.tmp
Input Correlated Electron Density   ... 12meoh.boyd.etal.mol0,4,9-orca.engrad-mp2.def2tzvp.frozencore.pmp2re
Input Energy Weighted Density       ... 12meoh.boyd.etal.mol0,4,9-orca.engrad-mp2.def2tzvp.frozencore.wmp2.tmp
Input SCF Electron Density          ... 12meoh.boyd.etal.mol0,4,9-orca.engrad-mp2.def2tzvp.frozencore.scfp

One-Electron Terms    ...
                        ... One-Electron Terms done
Prescreening matrices              ... done

Batch handling in the gradient evaluation:
Memory available                      ... 8000.0 MB
Memory per occupied orbital in Q2     ...   10.7 MB
Memory per occupied orbital in Q3     ...    0.1 MB
Total memory requirement per |i>      ...   10.8 MB
Max. Number of orbitals possible      ...    743
Number of orbitals treated per batch  ...     21
Number of batches to be done          ...      1
Batch   0: i=    6 ...    26

---------------------------------------
MP2 TOTAL ENERGY:     -346.522954649 Eh
---------------------------------------

The final MP2 gradient
  0:   0.01985899  -0.00774005  -0.01715253
  1:  -0.02276293   0.00923943   0.01832082
  2:   0.00439133   0.00175890   0.00036494
  3:   0.00218063  -0.00278304  -0.00332853
  4:  -0.00253763   0.00149024  -0.00068617
  5:  -0.00139058  -0.00245225   0.00230024
  6:  -0.00891604  -0.00147511   0.02401510
  7:   0.00700105  -0.00138197  -0.02873923
  8:  -0.00097513  -0.00072685   0.00407279
  9:  -0.00005819   0.00143178   0.00416552
 10:   0.00058551   0.00362244  -0.00153340
 11:   0.00196450  -0.00155132  -0.00096302
 12:  -0.01750684   0.01194371  -0.01415799
 13:   0.02164618  -0.01112311   0.01480722
 14:  -0.00319147  -0.00588087  -0.00317434
 15:  -0.00306761   0.00327763  -0.00188683
 16:   0.00324667   0.00080190  -0.00045014
 17:  -0.00046844   0.00154854   0.00402555

-----------------------------------
NORM OF THE MP2 GRADIENT:  0.070155
-----------------------------------

-------------------------   --------------------
FINAL SINGLE POINT ENERGY      -346.522954649067
-------------------------   --------------------


                            ***************************************
                            *     ORCA property calculations      *
                            ***************************************

                                    ---------------------
                                    Active property flags
                                    ---------------------
   (+) Dipole Moment


------------------------------------------------------------------------------
                       ORCA ELECTRIC PROPERTIES CALCULATION
------------------------------------------------------------------------------

Dipole Moment Calculation                       ... on
Quadrupole Moment Calculation                   ... off
Polarizability Calculation                      ... off
GBWName                                         ... 12meoh.boyd.etal.mol0,4,9-orca.engrad-mp2.def2tzvp.frozencore.gbw
Electron density file                           ... 12meoh.boyd.etal.mol0,4,9-orca.engrad-mp2.def2tzvp.frozencore.scfp
The origin for moment calculation is the CENTER OF MASS  = (-0.973310,  1.341323 -0.745519)

-------------
DIPOLE MOMENT
-------------
                                X             Y             Z
Electronic contribution:     -0.50961      -1.12713      -0.51399
Nuclear contribution   :      0.89823       1.51068       0.74243
                        -----------------------------------------
Total Dipole Moment    :      0.38862       0.38355       0.22844
                        -----------------------------------------
Magnitude (a.u.)       :      0.59188
Magnitude (Debye)      :      1.50444



--------------------
Rotational spectrum 
--------------------
 
Rotational constants in cm-1:     0.074561     0.015508     0.013141 
Rotational constants in MHz :  2235.273355   464.931338   393.954476 

 Dipole components along the rotational axes: 
x,y,z [a.u.] :    -0.520653    -0.110188     0.259039 
x,y,z [Debye]:    -1.323394    -0.280076     0.658425 

 

                         *** MP2 UNRELAXED DENSITY ***

------------------------------------------------------------------------------
                       ORCA ELECTRIC PROPERTIES CALCULATION
------------------------------------------------------------------------------

Dipole Moment Calculation                       ... on
Quadrupole Moment Calculation                   ... off
Polarizability Calculation                      ... off
GBWName                                         ... 12meoh.boyd.etal.mol0,4,9-orca.engrad-mp2.def2tzvp.frozencore.gbw
Electron density file                           ... 12meoh.boyd.etal.mol0,4,9-orca.engrad-mp2.def2tzvp.frozencore.pmp2ur
The origin for moment calculation is the CENTER OF MASS  = (-0.973310,  1.341323 -0.745519)

-------------
DIPOLE MOMENT
-------------
                                X             Y             Z
Electronic contribution:     -0.51674      -1.13597      -0.52101
Nuclear contribution   :      0.89823       1.51068       0.74243
                        -----------------------------------------
Total Dipole Moment    :      0.38150       0.37472       0.22142
                        -----------------------------------------
Magnitude (a.u.)       :      0.57877
Magnitude (Debye)      :      1.47113



--------------------
Rotational spectrum 
--------------------
 
Rotational constants in cm-1:     0.074561     0.015508     0.013141 
Rotational constants in MHz :  2235.273355   464.931338   393.954476 

 Dipole components along the rotational axes: 
x,y,z [a.u.] :    -0.509241    -0.105387     0.254062 
x,y,z [Debye]:    -1.294388    -0.267871     0.645774 

 

                           *** MP2 RELAXED DENSITY ***

------------------------------------------------------------------------------
                       ORCA ELECTRIC PROPERTIES CALCULATION
------------------------------------------------------------------------------

Dipole Moment Calculation                       ... on
Quadrupole Moment Calculation                   ... off
Polarizability Calculation                      ... off
GBWName                                         ... 12meoh.boyd.etal.mol0,4,9-orca.engrad-mp2.def2tzvp.frozencore.gbw
Electron density file                           ... 12meoh.boyd.etal.mol0,4,9-orca.engrad-mp2.def2tzvp.frozencore.pmp2re
The origin for moment calculation is the CENTER OF MASS  = (-0.973310,  1.341323 -0.745519)

-------------
DIPOLE MOMENT
-------------
                                X             Y             Z
Electronic contribution:     -0.52364      -1.14591      -0.53284
Nuclear contribution   :      0.89823       1.51068       0.74243
                        -----------------------------------------
Total Dipole Moment    :      0.37459       0.36477       0.20959
                        -----------------------------------------
Magnitude (a.u.)       :      0.56330
Magnitude (Debye)      :      1.43180



--------------------
Rotational spectrum 
--------------------
 
Rotational constants in cm-1:     0.074561     0.015508     0.013141 
Rotational constants in MHz :  2235.273355   464.931338   393.954476 

 Dipole components along the rotational axes: 
x,y,z [a.u.] :    -0.496532    -0.095918     0.248119 
x,y,z [Debye]:    -1.262084    -0.243804     0.630668 

 

Timings for individual modules:

Sum of individual times         ...       69.474 sec (=   1.158 min)
GTO integral calculation        ...        1.320 sec (=   0.022 min)   1.9 %
SCF iterations                  ...       14.154 sec (=   0.236 min)  20.4 %
MP2 module                      ...       53.999 sec (=   0.900 min)  77.7 %
                             ****ORCA TERMINATED NORMALLY****
TOTAL RUN TIME: 0 days 0 hours 1 minutes 10 seconds 509 msec
