49
Energy:  -1900.63601405
O    0.20778086  -1.40067598  -1.49452272
H   -0.44601505  -1.62055907  -2.15817487
H    0.88397910  -2.07105059  -1.59242920
O   -1.73030801  -1.87628686  -3.30094768
H   -1.64392346  -2.30150253  -4.15415410
H   -2.67387722  -1.76961846  -3.18040372
O    1.44171676  -1.16555748   1.07511484
H    1.45914303  -1.40552032   2.00158449
H    1.98940625  -1.82325884   0.64651599
O   -1.45058282  -0.61969888   0.80218157
H   -1.64386219  -0.98562337   1.66530045
H   -2.30966036  -0.45749095   0.41243008
O    0.99681115   3.34428502  -1.76104280
H    1.17461860   3.98328330  -2.45118594
H    1.03745990   3.85007871  -0.94940725
O    2.66749661  -2.62484902  -0.92761362
H    3.32603734  -2.05541191  -1.32547960
H    3.03154278  -3.50634193  -1.00929890
O    4.17990546  -0.50255774  -1.94062544
H    5.02977358  -0.34408283  -1.52972189
H    4.36733261  -0.52402360  -2.87905079
O    0.39973486   1.55991905   1.36599855
H    0.22109353   1.43701820   2.29831529
H    0.61783012   2.48830806   1.28377849
O   -3.50194354   0.31323263  -0.82974976
H   -3.84635717  -0.27887147  -1.49834818
H   -4.26658648   0.80169482  -0.52486011
O   -1.61448475  -1.46071457   3.40156590
H   -2.26381062  -1.97434125   3.88197760
H   -0.77695607  -1.87137851   3.61635110
O   -0.17337291   0.88049087   3.95147879
H   -0.33873090   1.41846089   4.72573769
H   -0.89195805   0.24823345   3.94062452
O   -4.42615190  -1.40973261  -2.79696420
H   -4.92891711  -2.18637985  -2.55144828
H   -4.91178531  -1.03126670  -3.52987320
O    1.17937729  -1.63105039   3.75191619
H    1.07168190  -0.75492205   4.12209544
H    1.72543949  -2.09444831   4.38698334
O    1.94678250   0.86857899  -1.00541329
H    1.88956030   1.73435461  -1.40962863
H    2.75516712   0.49354145  -1.35483137
O   -0.90223935   1.30467987  -1.24080459
H   -0.65538994   2.11509879  -1.68635861
H   -1.84811841   1.23756812  -1.37134446
O    1.02307251   4.23088905   0.88657899
H    0.38530584   4.90359709   1.12521975
H    1.85833252   4.56543327   1.21315627
Ca   0.27707582   0.08088032  -0.07546683
