49
Energy:  -1900.07317369
O   -3.75032278  -0.91389190   1.89171039
H   -4.61165839  -0.95381533   1.47609166
H   -3.78329058  -1.58150017   2.57687035
O    1.83276646   1.27743398  -0.19119049
H    2.00497794   2.20340396  -0.36193785
H    2.69789829   0.86783956  -0.19453316
O    3.36922728  -1.56338156   2.49258281
H    3.85833919  -1.13369515   3.19427433
H    3.44175612  -2.49784434   2.68687829
O    0.36915869  -2.71483166  -3.16731766
H   -0.03151659  -2.04430442  -3.72056660
H    0.76595287  -3.32954781  -3.78449695
O   -0.86361607   1.66729009   0.86821385
H   -0.97501033   2.47587563   0.36820125
H   -1.50608340   1.73165033   1.57484342
O   -1.70496437  -3.20830401  -1.39687355
H   -2.15289006  -4.05360976  -1.42931766
H   -1.04009616  -3.26251379  -2.08334527
O    0.87022575  -0.52704405   1.86192615
H    0.36653518  -0.41088183   2.66755262
H    1.69689755  -0.91452745   2.14950604
O   -0.66494485   3.45268365  -1.24147244
H    0.21477870   3.82262380  -1.16756296
H   -1.20475974   4.17813675  -1.55539845
O   -0.91615994  -0.50572311  -4.27985909
H   -0.54016105  -0.12287691  -5.07250369
H   -1.82042502  -0.71040240  -4.51785680
O   -2.73804688   1.48623197   2.84771920
H   -3.35018931   2.08220411   3.27937959
H   -3.27404609   0.73560449   2.59179913
O    3.76717485  -0.72164277  -0.12139772
H    4.64432772  -0.83405925  -0.48772713
H    3.83838666  -1.04693611   0.77601243
O   -0.51124158   0.73310264  -1.82202489
H   -0.68082580   0.34835650  -2.68193387
H   -0.67237068   1.66900321  -1.94185551
O    2.03219173   3.98808035  -0.77814648
H    2.56756793   4.28289357  -1.51482099
H    2.23603917   4.60190144  -0.07252495
O   -1.51502539  -1.10341662   0.25392460
H   -1.64868314  -1.88838015  -0.27730014
H   -2.28873196  -1.05925344   0.81576052
O    1.20353467  -1.42803232  -0.89989547
H    2.15620617  -1.46490541  -0.81451845
H    1.01048638  -1.96510905  -1.66834378
O   -0.72871785  -0.05653749   3.96361448
H   -1.44687756   0.55680852   3.80777755
H   -0.68468723  -0.13743769   4.91637274
Ca   0.14995059   0.07741374   0.03382557
