
                                 *****************
                                 * O   R   C   A *
                                 *****************

           --- An Ab Initio, DFT and Semiempirical electronic structure package ---

                  #######################################################
                  #                        -***-                        #
                  #  Department of molecular theory and spectroscopy    #
                  #              Directorship: Frank Neese              #
                  # Max Planck Institute for Chemical Energy Conversion #
                  #                  D-45470 Muelheim/Ruhr              #
                  #                       Germany                       #
                  #                                                     #
                  #                  All rights reserved                #
                  #                        -***-                        #
                  #######################################################


                         Program Version 3.0.3 - RELEASE   -


 With contributions from (in alphabetic order):
   Ute Becker             : Parallelization
   Dmytro Bykov           : SCF Hessian
   Dmitry Ganyushin       : Spin-Orbit,Spin-Spin,Magnetic field MRCI
   Andreas Hansen         : Spin unrestricted coupled pair/coupled cluster methods
   Dimitrios Liakos       : Extrapolation schemes; parallel MDCI
   Robert Izsak           : Overlap fitted RIJCOSX, COSX-SCS-MP3
   Christian Kollmar      : KDIIS, OOCD, Brueckner-CCSD(T), CCSD density
   Simone Kossmann        : Meta GGA functionals, TD-DFT gradient, OOMP2, MP2 Hessian
   Taras Petrenko         : DFT Hessian,TD-DFT gradient, ASA and ECA modules, normal mode analysis, Resonance Raman, ABS, FL, XAS/XES, NRVS
   Christoph Reimann      : Effective Core Potentials
   Michael Roemelt        : Restricted open shell CIS
   Christoph Riplinger    : Improved optimizer, TS searches, QM/MM, DLPNO-CCSD
   Barbara Sandhoefer     : DKH picture change effects
   Igor Schapiro          : Molecular dynamics
   Kantharuban Sivalingam : CASSCF convergence, NEVPT2
   Boris Wezisla          : Elementary symmetry handling
   Frank Wennmohs         : Technical directorship


 We gratefully acknowledge several colleagues who have allowed us to
 interface, adapt or use parts of their codes:
   Stefan Grimme, W. Hujo, H. Kruse, T. Risthaus : VdW corrections, initial TS optimization,
                                                   DFT functionals, gCP
   Ed Valeev                                     : LibInt (2-el integral package), F12 methods
   Garnet Chan, S. Sharma, R. Olivares           : DMRG
   Ulf Ekstrom                                   : XCFun DFT Library
   Mihaly Kallay                                 : mrcc  (arbitrary order and MRCC methods)
   Andreas Klamt, Michael Diedenhofen            : otool_cosmo (COSMO solvation model)
   Frank Weinhold                                : gennbo (NPA and NBO analysis)
   Christopher J. Cramer and Donald G. Truhlar   : smd solvation model


 Your calculation uses the libint2 library for the computation of 2-el integrals
 For citations please refer to: http://libint.valeyev.net

 This ORCA versions uses:
   CBLAS   interface :  Fast vector & matrix operations
   LAPACKE interface :  Fast linear algebra routines
   SCALAPACK package :  Parallel linear algebra routines


Your calculation utilizes the basis: Ahlrichs-TZV
Cite in your paper:
H - Kr: A. Schaefer, H. Horn and R. Ahlrichs, J. Chem. Phys. 97, 2571 (1992).

The def2-TZV basis will be loaded
Cite in your paper:
 	F. Weigend, R. Ahlrichs, Phys. Chem. Chem. Phys. 2005, 7, 3297.

Your calculation utilizes the atom-pairwise dispersion correction
with the Becke-Johnson damping scheme (D3BJ)
Cite in your paper:
S.Grimme, S.Ehrlich, L.Goerigk, J Comput Chem, (2011), 32, 1456–1465 
S.Grimme, J.Antony, S.Ehrlich and H.Krieg, J.Chem.Phys., 132, (2010), 154104 
   

================================================================================
                                        WARNINGS
                       Please study these warnings very carefully!
================================================================================
Now building the actual basis set


INFO   : the flag for use of LIBINT has been found!

================================================================================
                                       INPUT FILE
================================================================================
NAME = 4_B3LYP_SMD_onBP86_SMD_20_waters.inp
|  1> ! B3LYP Def2-TZVP def2-TZVP/J RIJCOSX TightSCF Grid4 D3BJ COSMO
|  2> 
|  3> %pal nprocs 12 end
|  4> 
|  5> %scf
|  6>         maxiter 400
|  7> end
|  8> 
|  9> %cosmo
| 10>         SMD true
| 11>         solvent "WATER"
| 12> end
| 13> 
| 14> * xyz  0  1
| 15> O  2.101974	-2.470740	2.091179
| 16> H  1.523747	-2.696751	1.309762
| 17> H  1.522232	-1.907844	2.687613
| 18> O  2.274035	0.766942	-0.251291
| 19> H  1.927290	1.553200	0.278709
| 20> H  2.876959	0.258947	0.393666
| 21> O  1.134360	-2.409183	-2.612526
| 22> H  1.540008	-1.454679	-2.708512
| 23> H  1.735586	-2.996099	-3.112030
| 24> O  1.305382	2.700054	1.320957
| 25> H  1.837284	2.252550	2.073474
| 26> H  0.353049	2.616608	1.642346
| 27> O  2.538706	1.325794	3.194943
| 28> H  3.151491	0.733237	2.675871
| 29> H  1.821235	0.669906	3.445150
| 30> O  -3.474438	0.891733	-0.865930
| 31> H  -4.264598	1.031286	-1.425881
| 32> H  -2.750189	0.547879	-1.510472
| 33> O  2.151938	-0.047086	-2.829108
| 34> H  2.315996	0.267707	-1.897265
| 35> H  1.451488	0.626299	-3.133116
| 36> O  -1.337597	-0.103044	2.139053
| 37> H  -1.433791	0.901044	2.233965
| 38> H  -0.819316	-0.179155	1.264292
| 39> O  -3.359773	-1.267001	0.763205
| 40> H  -2.691689	-0.879884	1.403582
| 41> H  -3.523227	-0.491393	0.147670
| 42> O  -1.265453	2.513722	2.080006
| 43> H  -1.518330	3.116457	2.806945
| 44> H  -1.771706	2.847345	1.234702
| 45> O  0.248795	3.329460	-1.117736
| 46> H  0.789459	3.153473	-0.297573
| 47> H  0.442696	4.264590	-1.331874
| 48> O  -0.030756	-0.408724	-0.097027
| 49> H  0.199663	-1.400251	-0.055262
| 50> H  0.885903	0.042567	-0.165709
| 51> O  0.535987	-2.969420	-0.095652
| 52> H  -0.450872	-3.172379	-0.181176
| 53> H  0.858777	-2.875923	-1.050469
| 54> O  -1.521474	-2.412952	-3.095390
| 55> H  -1.804483	-2.754543	-2.194912
| 56> H  -0.521714	-2.490232	-3.047754
| 57> O  -1.476481	0.044722	-2.245632
| 58> H  -1.565555	-0.887312	-2.671854
| 59> H  -0.888923	-0.132834	-1.434143
| 60> O  3.671351	-0.506566	1.546096
| 61> H  4.567435	-0.806354	1.297442
| 62> H  3.112299	-1.360531	1.724111
| 63> O  0.260620	1.727149	-3.371707
| 64> H  -0.472664	1.112991	-3.058463
| 65> H  0.353293	2.341619	-2.592751
| 66> O  0.753170	-0.672224	3.574804
| 67> H  0.497767	-0.937523	4.480502
| 68> H  -0.128570	-0.476855	3.092346
| 69> O  -2.314721	3.224911	-0.144049
| 70> H  -1.433104	3.256194	-0.615392
| 71> H  -2.758249	2.377635	-0.455172
| 72> O  -2.069249	-3.100687	-0.536978
| 73> H  -2.593480	-2.365829	-0.025867
| 74> H  -2.573695	-3.925462	-0.392250
| 75> **                         ****END OF INPUT****
================================================================================

                       ****************************
                       * Single Point Calculation *
                       ****************************

---------------------------------
CARTESIAN COORDINATES (ANGSTROEM)
---------------------------------
  O      2.101974   -2.470740    2.091179
  H      1.523747   -2.696751    1.309762
  H      1.522232   -1.907844    2.687613
  O      2.274035    0.766942   -0.251291
  H      1.927290    1.553200    0.278709
  H      2.876959    0.258947    0.393666
  O      1.134360   -2.409183   -2.612526
  H      1.540008   -1.454679   -2.708512
  H      1.735586   -2.996099   -3.112030
  O      1.305382    2.700054    1.320957
  H      1.837284    2.252550    2.073474
  H      0.353049    2.616608    1.642346
  O      2.538706    1.325794    3.194943
  H      3.151491    0.733237    2.675871
  H      1.821235    0.669906    3.445150
  O     -3.474438    0.891733   -0.865930
  H     -4.264598    1.031286   -1.425881
  H     -2.750189    0.547879   -1.510472
  O      2.151938   -0.047086   -2.829108
  H      2.315996    0.267707   -1.897265
  H      1.451488    0.626299   -3.133116
  O     -1.337597   -0.103044    2.139053
  H     -1.433791    0.901044    2.233965
  H     -0.819316   -0.179155    1.264292
  O     -3.359773   -1.267001    0.763205
  H     -2.691689   -0.879884    1.403582
  H     -3.523227   -0.491393    0.147670
  O     -1.265453    2.513722    2.080006
  H     -1.518330    3.116457    2.806945
  H     -1.771706    2.847345    1.234702
  O      0.248795    3.329460   -1.117736
  H      0.789459    3.153473   -0.297573
  H      0.442696    4.264590   -1.331874
  O     -0.030756   -0.408724   -0.097027
  H      0.199663   -1.400251   -0.055262
  H      0.885903    0.042567   -0.165709
  O      0.535987   -2.969420   -0.095652
  H     -0.450872   -3.172379   -0.181176
  H      0.858777   -2.875923   -1.050469
  O     -1.521474   -2.412952   -3.095390
  H     -1.804483   -2.754543   -2.194912
  H     -0.521714   -2.490232   -3.047754
  O     -1.476481    0.044722   -2.245632
  H     -1.565555   -0.887312   -2.671854
  H     -0.888923   -0.132834   -1.434143
  O      3.671351   -0.506566    1.546096
  H      4.567435   -0.806354    1.297442
  H      3.112299   -1.360531    1.724111
  O      0.260620    1.727149   -3.371707
  H     -0.472664    1.112991   -3.058463
  H      0.353293    2.341619   -2.592751
  O      0.753170   -0.672224    3.574804
  H      0.497767   -0.937523    4.480502
  H     -0.128570   -0.476855    3.092346
  O     -2.314721    3.224911   -0.144049
  H     -1.433104    3.256194   -0.615392
  H     -2.758249    2.377635   -0.455172
  O     -2.069249   -3.100687   -0.536978
  H     -2.593480   -2.365829   -0.025867
  H     -2.573695   -3.925462   -0.392250

----------------------------
CARTESIAN COORDINATES (A.U.)
----------------------------
  NO LB      ZA    FRAG    MASS        X           Y           Z
   0 O     8.0000    0    15.999          3.972155200622989         -4.669021948124594          3.951755607007309
   1 H     1.0000    0     1.008          2.879464527384105         -5.096120841378269          2.475091480616967
   2 H     1.0000    0     1.008          2.876601592291215         -3.605302666244857          5.078852523966496
   3 O     8.0000    0    15.999          4.297303368951614          1.449310340601833         -0.474871169919205
   4 H     1.0000    0     1.008          3.642050280645089          2.935122631206488          0.526683681059058
   5 H     1.0000    0     1.008          5.436664608519949          0.489338913200506          0.743920928236243
   6 O     8.0000    0    15.999          2.143629737274911         -4.552696076498803         -4.936958657748752
   7 H     1.0000    0     1.008          2.910193364047799         -2.748944922766432         -5.118345910439317
   8 H     1.0000    0     1.008          3.279782221867849         -5.661806580115329         -5.880884420546953
   9 O     8.0000    0    15.999          2.466814480150391          5.102362606798612          2.496246964686215
  10 H     1.0000    0     1.008          3.471963590235373          4.256702602964315          3.918298005806233
  11 H     1.0000    0     1.008          0.667165921854764          4.944672519827418          3.103584157141032
  12 O     8.0000    0    15.999          4.797459074542685          2.505387569995992          6.037567283488765
  13 H     1.0000    0     1.008          5.955454903517619          1.385617121258017          5.056663359701993
  14 H     1.0000    0     1.008          3.441635375512071          1.265938875470650          6.510389990278800
  15 O     8.0000    0    15.999         -6.565736289289086          1.685131154579999         -1.636370551146429
  16 H     1.0000    0     1.008         -8.058922291268303          1.948848105747112         -2.694524589561768
  17 H     1.0000    0     1.008         -5.197104026522753          1.035341264526642         -2.854378412956301
  18 O     8.0000    0    15.999          4.066573477178230         -0.088979644741816         -5.346239323285685
  19 H     1.0000    0     1.008          4.376598167257083          0.505892914133656         -3.585311253474103
  20 H     1.0000    0     1.008          2.742914806673090          1.183533587948746         -5.920731185806816
  21 O     8.0000    0    15.999         -2.527692007554664         -0.194724939743781          4.042224355942655
  22 H     1.0000    0     1.008         -2.709472323281085          1.702726394612940          4.221582042765389
  23 H     1.0000    0     1.008         -1.548282857139824         -0.338553885522662          2.389165633307567
  24 O     8.0000    0    15.999         -6.349050842143006         -2.394284901404360          1.442248434039369
  25 H     1.0000    0     1.008         -5.086555047688361         -1.662739789619167          2.652385586501458
  26 H     1.0000    0     1.008         -6.657934137636969         -0.928598194125966          0.279055858196151
  27 O     8.0000    0    15.999         -2.391359605349050          4.750246156812796          3.930641696913007
  28 H     1.0000    0     1.008         -2.869227880916654          5.889250238141822          5.304357322979588
  29 H     1.0000    0     1.008         -3.348039129825085          5.380702258790006          2.333248637004837
  30 O     8.0000    0    15.999          0.470154413488938          6.291767573845450         -2.112214930024604
  31 H     1.0000    0     1.008          1.491861303959337          5.959200340715051         -0.562331474849349
  32 H     1.0000    0     1.008          0.836574200582402          8.058907173459231         -2.516877104890233
  33 O     8.0000    0    15.999         -0.058120416974882         -0.772376424360830         -0.183354457595977
  34 H     1.0000    0     1.008          0.377308389077119         -2.646090908749366         -0.104430045612756
  35 H     1.0000    0     1.008          1.674114051219239          0.080439972342626         -0.313144627925957
  36 O     8.0000    0    15.999          1.012868641342050         -5.611390576588443         -0.180756084161836
  37 H     1.0000    0     1.008         -0.852024601453343         -5.994927503002966         -0.342373022039317
  38 H     1.0000    0     1.008          1.622853340110491         -5.434706852245207         -1.985098722174123
  39 O     8.0000    0    15.999         -2.875169179881703         -4.559818454297552         -5.849439377678503
  40 H     1.0000    0     1.008         -3.409978683316622         -5.205331894109846         -4.147782568057362
  41 H     1.0000    0     1.008         -0.985896580232592         -4.705856489926986         -5.759420383563030
  42 O     8.0000    0    15.999         -2.790144731938184          0.084512332161226         -4.243629477569848
  43 H     1.0000    0     1.008         -2.958470197591085         -1.676776675341934         -5.049072329822033
  44 H     1.0000    0     1.008         -1.679821024143681         -0.251019881273296         -2.710137506880225
  45 O     8.0000    0    15.999          6.937847931497921         -0.957271008755953          2.921698016751111
  46 H     1.0000    0     1.008          8.631201284486611         -1.523788226991937          2.451810054647057
  47 H     1.0000    0     1.008          5.881392756876978         -2.571030986710015          3.258097614481103
  48 O     8.0000    0    15.999          0.492500425022557          3.263838602475956         -6.371602833825222
  49 H     1.0000    0     1.008         -0.893205513363754          2.103248179519148         -5.779657460731193
  50 H     1.0000    0     1.008          0.667627015031441          4.425018619986548         -4.899589323450459
  51 O     8.0000    0    15.999          1.423285032285469         -1.270319260649080          6.755400542446226
  52 H     1.0000    0     1.008          0.940643308503580         -1.771661714252254          8.466921722486436
  53 H     1.0000    0     1.008         -0.242962089038255         -0.901125355591018          5.843687051326847
  54 O     8.0000    0    15.999         -4.374188766436333          6.094198596270118         -0.272213159865222
  55 H     1.0000    0     1.008         -2.708174081427081          6.153314898917576         -1.162922345006067
  56 H     1.0000    0     1.008         -5.212335219162159          4.493078996425855         -0.860150423829204
  57 O     8.0000    0    15.999         -3.910313912890416         -5.859449257009884         -1.014741359940766
  58 H     1.0000    0     1.008         -4.900966933802088         -4.470768889688781         -0.048881545906141
  59 H     1.0000    0     1.008         -4.863578702242456         -7.418048129114784         -0.741245076030611

--------------------------------
INTERNAL COORDINATES (ANGSTROEM)
--------------------------------
 O      0   0   0   0.000000     0.000     0.000
 H      1   0   0   0.998018     0.000     0.000
 H      1   2   0   1.004334   104.919     0.000
 O      2   1   3   3.872594    90.047    81.053
 H      4   2   1   1.009621   114.733   295.341
 H      4   2   1   1.018600    54.083    26.420
 O      2   1   3   3.952045   144.853   120.367
 H      7   2   1   1.041557    96.879   323.421
 H      7   2   1   0.977470   113.758    73.494
 O      5   4   2   1.669828   172.067     8.880
 H     10   5   4   1.024432    88.000    44.532
 H     10   5   4   1.008560   119.587   301.036
 O     11  10   5   1.615104   170.472   302.146
 H     13  11  10   0.998031   104.253    73.079
 H     13  11  10   1.003772   103.745   328.370
 O     12  10   5   4.890429   127.211   325.314
 H     16  12  10   0.978454   151.075   264.180
 H     16  12  10   1.028692    83.583    13.605
 O      8   7   2   1.539584   179.076    23.711
 H     19   8   7   0.997167   106.309   330.931
 H     19   8   7   1.018086   110.772   222.546
 O     12  10   5   3.240603   127.655    31.334
 H     22  12  10   1.013141    39.839   177.211
 H     22  12  10   1.019615    70.486   316.704
 O     16  12  10   2.706910    86.528   108.663
 H     25  16  12   1.003134    96.007     9.719
 H     25  16  12   1.003578     7.083   152.699
 O     23  22  12   1.628733   164.286    22.560
 H     28  23  22   0.977587   120.894   204.781
 H     28  23  22   1.040257   110.125    80.202
 O     10   5   4   2.731255    75.229   223.926
 H     31  10   5   0.997976    10.259   290.679
 H     31  10   5   0.978734   109.809   234.191
 O     24  22  12   1.589880   175.940   164.746
 H     34  24  22   1.018805   102.568   339.231
 H     34  24  22   1.024033   115.962   227.532
 O     35  34  24   1.605315   176.083   137.942
 H     37  35  34   1.011137    89.648   289.430
 H     37  35  34   1.012230    90.015    33.907
 O      7   2   1   2.699375   105.924   208.595
 H     40   7   2   1.003812    96.742   344.333
 H     40   7   2   1.003873     8.803   215.161
 O     18  16  12   1.554336   168.959    23.227
 H     43  18  16   1.028731   114.727   121.515
 H     43  18  16   1.017480    98.770    12.930
 O      6   4   2   1.595357   172.493   293.564
 H     46   6   4   0.977071   114.838   183.975
 H     46   6   4   1.036091   104.532    67.539
 O     21  19   8   1.639196   170.929    84.719
 H     49  21  19   1.006488    94.255   295.850
 H     49  21  19   0.996461   103.461    38.841
 O      3   1   2   1.704500   167.381   253.757
 H     52   3   1   0.977703   113.786   219.050
 H     52   3   1   1.023914   106.356   103.631
 O     30  28  23   1.529175   169.951   286.227
 H     55  30  28   1.000196    96.870   332.581
 H     55  30  28   1.005679   103.151    80.442
 O     38  37  35   1.658577   164.113    30.701
 H     58  38  37   1.037337   114.711   291.889
 H     58  38  37   0.977582   115.803   168.848

---------------------------
INTERNAL COORDINATES (A.U.)
---------------------------
 O      0   0   0   0.000000     0.000     0.000
 H      1   0   0   1.885981     0.000     0.000
 H      1   2   0   1.897916   104.919     0.000
 O      2   1   3   7.318143    90.047    81.053
 H      4   2   1   1.907906   114.733   295.341
 H      4   2   1   1.924875    54.083    26.420
 O      2   1   3   7.468283   144.853   120.367
 H      7   2   1   1.968258    96.879   323.421
 H      7   2   1   1.847150   113.758    73.494
 O      5   4   2   3.155517   172.067     8.880
 H     10   5   4   1.935896    88.000    44.532
 H     10   5   4   1.905901   119.587   301.036
 O     11  10   5   3.052105   170.472   302.146
 H     13  11  10   1.886004   104.253    73.079
 H     13  11  10   1.896853   103.745   328.370
 O     12  10   5   9.241572   127.211   325.314
 H     16  12  10   1.849011   151.075   264.180
 H     16  12  10   1.943946    83.583    13.605
 O      8   7   2   2.909393   179.076    23.711
 H     19   8   7   1.884372   106.309   330.931
 H     19   8   7   1.923903   110.772   222.546
 O     12  10   5   6.123852   127.655    31.334
 H     22  12  10   1.914559    39.839   177.211
 H     22  12  10   1.926793    70.486   316.704
 O     16  12  10   5.115318    86.528   108.663
 H     25  16  12   1.895649    96.007     9.719
 H     25  16  12   1.896487     7.083   152.699
 O     23  22  12   3.077859   164.286    22.560
 H     28  23  22   1.847372   120.894   204.781
 H     28  23  22   1.965801   110.125    80.202
 O     10   5   4   5.161323    75.229   223.926
 H     31  10   5   1.885902    10.259   290.679
 H     31  10   5   1.849540   109.809   234.191
 O     24  22  12   3.004438   175.940   164.746
 H     34  24  22   1.925262   102.568   339.231
 H     34  24  22   1.935143   115.962   227.532
 O     35  34  24   3.033606   176.083   137.942
 H     37  35  34   1.910771    89.648   289.430
 H     37  35  34   1.912838    90.015    33.907
 O      7   2   1   5.101080   105.924   208.595
 H     40   7   2   1.896930    96.742   344.333
 H     40   7   2   1.897045     8.803   215.161
 O     18  16  12   2.937269   168.959    23.227
 H     43  18  16   1.944019   114.727   121.515
 H     43  18  16   1.922758    98.770    12.930
 O      6   4   2   3.014788   172.493   293.564
 H     46   6   4   1.846397   114.838   183.975
 H     46   6   4   1.957928   104.532    67.539
 O     21  19   8   3.097631   170.929    84.719
 H     49  21  19   1.901986    94.255   295.850
 H     49  21  19   1.883038   103.461    38.841
 O      3   1   2   3.221039   167.381   253.757
 H     52   3   1   1.847591   113.786   219.050
 H     52   3   1   1.934917   106.356   103.631
 O     30  28  23   2.889722   169.951   286.227
 H     55  30  28   1.890096    96.870   332.581
 H     55  30  28   1.900459   103.151    80.442
 O     38  37  35   3.134257   164.113    30.701
 H     58  38  37   1.960284   114.711   291.889
 H     58  38  37   1.847361   115.803   168.848

---------------------
BASIS SET INFORMATION
---------------------
There are 2 groups of distinct atoms

 Group   1 Type O   : 11s6p2d1f contracted to 5s3p2d1f pattern {62111/411/11/1}
 Group   2 Type H   : 5s1p contracted to 3s1p pattern {311/1}

Atom   0O    basis set group =>   1
Atom   1H    basis set group =>   2
Atom   2H    basis set group =>   2
Atom   3O    basis set group =>   1
Atom   4H    basis set group =>   2
Atom   5H    basis set group =>   2
Atom   6O    basis set group =>   1
Atom   7H    basis set group =>   2
Atom   8H    basis set group =>   2
Atom   9O    basis set group =>   1
Atom  10H    basis set group =>   2
Atom  11H    basis set group =>   2
Atom  12O    basis set group =>   1
Atom  13H    basis set group =>   2
Atom  14H    basis set group =>   2
Atom  15O    basis set group =>   1
Atom  16H    basis set group =>   2
Atom  17H    basis set group =>   2
Atom  18O    basis set group =>   1
Atom  19H    basis set group =>   2
Atom  20H    basis set group =>   2
Atom  21O    basis set group =>   1
Atom  22H    basis set group =>   2
Atom  23H    basis set group =>   2
Atom  24O    basis set group =>   1
Atom  25H    basis set group =>   2
Atom  26H    basis set group =>   2
Atom  27O    basis set group =>   1
Atom  28H    basis set group =>   2
Atom  29H    basis set group =>   2
Atom  30O    basis set group =>   1
Atom  31H    basis set group =>   2
Atom  32H    basis set group =>   2
Atom  33O    basis set group =>   1
Atom  34H    basis set group =>   2
Atom  35H    basis set group =>   2
Atom  36O    basis set group =>   1
Atom  37H    basis set group =>   2
Atom  38H    basis set group =>   2
Atom  39O    basis set group =>   1
Atom  40H    basis set group =>   2
Atom  41H    basis set group =>   2
Atom  42O    basis set group =>   1
Atom  43H    basis set group =>   2
Atom  44H    basis set group =>   2
Atom  45O    basis set group =>   1
Atom  46H    basis set group =>   2
Atom  47H    basis set group =>   2
Atom  48O    basis set group =>   1
Atom  49H    basis set group =>   2
Atom  50H    basis set group =>   2
Atom  51O    basis set group =>   1
Atom  52H    basis set group =>   2
Atom  53H    basis set group =>   2
Atom  54O    basis set group =>   1
Atom  55H    basis set group =>   2
Atom  56H    basis set group =>   2
Atom  57O    basis set group =>   1
Atom  58H    basis set group =>   2
Atom  59H    basis set group =>   2
-------------------------------
AUXILIARY BASIS SET INFORMATION
-------------------------------
There are 2 groups of distinct atoms

 Group   1 Type O   : 12s5p4d2f1g contracted to 6s4p3d1f1g pattern {711111/2111/211/2/1}
 Group   2 Type H   : 5s2p1d contracted to 3s1p1d pattern {311/2/1}

Atom   0O    basis set group =>   1
Atom   1H    basis set group =>   2
Atom   2H    basis set group =>   2
Atom   3O    basis set group =>   1
Atom   4H    basis set group =>   2
Atom   5H    basis set group =>   2
Atom   6O    basis set group =>   1
Atom   7H    basis set group =>   2
Atom   8H    basis set group =>   2
Atom   9O    basis set group =>   1
Atom  10H    basis set group =>   2
Atom  11H    basis set group =>   2
Atom  12O    basis set group =>   1
Atom  13H    basis set group =>   2
Atom  14H    basis set group =>   2
Atom  15O    basis set group =>   1
Atom  16H    basis set group =>   2
Atom  17H    basis set group =>   2
Atom  18O    basis set group =>   1
Atom  19H    basis set group =>   2
Atom  20H    basis set group =>   2
Atom  21O    basis set group =>   1
Atom  22H    basis set group =>   2
Atom  23H    basis set group =>   2
Atom  24O    basis set group =>   1
Atom  25H    basis set group =>   2
Atom  26H    basis set group =>   2
Atom  27O    basis set group =>   1
Atom  28H    basis set group =>   2
Atom  29H    basis set group =>   2
Atom  30O    basis set group =>   1
Atom  31H    basis set group =>   2
Atom  32H    basis set group =>   2
Atom  33O    basis set group =>   1
Atom  34H    basis set group =>   2
Atom  35H    basis set group =>   2
Atom  36O    basis set group =>   1
Atom  37H    basis set group =>   2
Atom  38H    basis set group =>   2
Atom  39O    basis set group =>   1
Atom  40H    basis set group =>   2
Atom  41H    basis set group =>   2
Atom  42O    basis set group =>   1
Atom  43H    basis set group =>   2
Atom  44H    basis set group =>   2
Atom  45O    basis set group =>   1
Atom  46H    basis set group =>   2
Atom  47H    basis set group =>   2
Atom  48O    basis set group =>   1
Atom  49H    basis set group =>   2
Atom  50H    basis set group =>   2
Atom  51O    basis set group =>   1
Atom  52H    basis set group =>   2
Atom  53H    basis set group =>   2
Atom  54O    basis set group =>   1
Atom  55H    basis set group =>   2
Atom  56H    basis set group =>   2
Atom  57O    basis set group =>   1
Atom  58H    basis set group =>   2
Atom  59H    basis set group =>   2
smp-n47.crc.pitt.edu.374848hfi_wait_for_device: The /dev/hfi1_0 device failed to appear after 15.0 seconds: Connection timed out
smp-n47.crc.pitt.edu.374850hfi_wait_for_device: The /dev/hfi1_0 device failed to appear after 15.0 seconds: Connection timed out
smp-n47.crc.pitt.edu.374830hfi_wait_for_device: The /dev/hfi1_0 device failed to appear after 15.0 seconds: Connection timed out
smp-n47.crc.pitt.edu.374832hfi_wait_for_device: The /dev/hfi1_0 device failed to appear after 15.0 seconds: Connection timed out
smp-n47.crc.pitt.edu.374836hfi_wait_for_device: The /dev/hfi1_0 device failed to appear after 15.0 seconds: Connection timed out
smp-n47.crc.pitt.edu.374840hfi_wait_for_device: The /dev/hfi1_0 device failed to appear after 15.0 seconds: Connection timed out
smp-n47.crc.pitt.edu.374842hfi_wait_for_device: The /dev/hfi1_0 device failed to appear after 15.0 seconds: Connection timed out
smp-n47.crc.pitt.edu.374846hfi_wait_for_device: The /dev/hfi1_0 device failed to appear after 15.0 seconds: Connection timed out
smp-n47.crc.pitt.edu.374831hfi_wait_for_device: The /dev/hfi1_0 device failed to appear after 15.0 seconds: Connection timed out
smp-n47.crc.pitt.edu.374834hfi_wait_for_device: The /dev/hfi1_0 device failed to appear after 15.0 seconds: Connection timed out
smp-n47.crc.pitt.edu.374838hfi_wait_for_device: The /dev/hfi1_0 device failed to appear after 15.0 seconds: Connection timed out
smp-n47.crc.pitt.edu.374844hfi_wait_for_device: The /dev/hfi1_0 device failed to appear after 15.0 seconds: Connection timed out


           ************************************************************
           *        Program running with 12 parallel MPI-processes    *
           *              working on a common directory               *
           ************************************************************
------------------------------------------------------------------------------
                           ORCA GTO INTEGRAL CALCULATION
                           -- RI-GTO INTEGRALS CHOSEN --
------------------------------------------------------------------------------

                         BASIS SET STATISTICS AND STARTUP INFO

Gaussian basis set:
 # of primitive gaussian shells          ...  640
 # of primitive gaussian functions       ... 1240
 # of contracted shells                  ...  380
 # of contracted basis functions         ...  860
 Highest angular momentum                ...    3
 Maximum contraction depth               ...    6
Auxiliary gaussian basis set:
 # of primitive gaussian shells          ...  800
 # of primitive gaussian functions       ... 2040
 # of contracted shells                  ...  500
 # of contracted aux-basis functions     ... 1420
 Highest angular momentum                ...    4
 Maximum contraction depth               ...    7
Ratio of auxiliary to basis functions    ...  1.65
Integral package used                  ... LIBINT
 One Electron integrals                  ... done
 Ordering auxiliary basis shells         ... done
 Integral threshhold             Thresh  ...  2.500e-11
 Primitive cut-off               TCut    ...  2.500e-12
 Pre-screening matrix                    ... done
 Shell pair data                         ... 
 Ordering of the shell pairs             ... done (   0.007 sec) 46896 of 72390 pairs
 Determination of significant pairs      ... done (   0.000 sec)
 Creation of shell pair data             ... done (   0.005 sec)
 Storage of shell pair data              ... done (   0.007 sec)
 Shell pair data done in (   0.019 sec)
 Computing two index integrals           ... done
 Cholesky decomposition of the V-matrix  ... done


Timings:
 Total evaluation time                   ...   0.932 sec (  0.016 min)
 One electron matrix time                ...   0.344 sec (  0.006 min) = 37.0%
 Schwartz matrix evaluation time         ...   0.439 sec (  0.007 min) = 47.1%
 Two index repulsion integral time       ...   0.046 sec (  0.001 min) =  5.0%
 Cholesky decomposition of V             ...   0.069 sec (  0.001 min) =  7.4%
 Three index repulsion integral time     ...   0.000 sec (  0.000 min) =  0.0%

           ************************************************************
           *              Shut down parallel processing               *
           ************************************************************
smp-n47.crc.pitt.edu.374874hfi_wait_for_device: The /dev/hfi1_0 device failed to appear after 15.0 seconds: Connection timed out
smp-n47.crc.pitt.edu.374856hfi_wait_for_device: The /dev/hfi1_0 device failed to appear after 15.0 seconds: Connection timed out
smp-n47.crc.pitt.edu.374857hfi_wait_for_device: The /dev/hfi1_0 device failed to appear after 15.0 seconds: Connection timed out
smp-n47.crc.pitt.edu.374858hfi_wait_for_device: The /dev/hfi1_0 device failed to appear after 15.0 seconds: Connection timed out
smp-n47.crc.pitt.edu.374860hfi_wait_for_device: The /dev/hfi1_0 device failed to appear after 15.0 seconds: Connection timed out
smp-n47.crc.pitt.edu.374862hfi_wait_for_device: The /dev/hfi1_0 device failed to appear after 15.0 seconds: Connection timed out
smp-n47.crc.pitt.edu.374866hfi_wait_for_device: The /dev/hfi1_0 device failed to appear after 15.0 seconds: Connection timed out
smp-n47.crc.pitt.edu.374872hfi_wait_for_device: The /dev/hfi1_0 device failed to appear after 15.0 seconds: Connection timed out
smp-n47.crc.pitt.edu.374864hfi_wait_for_device: The /dev/hfi1_0 device failed to appear after 15.0 seconds: Connection timed out
smp-n47.crc.pitt.edu.374868hfi_wait_for_device: The /dev/hfi1_0 device failed to appear after 15.0 seconds: Connection timed out
smp-n47.crc.pitt.edu.374870hfi_wait_for_device: The /dev/hfi1_0 device failed to appear after 15.0 seconds: Connection timed out
smp-n47.crc.pitt.edu.374876hfi_wait_for_device: The /dev/hfi1_0 device failed to appear after 15.0 seconds: Connection timed out


           ************************************************************
           *        Program running with 12 parallel MPI-processes    *
           *              working on a common directory               *
           ************************************************************
-------------------------------------------------------------------------------
                                 ORCA SCF
-------------------------------------------------------------------------------

------------
SCF SETTINGS
------------
Hamiltonian:
 Density Functional     Method          .... DFT(GTOs)
 Exchange Functional    Exchange        .... B88
   X-Alpha parameter    XAlpha          ....  0.666667
   Becke's b parameter  XBeta           ....  0.004200
 Correlation Functional Correlation     .... LYP
 LDA part of GGA corr.  LDAOpt          .... VWN-5
 Gradients option       PostSCFGGA      .... off
 Hybrid DFT is turned on
   Fraction HF Exchange ScalHFX         ....  0.200000
   Scaling of DF-GGA-X  ScalDFX         ....  0.720000
   Scaling of DF-GGA-C  ScalDFC         ....  0.810000
   Scaling of DF-LDA-C  ScalLDAC        ....  1.000000
   Perturbative correction              ....  0.000000
   NL short-range parameter             ....  4.800000
 RI-approximation to the Coulomb term is turned on
   Number of auxiliary basis functions  .... 1420
   RIJ-COSX (HFX calculated with COS-X)).... on


General Settings:
 Integral files         IntName         .... 4_B3LYP_SMD_onBP86_SMD_20_waters
 Hartree-Fock type      HFTyp           .... RHF
 Total Charge           Charge          ....    0
 Multiplicity           Mult            ....    1
 Number of Electrons    NEL             ....  200
 Basis Dimension        Dim             ....  860
 Nuclear Repulsion      ENuc            ....   2511.7715123967 Eh

Convergence Acceleration:
 DIIS                   CNVDIIS         .... on
   Start iteration      DIISMaxIt       ....    12
   Startup error        DIISStart       ....  0.200000
   # of expansion vecs  DIISMaxEq       ....     5
   Bias factor          DIISBfac        ....   1.050
   Max. coefficient     DIISMaxC        ....  10.000
 Newton-Raphson         CNVNR           .... off
 SOSCF                  CNVSOSCF        .... on
   Start iteration      SOSCFMaxIt      ....   150
   Startup grad/error   SOSCFStart      ....  0.003300
 Level Shifting         CNVShift        .... on
   Level shift para.    LevelShift      ....    0.2500
   Turn off err/grad.   ShiftErr        ....    0.0010
 Zerner damping         CNVZerner       .... off
 Static damping         CNVDamp         .... on
   Fraction old density DampFac         ....    0.7000
   Max. Damping (<1)    DampMax         ....    0.9800
   Min. Damping (>=0)   DampMin         ....    0.0000
   Turn off err/grad.   DampErr         ....    0.1000
 Fernandez-Rico         CNVRico         .... off

SCF Procedure:
 Maximum # iterations   MaxIter         ....   400
 SCF integral mode      SCFMode         .... Direct
   Integral package                     .... LIBINT
 Reset frequeny         DirectResetFreq ....    20
 Integral Threshold     Thresh          ....  2.500e-11 Eh
 Primitive CutOff       TCut            ....  2.500e-12 Eh

Convergence Tolerance:
 Convergence Check Mode ConvCheckMode   .... Total+1el-Energy
 Energy Change          TolE            ....  1.000e-08 Eh
 1-El. energy change                    ....  1.000e-05 Eh
 Orbital Gradient       TolG            ....  1.000e-05
 Orbital Rotation angle TolX            ....  1.000e-05
 DIIS Error             TolErr          ....  5.000e-07


Diagonalization of the overlap matrix:
Smallest eigenvalue                        ... 1.389e-03
Time for diagonalization                   ...    0.179 sec
Threshold for overlap eigenvalues          ... 1.000e-08
Number of eigenvalues below threshold      ... 0
Time for construction of square roots      ...    0.074 sec
Total time needed                          ...    0.255 sec

-------------------
DFT GRID GENERATION
-------------------

General Integration Accuracy     IntAcc      ...  4.670
Radial Grid Type                 RadialGrid  ... Gauss-Chebyshev
Angular Grid (max. acc.)         AngularGrid ... Lebedev-302
Angular grid pruning method      GridPruning ... 3 (G Style)
Weight generation scheme         WeightScheme... Becke
Basis function cutoff            BFCut       ...    1.0000e-11
Integration weight cutoff        WCut        ...    1.0000e-14
Grids for H and He will be reduced by one unit

# of grid points (after initial pruning)     ... 260000 (   0.0 sec)
# of grid points (after weights+screening)   ... 223716 (   1.3 sec)
nearest neighbour list constructed           ...    0.0 sec
Grid point re-assignment to atoms done       ...    0.1 sec
Grid point division into batches done        ...    0.6 sec
Reduced shell lists constructed in    1.1 sec

Total number of grid points                  ...   223716
Total number of batches                      ...     3522
Average number of points per batch           ...       63
Average number of grid points per atom       ...     3729
Average number of shells per batch           ...   142.96 (37.62%)
Average number of basis functions per batch  ...   267.84 (31.14%)
Average number of large shells per batch     ...    85.88 (60.07%)
Average number of large basis fcns per batch ...   156.88 (58.57%)
Maximum spatial batch extension              ...  17.75, 12.74, 12.51 au
Average spatial batch extension              ...   0.15,  0.14,  0.14 au

Time for grid setup =    2.446 sec

------------------------------
INITIAL GUESS: MODEL POTENTIAL
------------------------------
Loading Hartree-Fock densities                     ... done
Calculating cut-offs                               ... done
Setting up the integral package                    ... done
Initializing the effective Hamiltonian             ... done
Starting the Coulomb interaction                   ... done (   0.5 sec)
Reading the grid                                   ... done
Mapping shells                                     ... done
Starting the XC term evaluation                    ... done (   0.5 sec)
  promolecular density results
     # of electrons  =    199.979928067
     EX              =   -175.858964542
     EC              =     -6.965382544
     EX+EC           =   -182.824347086
Transforming the Hamiltonian                       ... done (   0.1 sec)
Diagonalizing the Hamiltonian                      ... done (   0.2 sec)
Back transforming the eigenvectors                 ... done (   0.0 sec)
Now organizing SCF variables                       ... done
                      ------------------
                      INITIAL GUESS DONE (   3.9 sec)
                      ------------------
--------------------
COSX GRID GENERATION
--------------------

General Integration Accuracy     IntAcc      ...  3.340
Radial Grid Type                 RadialGrid  ... Gauss-Chebyshev
Angular Grid (max. acc.)         AngularGrid ... Lebedev-50
Angular grid pruning method      GridPruning ... 3 (G Style)
Weight generation scheme         WeightScheme... Becke
Basis function cutoff            BFCut       ...    1.0000e-11
Integration weight cutoff        WCut        ...    1.0000e-14
Grids for H and He will be reduced by one unit

# of grid points (after initial pruning)     ...  24400 (   0.0 sec)
# of grid points (after weights+screening)   ...  21474 (   0.1 sec)
nearest neighbour list constructed           ...    0.0 sec
Grid point re-assignment to atoms done       ...    0.0 sec
Grid point division into batches done        ...    0.0 sec
Reduced shell lists constructed in    0.1 sec

Total number of grid points                  ...    21474
Total number of batches                      ...      365
Average number of points per batch           ...       58
Average number of grid points per atom       ...      358
Average number of shells per batch           ...   164.25 (43.22%)
Average number of basis functions per batch  ...   320.38 (37.25%)
Average number of large shells per batch     ...    99.06 (60.31%)
Average number of large basis fcns per batch ...   183.94 (57.41%)
Maximum spatial batch extension              ...  12.22, 12.36, 12.29 au
Average spatial batch extension              ...   0.34,  0.29,  0.28 au

Overlap Fitting                  UseSFitting ... on
Constructing numerical overlap ... done (      0.0 sec)
Inverting numerical overlap    ... done (      0.0 sec)
Obtaining analytic overlap     ... done (      0.0 sec)
Final contraction and storage  ... done (      0.0 sec)


General Integration Accuracy     IntAcc      ...  3.670
Radial Grid Type                 RadialGrid  ... Gauss-Chebyshev
Angular Grid (max. acc.)         AngularGrid ... Lebedev-50
Angular grid pruning method      GridPruning ... 3 (G Style)
Weight generation scheme         WeightScheme... Becke
Basis function cutoff            BFCut       ...    1.0000e-11
Integration weight cutoff        WCut        ...    1.0000e-14
Grids for H and He will be reduced by one unit

# of grid points (after initial pruning)     ...  32040 (   0.0 sec)
# of grid points (after weights+screening)   ...  28135 (   0.1 sec)
nearest neighbour list constructed           ...    0.0 sec
Grid point re-assignment to atoms done       ...    0.0 sec
Grid point division into batches done        ...    0.0 sec
Reduced shell lists constructed in    0.1 sec

Total number of grid points                  ...    28135
Total number of batches                      ...      470
Average number of points per batch           ...       59
Average number of grid points per atom       ...      469
Average number of shells per batch           ...   163.76 (43.09%)
Average number of basis functions per batch  ...   318.05 (36.98%)
Average number of large shells per batch     ...    99.98 (61.05%)
Average number of large basis fcns per batch ...   185.73 (58.40%)
Maximum spatial batch extension              ...  13.38, 12.88, 13.09 au
Average spatial batch extension              ...   0.30,  0.28,  0.27 au

Overlap Fitting                  UseSFitting ... on
Constructing numerical overlap ... done (      0.1 sec)
Inverting numerical overlap    ... done (      0.0 sec)
Obtaining analytic overlap     ... done (      0.0 sec)
Final contraction and storage  ... done (      0.0 sec)


General Integration Accuracy     IntAcc      ...  4.010
Radial Grid Type                 RadialGrid  ... Gauss-Chebyshev
Angular Grid (max. acc.)         AngularGrid ... Lebedev-110
Angular grid pruning method      GridPruning ... 3 (G Style)
Weight generation scheme         WeightScheme... Becke
Basis function cutoff            BFCut       ...    1.0000e-11
Integration weight cutoff        WCut        ...    1.0000e-14
Grids for H and He will be reduced by one unit

# of grid points (after initial pruning)     ...  55160 (   0.0 sec)
# of grid points (after weights+screening)   ...  48726 (   0.1 sec)
nearest neighbour list constructed           ...    0.0 sec
Grid point re-assignment to atoms done       ...    0.0 sec
Grid point division into batches done        ...    0.0 sec
Reduced shell lists constructed in    0.1 sec

Total number of grid points                  ...    48726
Total number of batches                      ...      793
Average number of points per batch           ...       61
Average number of grid points per atom       ...      812
Average number of shells per batch           ...   155.90 (41.03%)
Average number of basis functions per batch  ...   298.54 (34.71%)
Average number of large shells per batch     ...    93.66 (60.08%)
Average number of large basis fcns per batch ...   172.66 (57.83%)
Maximum spatial batch extension              ...  13.79, 13.58, 14.19 au
Average spatial batch extension              ...   0.24,  0.25,  0.22 au

Overlap Fitting                  UseSFitting ... on
Constructing numerical overlap ... done (      0.1 sec)
Inverting numerical overlap    ... done (      0.0 sec)
Obtaining analytic overlap     ... done (      0.0 sec)
Final contraction and storage  ... done (      0.0 sec)

Time for X-Grid setup             =    1.046 sec

--------------------
COSMO INITIALIZATION
--------------------

Epsilon                                      ...   78.3550
Refractive Index                             ...    1.3300
Potential Evaluation                         ...  ANALYTIC
Technical COSMO parameters:
  rsolv                                      ...    1.3000
  routf                                      ...    0.8500
  disex                                      ...   10.0000
  nppa                                       ... 1082   
  nspa                                       ...   92   
Solvent:                                     ... WATER
Solvent:                                     ... WATER
SMD-CDS solvent descriptors:
  Soln                                       ...    1.3328
  Soln25                                     ...    1.3323
  Sola                                       ...    0.0000
  Solb                                       ...    0.0000
  Solg                                       ...    0.0000
  Solc                                       ...    0.0000
  Solh                                       ...    0.0000
Radii:
 Radius for O  used is    2.8724 Bohr (=   1.5200 Ang.)
 Radius for H  used is    2.2677 Bohr (=   1.2000 Ang.)
Initializing COSMO package            ... done
Setting COSMO radii                   ... done
Setting atoms and making cavity       ...  USING 1082 GRID
done
Cholesky decomposition of A           ... done
--------------
SCF ITERATIONS
--------------
ITER       Energy         Delta-E        Max-DP      RMS-DP      [F,P]     Damp
               ***  Starting incremental Fock matrix formation  ***
  0  -1527.4595246417   0.000000000000 0.05434918  0.00077393  0.3136165 0.7000
  1  -1528.1691796459  -0.709655004145 0.03337526  0.00047673  0.1328368 0.7000
                               ***Turning on DIIS***
  2  -1528.4084643272  -0.239284681289 0.03741459  0.00058860  0.0351228 0.0000
  3  -1528.8155706953  -0.407106368080 0.02074683  0.00029894  0.0752284 0.0000
  4  -1528.8970973045  -0.081526609272 0.00588543  0.00008951  0.0166573 0.0000
  5  -1528.9005185108  -0.003421206238 0.00171094  0.00003072  0.0036030 0.0000
                      *** Initiating the SOSCF procedure ***
                           *** Shutting down DIIS ***
                      *** Re-Reading the Fockian *** 
                      *** Removing any level shift *** 
ITER      Energy       Delta-E        Grad      Rot      Max-DP    RMS-DP
  6  -1528.90067122  -0.0001527121  0.000204  0.000204  0.000786  0.000011
               *** Restarting incremental Fock matrix formation ***
  7  -1528.90071746  -0.0000462323  0.000090  0.000222  0.000371  0.000006
  8  -1528.90071889  -0.0000014338  0.000038  0.000064  0.000143  0.000002
  9  -1528.90071883   0.0000000623  0.000036  0.000048  0.000102  0.000001
 10  -1528.90071916  -0.0000003345  0.000005  0.000005  0.000028  0.000000
 11  -1528.90071933  -0.0000001684  0.000008  0.000003  0.000015  0.000000
                  ***Gradient check signals convergence***
              ***Rediagonalizing the Fockian in SOSCF/NRSCF***

               *****************************************************
               *                     SUCCESS                       *
               *           SCF CONVERGED AFTER  12 CYCLES          *
               *****************************************************

Setting up the final grid:

General Integration Accuracy     IntAcc      ...  5.010
Radial Grid Type                 RadialGrid  ... Gauss-Chebyshev
Angular Grid (max. acc.)         AngularGrid ... Lebedev-434
Angular grid pruning method      GridPruning ... 3 (G Style)
Weight generation scheme         WeightScheme... Becke
Basis function cutoff            BFCut       ...    1.0000e-11
Integration weight cutoff        WCut        ...    1.0000e-14
Grids for H and He will be reduced by one unit

# of grid points (after initial pruning)     ... 484520 (   0.0 sec)
# of grid points (after weights+screening)   ... 415531 (   2.5 sec)
nearest neighbour list constructed           ...    0.0 sec
Grid point re-assignment to atoms done       ...    0.0 sec
Grid point division into batches done        ...    1.8 sec
Reduced shell lists constructed in    2.5 sec

Total number of grid points                  ...   415531
Total number of batches                      ...     6523
Average number of points per batch           ...       63
Average number of grid points per atom       ...     6926
Average number of shells per batch           ...   138.70 (36.50%)
Average number of basis functions per batch  ...   257.73 (29.97%)
Average number of large shells per batch     ...    82.99 (59.83%)
Average number of large basis fcns per batch ...   150.72 (58.48%)
Maximum spatial batch extension              ...  13.35, 12.41, 11.84 au
Average spatial batch extension              ...   0.12,  0.11,  0.11 au

Final grid set up in    5.5 sec
Final integration                            ... done (   1.2 sec)
Change in XC energy                          ...    -0.000084137
Integrated number of electrons               ...   200.000037801
Previous integrated no of electrons          ...   199.999785406
Old exchange energy                            =    -35.693838655 Eh
New exchange energy                            =    -35.692239614 Eh
Exchange energy change after final integration =      0.001599041 Eh
Total energy after final integration           =  -1528.899204303 Eh
Final COS-X integration done in                =    11.194 sec
   3.05094514101548       -2.22665800035131        3.25319098692318     
  1.979976974732812E-003  0.160998203331324       1.229813087204552E-002
Total Energy after outlying charge correction =  -1528.907231625 Eh

SMD CDS free energy correction energy :                10.54900     Kcal/mol
Total Energy after SMD CDS correction =             -1528.882393403 Eh

----------------
TOTAL SCF ENERGY
----------------

Total Energy       :        -1528.88239340 Eh          -41603.00498 eV
Total Energy       :        -1528.88239340 Eh          -41603.00498 eV
COSMO(ediel)       :           -0.09070209 Eh              -2.46813 eV
SMD CDS (Gcds)     :            0.01681090 Eh               0.45745 eV

Components:
Nuclear Repulsion  :         2511.77151240 Eh           68348.77764 eV
Electronic Energy  :        -4040.65390580 Eh         -109951.78262 eV

One Electron Energy:        -7116.88104271 Eh         -193660.17867 eV
Two Electron Energy:         3076.22713691 Eh           83708.39605 eV

Virial components:
Potential Energy   :        -3051.31634333 Eh          -83030.53889 eV
Kinetic Energy     :         1522.43394993 Eh           41427.53391 eV
Virial Ratio       :            2.00423561


DFT components:
N(Alpha)           :      100.000018900665 electrons
N(Beta)            :      100.000018900665 electrons
N(Total)           :      200.000037801329 electrons
E(X)               :     -142.298727319194 Eh       
E(C)               :       -8.220347050947 Eh       
E(XC)              :     -150.519074370142 Eh       

---------------
SCF CONVERGENCE
---------------

  Last Energy change         ...    1.2286e-07  Tolerance :   1.0000e-08
  Last MAX-Density change    ...    1.7375e-14  Tolerance :   1.0000e-07
  Last RMS-Density change    ...    2.7583e-16  Tolerance :   5.0000e-09
  Last Orbital Gradient      ...    2.3931e-07  Tolerance :   1.0000e-05
  Last Orbital Rotation      ...    3.2940e-07  Tolerance :   1.0000e-05

             **** THE GBW FILE WAS UPDATED (4_B3LYP_SMD_onBP86_SMD_20_waters.gbw) ****
             **** DENSITY FILE WAS UPDATED (4_B3LYP_SMD_onBP86_SMD_20_waters.scfp.tmp) ****
             **** ENERGY FILE WAS UPDATED (4_B3LYP_SMD_onBP86_SMD_20_waters.en.tmp) ****
----------------
ORBITAL ENERGIES
----------------

  NO   OCC          E(Eh)            E(eV) 
   0   2.0000     -19.145811      -520.9840 
   1   2.0000     -19.133120      -520.6387 
   2   2.0000     -19.132641      -520.6256 
   3   2.0000     -19.131994      -520.6080 
   4   2.0000     -19.131925      -520.6061 
   5   2.0000     -19.131624      -520.5979 
   6   2.0000     -19.130142      -520.5576 
   7   2.0000     -19.128866      -520.5229 
   8   2.0000     -19.126257      -520.4519 
   9   2.0000     -19.125291      -520.4256 
  10   2.0000     -19.123402      -520.3742 
  11   2.0000     -19.122550      -520.3510 
  12   2.0000     -19.121239      -520.3154 
  13   2.0000     -19.120763      -520.3024 
  14   2.0000     -19.120679      -520.3001 
  15   2.0000     -19.118718      -520.2468 
  16   2.0000     -19.118718      -520.2468 
  17   2.0000     -19.117073      -520.2020 
  18   2.0000     -19.114771      -520.1394 
  19   2.0000     -19.114184      -520.1234 
  20   2.0000      -1.037398       -28.2290 
  21   2.0000      -1.028828       -27.9958 
  22   2.0000      -1.025289       -27.8995 
  23   2.0000      -1.022500       -27.8236 
  24   2.0000      -1.016785       -27.6681 
  25   2.0000      -1.016066       -27.6486 
  26   2.0000      -1.013383       -27.5755 
  27   2.0000      -1.012250       -27.5447 
  28   2.0000      -1.008837       -27.4518 
  29   2.0000      -1.004634       -27.3375 
  30   2.0000      -1.002875       -27.2896 
  31   2.0000      -0.997664       -27.1478 
  32   2.0000      -0.996248       -27.1093 
  33   2.0000      -0.992711       -27.0130 
  34   2.0000      -0.985550       -26.8182 
  35   2.0000      -0.981164       -26.6988 
  36   2.0000      -0.980453       -26.6795 
  37   2.0000      -0.978289       -26.6206 
  38   2.0000      -0.974519       -26.5180 
  39   2.0000      -0.973441       -26.4887 
  40   2.0000      -0.552250       -15.0275 
  41   2.0000      -0.543420       -14.7872 
  42   2.0000      -0.540916       -14.7191 
  43   2.0000      -0.539167       -14.6715 
  44   2.0000      -0.537840       -14.6354 
  45   2.0000      -0.533591       -14.5197 
  46   2.0000      -0.532409       -14.4876 
  47   2.0000      -0.530255       -14.4290 
  48   2.0000      -0.529126       -14.3983 
  49   2.0000      -0.527424       -14.3519 
  50   2.0000      -0.526264       -14.3204 
  51   2.0000      -0.525102       -14.2888 
  52   2.0000      -0.521675       -14.1955 
  53   2.0000      -0.521503       -14.1908 
  54   2.0000      -0.516702       -14.0602 
  55   2.0000      -0.515542       -14.0286 
  56   2.0000      -0.515245       -14.0205 
  57   2.0000      -0.509199       -13.8560 
  58   2.0000      -0.508246       -13.8301 
  59   2.0000      -0.505251       -13.7486 
  60   2.0000      -0.469624       -12.7791 
  61   2.0000      -0.458646       -12.4804 
  62   2.0000      -0.456074       -12.4104 
  63   2.0000      -0.448619       -12.2075 
  64   2.0000      -0.442423       -12.0389 
  65   2.0000      -0.440390       -11.9836 
  66   2.0000      -0.424273       -11.5450 
  67   2.0000      -0.419062       -11.4033 
  68   2.0000      -0.414088       -11.2679 
  69   2.0000      -0.410546       -11.1715 
  70   2.0000      -0.403699       -10.9852 
  71   2.0000      -0.398112       -10.8332 
  72   2.0000      -0.393878       -10.7180 
  73   2.0000      -0.392075       -10.6689 
  74   2.0000      -0.386656       -10.5214 
  75   2.0000      -0.382942       -10.4204 
  76   2.0000      -0.376208       -10.2371 
  77   2.0000      -0.370592       -10.0843 
  78   2.0000      -0.366640        -9.9768 
  79   2.0000      -0.354876        -9.6567 
  80   2.0000      -0.334983        -9.1154 
  81   2.0000      -0.330893        -9.0041 
  82   2.0000      -0.329063        -8.9542 
  83   2.0000      -0.327310        -8.9065 
  84   2.0000      -0.326749        -8.8913 
  85   2.0000      -0.324900        -8.8410 
  86   2.0000      -0.323887        -8.8134 
  87   2.0000      -0.323603        -8.8057 
  88   2.0000      -0.322598        -8.7783 
  89   2.0000      -0.321936        -8.7603 
  90   2.0000      -0.319544        -8.6952 
  91   2.0000      -0.318352        -8.6628 
  92   2.0000      -0.316895        -8.6231 
  93   2.0000      -0.316065        -8.6006 
  94   2.0000      -0.315525        -8.5859 
  95   2.0000      -0.314621        -8.5613 
  96   2.0000      -0.311176        -8.4675 
  97   2.0000      -0.310282        -8.4432 
  98   2.0000      -0.309239        -8.4148 
  99   2.0000      -0.307127        -8.3573 
 100   0.0000       0.005026         0.1368 
 101   0.0000       0.034638         0.9426 
 102   0.0000       0.035767         0.9733 
 103   0.0000       0.044509         1.2112 
 104   0.0000       0.059296         1.6135 
 105   0.0000       0.063040         1.7154 
 106   0.0000       0.067305         1.8315 
 107   0.0000       0.094208         2.5635 
 108   0.0000       0.097125         2.6429 
 109   0.0000       0.105548         2.8721 
 110   0.0000       0.114660         3.1201 
 111   0.0000       0.118218         3.2169 
 112   0.0000       0.127751         3.4763 
 113   0.0000       0.134581         3.6621 
 114   0.0000       0.146725         3.9926 
 115   0.0000       0.160010         4.3541 
 116   0.0000       0.163192         4.4407 
 117   0.0000       0.170248         4.6327 
 118   0.0000       0.176336         4.7983 
 119   0.0000       0.182519         4.9666 
 120   0.0000       0.186130         5.0649 
 121   0.0000       0.186907         5.0860 
 122   0.0000       0.198467         5.4006 
 123   0.0000       0.203956         5.5499 
 124   0.0000       0.207613         5.6494 
 125   0.0000       0.214728         5.8431 
 126   0.0000       0.221835         6.0364 
 127   0.0000       0.225968         6.1489 
 128   0.0000       0.232278         6.3206 
 129   0.0000       0.237337         6.4583 
 130   0.0000       0.239662         6.5215 
 131   0.0000       0.240086         6.5331 
 132   0.0000       0.245836         6.6895 
 133   0.0000       0.250359         6.8126 
 134   0.0000       0.253621         6.9014 
 135   0.0000       0.259697         7.0667 
 136   0.0000       0.262269         7.1367 
 137   0.0000       0.265445         7.2231 
 138   0.0000       0.267477         7.2784 
 139   0.0000       0.272743         7.4217 
 140   0.0000       0.281683         7.6650 
 141   0.0000       0.286963         7.8087 
 142   0.0000       0.293509         7.9868 
 143   0.0000       0.298850         8.1321 
 144   0.0000       0.303533         8.2595 
 145   0.0000       0.305082         8.3017 
 146   0.0000       0.309725         8.4281 
 147   0.0000       0.314193         8.5496 
 148   0.0000       0.314335         8.5535 
 149   0.0000       0.318238         8.6597 
 150   0.0000       0.321214         8.7407 
 151   0.0000       0.326387         8.8814 
 152   0.0000       0.328048         8.9266 
 153   0.0000       0.330896         9.0041 
 154   0.0000       0.331469         9.0197 
 155   0.0000       0.337500         9.1839 
 156   0.0000       0.340529         9.2663 
 157   0.0000       0.343360         9.3433 
 158   0.0000       0.350017         9.5244 
 159   0.0000       0.352109         9.5814 
 160   0.0000       0.360199         9.8015 
 161   0.0000       0.360591         9.8122 
 162   0.0000       0.363008         9.8779 
 163   0.0000       0.371724        10.1151 
 164   0.0000       0.371796        10.1171 
 165   0.0000       0.375687        10.2230 
 166   0.0000       0.381201        10.3730 
 167   0.0000       0.390116        10.6156 
 168   0.0000       0.393530        10.7085 
 169   0.0000       0.399117        10.8605 
 170   0.0000       0.404768        11.0143 
 171   0.0000       0.409996        11.1566 
 172   0.0000       0.417960        11.3733 
 173   0.0000       0.426780        11.6133 
 174   0.0000       0.432403        11.7663 
 175   0.0000       0.443803        12.0765 
 176   0.0000       0.452130        12.3031 
 177   0.0000       0.461055        12.5459 
 178   0.0000       0.464931        12.6514 
 179   0.0000       0.466796        12.7022 
 180   0.0000       0.476684        12.9712 
 181   0.0000       0.481861        13.1121 
 182   0.0000       0.483010        13.1434 
 183   0.0000       0.489753        13.3269 
 184   0.0000       0.495618        13.4865 
 185   0.0000       0.498610        13.5679 
 186   0.0000       0.509854        13.8738 
 187   0.0000       0.513912        13.9843 
 188   0.0000       0.524348        14.2682 
 189   0.0000       0.528508        14.3814 
 190   0.0000       0.535463        14.5707 
 191   0.0000       0.539901        14.6914 
 192   0.0000       0.548780        14.9331 
 193   0.0000       0.555764        15.1231 
 194   0.0000       0.558831        15.2066 
 195   0.0000       0.561080        15.2678 
 196   0.0000       0.572773        15.5859 
 197   0.0000       0.579532        15.7699 
 198   0.0000       0.585077        15.9208 
 199   0.0000       0.591969        16.1083 
 200   0.0000       0.596900        16.2425 
 201   0.0000       0.602672        16.3995 
 202   0.0000       0.605658        16.4808 
 203   0.0000       0.613372        16.6907 
 204   0.0000       0.617351        16.7990 
 205   0.0000       0.622428        16.9371 
 206   0.0000       0.628749        17.1091 
 207   0.0000       0.637455        17.3460 
 208   0.0000       0.639304        17.3963 
 209   0.0000       0.648684        17.6516 
 210   0.0000       0.652658        17.7597 
 211   0.0000       0.663904        18.0657 
 212   0.0000       0.665879        18.1195 
 213   0.0000       0.672958        18.3121 
 214   0.0000       0.675603        18.3841 
 215   0.0000       0.687466        18.7069 
 216   0.0000       0.693633        18.8747 
 217   0.0000       0.696080        18.9413 
 218   0.0000       0.705144        19.1879 
 219   0.0000       0.711710        19.3666 
 220   0.0000       0.713610        19.4183 
 221   0.0000       0.721022        19.6200 
 222   0.0000       0.722526        19.6609 
 223   0.0000       0.729360        19.8469 
 224   0.0000       0.734951        19.9990 
 225   0.0000       0.738336        20.0911 
 226   0.0000       0.740209        20.1421 
 227   0.0000       0.748522        20.3683 
 228   0.0000       0.756003        20.5719 
 229   0.0000       0.764320        20.7982 
 230   0.0000       0.768911        20.9231 
 231   0.0000       0.774628        21.0787 
 232   0.0000       0.776444        21.1281 
 233   0.0000       0.779065        21.1994 
 234   0.0000       0.783491        21.3199 
 235   0.0000       0.795424        21.6446 
 236   0.0000       0.797164        21.6919 
 237   0.0000       0.806599        21.9487 
 238   0.0000       0.818335        22.2680 
 239   0.0000       0.828017        22.5315 
 240   0.0000       0.856677        23.3114 
 241   0.0000       0.867436        23.6041 
 242   0.0000       0.871909        23.7258 
 243   0.0000       0.877524        23.8786 
 244   0.0000       0.893878        24.3236 
 245   0.0000       0.896879        24.4053 
 246   0.0000       0.904881        24.6231 
 247   0.0000       0.914502        24.8849 
 248   0.0000       0.922658        25.1068 
 249   0.0000       0.935394        25.4534 
 250   0.0000       0.945158        25.7190 
 251   0.0000       0.950083        25.8531 
 252   0.0000       0.957973        26.0678 
 253   0.0000       0.966664        26.3043 
 254   0.0000       0.977819        26.6078 
 255   0.0000       1.001979        27.2652 
 256   0.0000       1.020492        27.7690 
 257   0.0000       1.055745        28.7283 
 258   0.0000       1.087707        29.5980 
 259   0.0000       1.089562        29.6485 
 260   0.0000       1.108838        30.1730 
 261   0.0000       1.122363        30.5411 
 262   0.0000       1.125046        30.6141 
 263   0.0000       1.133565        30.8459 
 264   0.0000       1.142869        31.0990 
 265   0.0000       1.143986        31.1294 
 266   0.0000       1.147690        31.2302 
 267   0.0000       1.158683        31.5294 
 268   0.0000       1.160681        31.5837 
 269   0.0000       1.169205        31.8157 
 270   0.0000       1.177528        32.0422 
 271   0.0000       1.181668        32.1548 
 272   0.0000       1.192208        32.4416 
 273   0.0000       1.194475        32.5033 
 274   0.0000       1.199383        32.6369 
 275   0.0000       1.211853        32.9762 
 276   0.0000       1.213841        33.0303 
 277   0.0000       1.219054        33.1721 
 278   0.0000       1.222046        33.2536 
 279   0.0000       1.232128        33.5279 
 280   0.0000       1.235964        33.6323 
 281   0.0000       1.239043        33.7161 
 282   0.0000       1.242990        33.8235 
 283   0.0000       1.250509        34.0281 
 284   0.0000       1.253039        34.0969 
 285   0.0000       1.256219        34.1835 
 286   0.0000       1.259716        34.2786 
 287   0.0000       1.269475        34.5442 
 288   0.0000       1.274468        34.6800 
 289   0.0000       1.284955        34.9654 
 290   0.0000       1.287999        35.0482 
 291   0.0000       1.293363        35.1942 
 292   0.0000       1.295465        35.2514 
 293   0.0000       1.302507        35.4430 
 294   0.0000       1.310891        35.6712 
 295   0.0000       1.321122        35.9496 
 296   0.0000       1.325649        36.0727 
 297   0.0000       1.332983        36.2723 
 298   0.0000       1.337963        36.4078 
 299   0.0000       1.344812        36.5942 
 300   0.0000       1.351127        36.7660 
 301   0.0000       1.359116        36.9834 
 302   0.0000       1.363162        37.0935 
 303   0.0000       1.366012        37.1711 
 304   0.0000       1.368431        37.2369 
 305   0.0000       1.369605        37.2688 
 306   0.0000       1.376871        37.4666 
 307   0.0000       1.382787        37.6275 
 308   0.0000       1.387437        37.7541 
 309   0.0000       1.389560        37.8118 
 310   0.0000       1.397262        38.0214 
 311   0.0000       1.402387        38.1609 
 312   0.0000       1.409752        38.3613 
 313   0.0000       1.422290        38.7025 
 314   0.0000       1.426904        38.8280 
 315   0.0000       1.430223        38.9183 
 316   0.0000       1.434947        39.0469 
 317   0.0000       1.442356        39.2485 
 318   0.0000       1.447706        39.3941 
 319   0.0000       1.466482        39.9050 
 320   0.0000       1.569546        42.7095 
 321   0.0000       1.605294        43.6823 
 322   0.0000       1.620620        44.0993 
 323   0.0000       1.629030        44.3282 
 324   0.0000       1.633822        44.4586 
 325   0.0000       1.637662        44.5631 
 326   0.0000       1.641713        44.6733 
 327   0.0000       1.649080        44.8737 
 328   0.0000       1.656887        45.0862 
 329   0.0000       1.665906        45.3316 
 330   0.0000       1.668893        45.4129 
 331   0.0000       1.673685        45.5433 
 332   0.0000       1.680064        45.7169 
 333   0.0000       1.684643        45.8415 
 334   0.0000       1.684797        45.8457 
 335   0.0000       1.690235        45.9936 
 336   0.0000       1.698055        46.2064 
 337   0.0000       1.702839        46.3366 
 338   0.0000       1.710319        46.5402 
 339   0.0000       1.721654        46.8486 
 340   0.0000       1.723374        46.8954 
 341   0.0000       1.726013        46.9672 
 342   0.0000       1.728696        47.0402 
 343   0.0000       1.736292        47.2469 
 344   0.0000       1.744710        47.4760 
 345   0.0000       1.748337        47.5747 
 346   0.0000       1.758952        47.8635 
 347   0.0000       1.760332        47.9011 
 348   0.0000       1.764082        48.0031 
 349   0.0000       1.771439        48.2033 
 350   0.0000       1.785189        48.5775 
 351   0.0000       1.792051        48.7642 
 352   0.0000       1.795522        48.8586 
 353   0.0000       1.805723        49.1362 
 354   0.0000       1.806262        49.1509 
 355   0.0000       1.815891        49.4129 
 356   0.0000       1.821561        49.5672 
 357   0.0000       1.828450        49.7547 
 358   0.0000       1.836203        49.9656 
 359   0.0000       1.844539        50.1925 
 360   0.0000       1.855459        50.4896 
 361   0.0000       1.867740        50.8238 
 362   0.0000       1.877861        51.0992 
 363   0.0000       1.890081        51.4317 
 364   0.0000       1.894714        51.5578 
 365   0.0000       1.901687        51.7475 
 366   0.0000       1.917160        52.1686 
 367   0.0000       1.920378        52.2561 
 368   0.0000       1.926304        52.4174 
 369   0.0000       1.939956        52.7889 
 370   0.0000       1.941789        52.8388 
 371   0.0000       1.947515        52.9946 
 372   0.0000       1.957179        53.2576 
 373   0.0000       1.961109        53.3645 
 374   0.0000       1.969437        53.5911 
 375   0.0000       1.973927        53.7133 
 376   0.0000       1.976227        53.7759 
 377   0.0000       1.986250        54.0486 
 378   0.0000       1.995191        54.2919 
 379   0.0000       2.002723        54.4969 
 380   0.0000       2.005518        54.5729 
 381   0.0000       2.008949        54.6663 
 382   0.0000       2.023690        55.0674 
 383   0.0000       2.026909        55.1550 
 384   0.0000       2.034361        55.3578 
 385   0.0000       2.037730        55.4494 
 386   0.0000       2.050786        55.8047 
 387   0.0000       2.053120        55.8682 
 388   0.0000       2.055807        55.9413 
 389   0.0000       2.063737        56.1571 
 390   0.0000       2.067896        56.2703 
 391   0.0000       2.069458        56.3128 
 392   0.0000       2.075122        56.4669 
 393   0.0000       2.079842        56.5954 
 394   0.0000       2.094167        56.9852 
 395   0.0000       2.098234        57.0958 
 396   0.0000       2.103796        57.2472 
 397   0.0000       2.111055        57.4447 
 398   0.0000       2.120008        57.6884 
 399   0.0000       2.126896        57.8758 
 400   0.0000       2.129642        57.9505 
 401   0.0000       2.139487        58.2184 
 402   0.0000       2.143253        58.3209 
 403   0.0000       2.147339        58.4321 
 404   0.0000       2.150718        58.5240 
 405   0.0000       2.153878        58.6100 
 406   0.0000       2.162216        58.8369 
 407   0.0000       2.167945        58.9928 
 408   0.0000       2.173766        59.1512 
 409   0.0000       2.176428        59.2236 
 410   0.0000       2.181923        59.3732 
 411   0.0000       2.186905        59.5087 
 412   0.0000       2.195073        59.7310 
 413   0.0000       2.204189        59.9790 
 414   0.0000       2.206590        60.0444 
 415   0.0000       2.208912        60.1075 
 416   0.0000       2.218288        60.3627 
 417   0.0000       2.225011        60.5456 
 418   0.0000       2.228048        60.6283 
 419   0.0000       2.237420        60.8833 
 420   0.0000       2.239248        60.9330 
 421   0.0000       2.249205        61.2040 
 422   0.0000       2.251961        61.2790 
 423   0.0000       2.261890        61.5492 
 424   0.0000       2.274488        61.8920 
 425   0.0000       2.278350        61.9971 
 426   0.0000       2.282982        62.1231 
 427   0.0000       2.284260        62.1579 
 428   0.0000       2.291974        62.3678 
 429   0.0000       2.294556        62.4380 
 430   0.0000       2.298860        62.5552 
 431   0.0000       2.301891        62.6377 
 432   0.0000       2.312318        62.9214 
 433   0.0000       2.315951        63.0202 
 434   0.0000       2.322411        63.1960 
 435   0.0000       2.325287        63.2743 
 436   0.0000       2.330136        63.4062 
 437   0.0000       2.333298        63.4923 
 438   0.0000       2.340880        63.6986 
 439   0.0000       2.345657        63.8286 
 440   0.0000       2.348637        63.9097 
 441   0.0000       2.353289        64.0362 
 442   0.0000       2.359549        64.2066 
 443   0.0000       2.363802        64.3223 
 444   0.0000       2.370348        64.5005 
 445   0.0000       2.371094        64.5208 
 446   0.0000       2.377821        64.7038 
 447   0.0000       2.378416        64.7200 
 448   0.0000       2.379723        64.7556 
 449   0.0000       2.387426        64.9652 
 450   0.0000       2.390717        65.0547 
 451   0.0000       2.397588        65.2417 
 452   0.0000       2.400765        65.3281 
 453   0.0000       2.403326        65.3978 
 454   0.0000       2.411039        65.6077 
 455   0.0000       2.419101        65.8271 
 456   0.0000       2.423258        65.9402 
 457   0.0000       2.426893        66.0391 
 458   0.0000       2.432263        66.1853 
 459   0.0000       2.432949        66.2039 
 460   0.0000       2.440752        66.4162 
 461   0.0000       2.447229        66.5925 
 462   0.0000       2.455533        66.8185 
 463   0.0000       2.457574        66.8740 
 464   0.0000       2.463859        67.0450 
 465   0.0000       2.469406        67.1959 
 466   0.0000       2.476175        67.3802 
 467   0.0000       2.479625        67.4740 
 468   0.0000       2.484525        67.6074 
 469   0.0000       2.489628        67.7462 
 470   0.0000       2.493375        67.8482 
 471   0.0000       2.503088        68.1125 
 472   0.0000       2.518686        68.5369 
 473   0.0000       2.522843        68.6500 
 474   0.0000       2.525693        68.7276 
 475   0.0000       2.529642        68.8351 
 476   0.0000       2.533018        68.9269 
 477   0.0000       2.539619        69.1065 
 478   0.0000       2.545153        69.2571 
 479   0.0000       2.547451        69.3197 
 480   0.0000       2.555538        69.5397 
 481   0.0000       2.556333        69.5614 
 482   0.0000       2.566277        69.8319 
 483   0.0000       2.572412        69.9989 
 484   0.0000       2.574573        70.0577 
 485   0.0000       2.578885        70.1750 
 486   0.0000       2.585623        70.3584 
 487   0.0000       2.586574        70.3843 
 488   0.0000       2.599126        70.7258 
 489   0.0000       2.603907        70.8559 
 490   0.0000       2.614363        71.1404 
 491   0.0000       2.615324        71.1666 
 492   0.0000       2.622244        71.3549 
 493   0.0000       2.627612        71.5009 
 494   0.0000       2.640599        71.8544 
 495   0.0000       2.649408        72.0941 
 496   0.0000       2.654032        72.2199 
 497   0.0000       2.654893        72.2433 
 498   0.0000       2.667963        72.5990 
 499   0.0000       2.669846        72.6502 
 500   0.0000       2.674997        72.7904 
 501   0.0000       2.685092        73.0651 
 502   0.0000       2.688268        73.1515 
 503   0.0000       2.705459        73.6193 
 504   0.0000       2.710556        73.7580 
 505   0.0000       2.718259        73.9676 
 506   0.0000       2.727215        74.2113 
 507   0.0000       2.734512        74.4099 
 508   0.0000       2.739249        74.5387 
 509   0.0000       2.754738        74.9602 
 510   0.0000       2.767726        75.3137 
 511   0.0000       2.772230        75.4362 
 512   0.0000       2.781869        75.6985 
 513   0.0000       2.799474        76.1776 
 514   0.0000       2.816002        76.6273 
 515   0.0000       2.851419        77.5911 
 516   0.0000       2.852968        77.6332 
 517   0.0000       2.857888        77.7671 
 518   0.0000       2.879024        78.3422 
 519   0.0000       2.887029        78.5601 
 520   0.0000       2.895774        78.7980 
 521   0.0000       2.935173        79.8701 
 522   0.0000       2.936732        79.9125 
 523   0.0000       2.947822        80.2143 
 524   0.0000       2.953029        80.3560 
 525   0.0000       2.954761        80.4031 
 526   0.0000       2.969279        80.7982 
 527   0.0000       2.979777        81.0839 
 528   0.0000       2.995950        81.5239 
 529   0.0000       3.012174        81.9654 
 530   0.0000       3.022539        82.2475 
 531   0.0000       3.036490        82.6271 
 532   0.0000       3.045836        82.8814 
 533   0.0000       3.054329        83.1125 
 534   0.0000       3.059121        83.2429 
 535   0.0000       3.080302        83.8193 
 536   0.0000       3.088334        84.0378 
 537   0.0000       3.093607        84.1813 
 538   0.0000       3.107457        84.5582 
 539   0.0000       3.112021        84.6824 
 540   0.0000       3.119744        84.8926 
 541   0.0000       3.123111        84.9842 
 542   0.0000       3.131704        85.2180 
 543   0.0000       3.139056        85.4181 
 544   0.0000       3.145957        85.6058 
 545   0.0000       3.161280        86.0228 
 546   0.0000       3.163658        86.0875 
 547   0.0000       3.168456        86.2181 
 548   0.0000       3.172898        86.3390 
 549   0.0000       3.183360        86.6236 
 550   0.0000       3.197078        86.9969 
 551   0.0000       3.211175        87.3805 
 552   0.0000       3.221719        87.6674 
 553   0.0000       3.226230        87.7902 
 554   0.0000       3.245942        88.3266 
 555   0.0000       3.253320        88.5273 
 556   0.0000       3.273699        89.0819 
 557   0.0000       3.284291        89.3701 
 558   0.0000       3.310302        90.0779 
 559   0.0000       3.417412        92.9925 
 560   0.0000       3.714805       101.0850 
 561   0.0000       3.743523       101.8664 
 562   0.0000       3.750625       102.0597 
 563   0.0000       3.758293       102.2683 
 564   0.0000       3.765301       102.4591 
 565   0.0000       3.769524       102.5740 
 566   0.0000       3.773213       102.6743 
 567   0.0000       3.778268       102.8119 
 568   0.0000       3.783496       102.9542 
 569   0.0000       3.787214       103.0553 
 570   0.0000       3.800864       103.4268 
 571   0.0000       3.817794       103.8874 
 572   0.0000       3.834829       104.3510 
 573   0.0000       3.850652       104.7816 
 574   0.0000       3.859166       105.0132 
 575   0.0000       3.864372       105.1549 
 576   0.0000       3.877795       105.5202 
 577   0.0000       3.884391       105.6997 
 578   0.0000       3.899883       106.1212 
 579   0.0000       3.907520       106.3290 
[...]
      f+1     :     0.000634
      f-1     :     0.000089
      f+2     :     0.000048
      f-2     :     0.000018
      f+3     :     0.000384
      f-3     :     0.000224
 37 H s       :     0.658547  s :     0.658547
      pz      :     0.028992  p :     0.195108
      px      :     0.126995
      py      :     0.039121
 38 H s       :     0.659191  s :     0.659191
      pz      :     0.122866  p :     0.196185
      px      :     0.035019
      py      :     0.038300
 39 O s       :     3.477352  s :     3.477352
      pz      :     1.609046  p :     4.827671
      px      :     1.468753
      py      :     1.749871
      dz2     :     0.010968  d :     0.028547
      dxz     :     0.002180
      dyz     :     0.004166
      dx2y2   :     0.010624
      dxy     :     0.000608
      f0      :     0.000221  f :     0.001869
      f+1     :     0.000491
      f-1     :     0.000390
      f+2     :     0.000047
      f-2     :     0.000100
      f+3     :     0.000519
      f-3     :     0.000100
 40 H s       :     0.668614  s :     0.668614
      pz      :     0.109093  p :     0.187844
      px      :     0.032541
      py      :     0.046210
 41 H s       :     0.668255  s :     0.668255
      pz      :     0.030848  p :     0.187516
      px      :     0.119953
      py      :     0.036715
 42 O s       :     3.475470  s :     3.475470
      pz      :     1.540252  p :     4.783117
      px      :     1.672688
      py      :     1.570177
      dz2     :     0.003651  d :     0.030295
      dxz     :     0.009304
      dyz     :     0.006157
      dx2y2   :     0.007954
      dxy     :     0.003228
      f0      :     0.000202  f :     0.001917
      f+1     :     0.000493
      f-1     :     0.000053
      f+2     :     0.000551
      f-2     :     0.000191
      f+3     :     0.000046
      f-3     :     0.000382
 43 H s       :     0.647535  s :     0.647535
      pz      :     0.043999  p :     0.208176
      px      :     0.031383
      py      :     0.132794
 44 H s       :     0.660728  s :     0.660728
      pz      :     0.102458  p :     0.204736
      px      :     0.070597
      py      :     0.031680
 45 O s       :     3.462043  s :     3.462043
      pz      :     1.793275  p :     4.790827
      px      :     1.406884
      py      :     1.590667
      dz2     :     0.003931  d :     0.028290
      dxz     :     0.003574
      dyz     :     0.003602
      dx2y2   :     0.005955
      dxy     :     0.011228
      f0      :     0.000212  f :     0.002073
      f+1     :     0.000306
      f-1     :     0.000226
      f+2     :     0.000176
      f-2     :     0.000226
      f+3     :     0.000551
      f-3     :     0.000376
 46 H s       :     0.654869  s :     0.654869
      pz      :     0.043872  p :     0.157820
      px      :     0.075427
      py      :     0.038521
 47 H s       :     0.639079  s :     0.639079
      pz      :     0.036964  p :     0.213731
      px      :     0.067685
      py      :     0.109081
 48 O s       :     3.477397  s :     3.477397
      pz      :     1.666870  p :     4.839802
      px      :     1.629922
      py      :     1.543010
      dz2     :     0.005235  d :     0.027758
      dxz     :     0.003030
      dyz     :     0.010028
      dx2y2   :     0.001356
      dxy     :     0.008108
      f0      :     0.000149  f :     0.001888
      f+1     :     0.000063
      f-1     :     0.000595
      f+2     :     0.000327
      f-2     :     0.000265
      f+3     :     0.000140
      f-3     :     0.000350
 49 H s       :     0.665346  s :     0.665346
      pz      :     0.043492  p :     0.193940
      px      :     0.082197
      py      :     0.068252
 50 H s       :     0.672644  s :     0.672644
      pz      :     0.085622  p :     0.180240
      px      :     0.033083
      py      :     0.061536
 51 O s       :     3.463874  s :     3.463874
      pz      :     1.423489  p :     4.788286
      px      :     1.583416
      py      :     1.781381
      dz2     :     0.007437  d :     0.027682
      dxz     :     0.008723
      dyz     :     0.003103
      dx2y2   :     0.004795
      dxy     :     0.003624
      f0      :     0.000516  f :     0.002042
      f+1     :     0.000314
      f-1     :     0.000367
      f+2     :     0.000340
      f-2     :     0.000172
      f+3     :     0.000225
      f-3     :     0.000108
 52 H s       :     0.654239  s :     0.654239
      pz      :     0.076341  p :     0.157424
      px      :     0.036763
      py      :     0.044319
 53 H s       :     0.646405  s :     0.646405
      pz      :     0.055423  p :     0.208060
      px      :     0.112949
      py      :     0.039688
 54 O s       :     3.467097  s :     3.467097
      pz      :     1.676552  p :     4.815540
      px      :     1.497690
      py      :     1.641298
      dz2     :     0.004102  d :     0.028692
      dxz     :     0.008317
      dyz     :     0.003462
      dx2y2   :     0.008954
      dxy     :     0.003856
      f0      :     0.000322  f :     0.001931
      f+1     :     0.000117
      f-1     :     0.000099
      f+2     :     0.000609
      f-2     :     0.000198
      f+3     :     0.000578
      f-3     :     0.000008
 55 H s       :     0.668172  s :     0.668172
      pz      :     0.051642  p :     0.183961
      px      :     0.101005
      py      :     0.031314
 56 H s       :     0.662944  s :     0.662944
      pz      :     0.042371  p :     0.190880
      px      :     0.046769
      py      :     0.101740
 57 O s       :     3.465320  s :     3.465320
      pz      :     1.751018  p :     4.792201
      px      :     1.653100
      py      :     1.388083
      dz2     :     0.004756  d :     0.027642
      dxz     :     0.003045
      dyz     :     0.004957
      dx2y2   :     0.003105
      dxy     :     0.011780
      f0      :     0.000267  f :     0.002047
      f+1     :     0.000130
      f-1     :     0.000261
      f+2     :     0.000053
      f-2     :     0.000491
      f+3     :     0.000820
      f-3     :     0.000026
 58 H s       :     0.640406  s :     0.640406
      pz      :     0.062615  p :     0.210750
      px      :     0.060070
      py      :     0.088066
 59 H s       :     0.655038  s :     0.655038
      pz      :     0.040161  p :     0.157827
      px      :     0.051147
      py      :     0.066519


                      *****************************
                      * MAYER POPULATION ANALYSIS *
                      *****************************

  NA   - Mulliken gross atomic population
  ZA   - Total nuclear charge
  QA   - Mulliken gross atomic charge
  VA   - Mayer's total valence
  BVA  - Mayer's bonded valence
  FA   - Mayer's free valence

  ATOM       NA         ZA         QA         VA         BVA        FA
  0 O      8.7500     8.0000    -0.7500     1.7623     1.7623    -0.0000
  1 H      0.6048     1.0000     0.3952     0.8870     0.8870     0.0000
  2 H      0.6315     1.0000     0.3685     0.9265     0.9265     0.0000
  3 O      8.7710     8.0000    -0.7710     1.7485     1.7485    -0.0000
  4 H      0.6264     1.0000     0.3736     0.9181     0.9181    -0.0000
  5 H      0.6129     1.0000     0.3871     0.9222     0.9222    -0.0000
  6 O      8.7594     8.0000    -0.7594     1.7749     1.7749    -0.0000
  7 H      0.6161     1.0000     0.3839     0.9169     0.9169     0.0000
  8 H      0.6125     1.0000     0.3875     0.8669     0.8669     0.0000
  9 O      8.7974     8.0000    -0.7974     1.6995     1.6995     0.0000
 10 H      0.6145     1.0000     0.3855     0.9244     0.9244    -0.0000
 11 H      0.6308     1.0000     0.3692     0.9211     0.9211    -0.0000
 12 O      8.7610     8.0000    -0.7610     1.7590     1.7590     0.0000
 13 H      0.6218     1.0000     0.3782     0.9095     0.9095     0.0000
 14 H      0.6314     1.0000     0.3686     0.9278     0.9278     0.0000
 15 O      8.7516     8.0000    -0.7516     1.7972     1.7972     0.0000
 16 H      0.6130     1.0000     0.3870     0.8677     0.8677    -0.0000
 17 H      0.6089     1.0000     0.3911     0.8934     0.8934     0.0000
 18 O      8.7665     8.0000    -0.7665     1.7509     1.7509     0.0000
 19 H      0.6164     1.0000     0.3836     0.8984     0.8984    -0.0000
 20 H      0.6200     1.0000     0.3800     0.9220     0.9220    -0.0000
 21 O      8.7870     8.0000    -0.7870     1.7336     1.7336     0.0000
 22 H      0.6092     1.0000     0.3908     0.9097     0.9097     0.0000
 23 H      0.6100     1.0000     0.3900     0.8793     0.8793     0.0000
 24 O      8.7584     8.0000    -0.7584     1.7633     1.7633     0.0000
 25 H      0.6097     1.0000     0.3903     0.8949     0.8949     0.0000
 26 H      0.6267     1.0000     0.3733     0.9222     0.9222     0.0000
 27 O      8.7515     8.0000    -0.7515     1.7799     1.7799     0.0000
 28 H      0.6089     1.0000     0.3911     0.8649     0.8649     0.0000
 29 H      0.6176     1.0000     0.3824     0.9144     0.9144     0.0000
 30 O      8.7232     8.0000    -0.7232     1.8301     1.8301    -0.0000
 31 H      0.6203     1.0000     0.3797     0.8899     0.8899     0.0000
 32 H      0.6027     1.0000     0.3973     0.8572     0.8572    -0.0000
 33 O      8.7917     8.0000    -0.7917     1.6419     1.6419    -0.0000
 34 H      0.6415     1.0000     0.3585     0.9347     0.9347     0.0000
 35 H      0.6378     1.0000     0.3622     0.9459     0.9459     0.0000
 36 O      8.7668     8.0000    -0.7668     1.7545     1.7545    -0.0000
 37 H      0.6133     1.0000     0.3867     0.9145     0.9145     0.0000
 38 H      0.6161     1.0000     0.3839     0.9164     0.9164    -0.0000
 39 O      8.7611     8.0000    -0.7611     1.7633     1.7633    -0.0000
 40 H      0.6297     1.0000     0.3703     0.9261     0.9261    -0.0000
 41 H      0.6278     1.0000     0.3722     0.9240     0.9240    -0.0000
 42 O      8.7961     8.0000    -0.7961     1.7216     1.7216     0.0000
 43 H      0.6059     1.0000     0.3941     0.9145     0.9145    -0.0000
 44 H      0.6125     1.0000     0.3875     0.8883     0.8883    -0.0000
 45 O      8.7545     8.0000    -0.7545     1.7883     1.7883    -0.0000
 46 H      0.6104     1.0000     0.3896     0.8667     0.8667    -0.0000
 47 H      0.6184     1.0000     0.3816     0.9144     0.9144     0.0000
 48 O      8.7738     8.0000    -0.7738     1.7591     1.7591    -0.0000
 49 H      0.6156     1.0000     0.3844     0.9060     0.9060    -0.0000
 50 H      0.6263     1.0000     0.3737     0.9121     0.9121    -0.0000
 51 O      8.7461     8.0000    -0.7461     1.7995     1.7995    -0.0000
 52 H      0.6120     1.0000     0.3880     0.8667     0.8667    -0.0000
 53 H      0.6141     1.0000     0.3859     0.9044     0.9044    -0.0000
 54 O      8.7460     8.0000    -0.7460     1.7565     1.7565    -0.0000
 55 H      0.6319     1.0000     0.3681     0.9201     0.9201    -0.0000
 56 H      0.6209     1.0000     0.3791     0.9170     0.9170     0.0000
 57 O      8.7567     8.0000    -0.7567     1.7762     1.7762    -0.0000
 58 H      0.6181     1.0000     0.3819     0.9189     0.9189     0.0000
 59 H      0.6114     1.0000     0.3886     0.8659     0.8659     0.0000

  Mayer bond orders larger than 0.1
B(  0-O ,  1-H ) :   0.8006 B(  0-O ,  2-H ) :   0.7848 B(  0-O , 47-H ) :   0.1912 
B(  2-H , 51-O ) :   0.1302 B(  3-O ,  4-H ) :   0.7741 B(  3-O ,  5-H ) :   0.7289 
B(  3-O , 35-H ) :   0.2143 B(  4-H ,  9-O ) :   0.1333 B(  5-H , 45-O ) :   0.1719 
B(  6-O ,  7-H ) :   0.7019 B(  6-O ,  8-H ) :   0.8511 B(  6-O , 38-H ) :   0.1440 
B(  6-O , 41-H ) :   0.1218 B(  7-H , 18-O ) :   0.1974 B(  9-O , 10-H ) :   0.7417 
B(  9-O , 11-H ) :   0.7648 B( 10-H , 12-O ) :   0.1647 B( 11-H , 27-O ) :   0.1374 
B( 12-O , 13-H ) :   0.8046 B( 12-O , 14-H ) :   0.7914 B( 14-H , 51-O ) :   0.1215 
B( 15-O , 16-H ) :   0.8497 B( 15-O , 17-H ) :   0.7280 B( 15-O , 26-H ) :   0.1210 
B( 15-O , 56-H ) :   0.1321 B( 17-H , 42-O ) :   0.1529 B( 18-O , 19-H ) :   0.8091 
B( 18-O , 20-H ) :   0.7551 B( 20-H , 48-O ) :   0.1563 B( 21-O , 22-H ) :   0.7516 
B( 21-O , 23-H ) :   0.7527 B( 21-O , 53-H ) :   0.1494 B( 22-H , 27-O ) :   0.1418 
B( 23-H , 33-O ) :   0.1282 B( 24-O , 25-H ) :   0.7934 B( 24-O , 26-H ) :   0.7867 
B( 24-O , 58-H ) :   0.1944 B( 27-O , 28-H ) :   0.8463 B( 27-O , 29-H ) :   0.7025 
B( 29-H , 54-O ) :   0.2033 B( 30-O , 31-H ) :   0.8028 B( 30-O , 32-H ) :   0.8446 
B( 30-O , 55-H ) :   0.1073 B( 33-O , 34-H ) :   0.7265 B( 33-O , 35-H ) :   0.7112 
B( 33-O , 44-H ) :   0.1144 B( 34-H , 36-O ) :   0.2082 B( 36-O , 37-H ) :   0.7612 
B( 36-O , 38-H ) :   0.7584 B( 37-H , 57-O ) :   0.1399 B( 39-O , 40-H ) :   0.7928 
B( 39-O , 41-H ) :   0.7916 B( 39-O , 43-H ) :   0.1884 B( 40-H , 57-O ) :   0.1219 
B( 42-O , 43-H ) :   0.7143 B( 42-O , 44-H ) :   0.7587 B( 42-O , 49-H ) :   0.1089 
B( 45-O , 46-H ) :   0.8472 B( 45-O , 47-H ) :   0.7122 B( 48-O , 49-H ) :   0.7882 
B( 48-O , 50-H ) :   0.8122 B( 51-O , 52-H ) :   0.8496 B( 51-O , 53-H ) :   0.7366 
B( 54-O , 55-H ) :   0.8008 B( 54-O , 56-H ) :   0.7755 B( 57-O , 58-H ) :   0.7077 
B( 57-O , 59-H ) :   0.8505 

-------
TIMINGS
-------

Total SCF time: 0 days 0 hours 1 min 57 sec 

Total time                  ....     117.137 sec
Sum of individual times     ....     117.744 sec  (100.5%)

Fock matrix formation       ....      86.974 sec  ( 74.2%)
  Coulomb formation         ....      78.659 sec  ( 90.4% of F)
  Split-RI-J                ....       8.510 sec  (  9.8% of F)
  Chain of spheres X        ....      72.891 sec  ( 83.8% of F)
  COS-X 1 center corr.      ....       0.000 sec  (  0.0% of F)
  XC integration            ....       8.077 sec  (  9.3% of F)
    Basis function eval.    ....       2.115 sec  ( 26.2% of XC)
    Density eval.           ....       2.167 sec  ( 26.8% of XC)
    XC-Functional eval.     ....       0.196 sec  (  2.4% of XC)
    XC-Potential eval.      ....       2.836 sec  ( 35.1% of XC)
Diagonalization             ....       2.224 sec  (  1.9%)
Density matrix formation    ....       0.154 sec  (  0.1%)
Population analysis         ....       1.820 sec  (  1.6%)
Initial guess               ....       3.858 sec  (  3.3%)
Orbital Transformation      ....       0.000 sec  (  0.0%)
Orbital Orthonormalization  ....       0.000 sec  (  0.0%)
DIIS solution               ....       0.830 sec  (  0.7%)
SOSCF solution              ....       1.381 sec  (  1.2%)
Grid generation             ....       8.966 sec  (  7.7%)
COSMO(total)                ....      11.538 sec  (  9.8%)
   Initialization           ....       3.408 sec  ( 29.5% of COSMO)
   Potential evaluation     ....       4.333 sec  ( 37.6% of COSMO)
   Charge calculation       ....       0.636 sec  (  5.5% of COSMO)
   Fock-Matrix contrib.     ....       3.318 sec  ( 28.8% of COSMO)
   Outer-lying charge       ....       0.312 sec  (  2.7% of COSMO)
           ************************************************************
           *              Shut down parallel processing               *
           ************************************************************

Entering the calculation of the dispersion correction...

Checking the input atom types...

Done


-------------------------------------------------------------------------------
                          DFT DISPERSION CORRECTION                            
                                                                               
                                DFTD3 V2.1  Rev 6                               
                          USING Becke-Johnson damping                          
-------------------------------------------------------------------------------
The B3LYP functional is recognized
Active option DFTDOPT                   ...         4   

molecular C6(AA) [au] = 17789.221482 


            DFT-D V3
 parameters
 s6 scaling factor         :     1.0000 
 a1 scaling factor         :     0.3981 
 s8 scaling factor         :     1.9889 
 a2 scaling factor         :     4.4211 
 ad hoc parameters k1-k3   :    16.0000     1.3333    -4.0000 

 Edisp/kcal,au: -50.127962524589  -0.079883984624 
 E6   /kcal   : -28.127595301 
 E8   /kcal   : -22.000367224 
 % E8         :  43.888413005 

-------------------------   ----------------
Dispersion correction           -0.079883985
-------------------------   ----------------


-------------------------   --------------------
FINAL SINGLE POINT ENERGY     -1528.962277387803
-------------------------   --------------------


                            ***************************************
                            *     ORCA property calculations      *
                            ***************************************

                                    ---------------------
                                    Active property flags
                                    ---------------------
   (+) Dipole Moment


------------------------------------------------------------------------------
                       ORCA ELECTRIC PROPERTIES CALCULATION
------------------------------------------------------------------------------

Dipole Moment Calculation                       ... on
Quadrupole Moment Calculation                   ... off
Polarizability Calculation                      ... off
GBWName                                         ... 4_B3LYP_SMD_onBP86_SMD_20_waters.gbw
Electron density file                           ... 4_B3LYP_SMD_onBP86_SMD_20_waters.scfp.tmp

-------------
DIPOLE MOMENT
-------------
                                X             Y             Z
Electronic contribution:     -0.17128       0.05007       0.30298
Nuclear contribution   :     -0.37727      -0.44450       1.61463
                        -----------------------------------------
Total Dipole Moment    :     -0.54854      -0.39443       1.91760
                        -----------------------------------------
Magnitude (a.u.)       :      2.03314
Magnitude (Debye)      :      5.16784

smp-n47.crc.pitt.edu.374935hfi_wait_for_device: The /dev/hfi1_0 device failed to appear after 15.0 seconds: Connection timed out
smp-n47.crc.pitt.edu.374936hfi_wait_for_device: The /dev/hfi1_0 device failed to appear after 15.0 seconds: Connection timed out
smp-n47.crc.pitt.edu.374937hfi_wait_for_device: The /dev/hfi1_0 device failed to appear after 15.0 seconds: Connection timed out
smp-n47.crc.pitt.edu.374939hfi_wait_for_device: The /dev/hfi1_0 device failed to appear after 15.0 seconds: Connection timed out
smp-n47.crc.pitt.edu.374941hfi_wait_for_device: The /dev/hfi1_0 device failed to appear after 15.0 seconds: Connection timed out
smp-n47.crc.pitt.edu.374945hfi_wait_for_device: The /dev/hfi1_0 device failed to appear after 15.0 seconds: Connection timed out
smp-n47.crc.pitt.edu.374949hfi_wait_for_device: The /dev/hfi1_0 device failed to appear after 15.0 seconds: Connection timed out
smp-n47.crc.pitt.edu.374953hfi_wait_for_device: The /dev/hfi1_0 device failed to appear after 15.0 seconds: Connection timed out
smp-n47.crc.pitt.edu.374943hfi_wait_for_device: The /dev/hfi1_0 device failed to appear after 15.0 seconds: Connection timed out
smp-n47.crc.pitt.edu.374947hfi_wait_for_device: The /dev/hfi1_0 device failed to appear after 15.0 seconds: Connection timed out
smp-n47.crc.pitt.edu.374951hfi_wait_for_device: The /dev/hfi1_0 device failed to appear after 15.0 seconds: Connection timed out
smp-n47.crc.pitt.edu.374955hfi_wait_for_device: The /dev/hfi1_0 device failed to appear after 15.0 seconds: Connection timed out

Timings for individual modules:

Sum of individual times         ...      152.357 sec (=   2.539 min)
GTO integral calculation        ...       16.364 sec (=   0.273 min)  10.7 %
SCF iterations                  ...      135.993 sec (=   2.267 min)  89.3 %
                             ****ORCA TERMINATED NORMALLY****
TOTAL RUN TIME: 0 days 0 hours 2 minutes 48 seconds 85 msec
cp: cannot stat ‘/scratch/slurm-1328823/*.{prop}’: No such file or directory
