
                                 *****************
                                 * O   R   C   A *
                                 *****************

           --- An Ab Initio, DFT and Semiempirical electronic structure package ---

                  #######################################################
                  #                        -***-                        #
                  #  Department of molecular theory and spectroscopy    #
                  #              Directorship: Frank Neese              #
                  # Max Planck Institute for Chemical Energy Conversion #
                  #                  D-45470 Muelheim/Ruhr              #
                  #                       Germany                       #
                  #                                                     #
                  #                  All rights reserved                #
                  #                        -***-                        #
                  #######################################################


                         Program Version 3.0.3 - RELEASE   -


 With contributions from (in alphabetic order):
   Ute Becker             : Parallelization
   Dmytro Bykov           : SCF Hessian
   Dmitry Ganyushin       : Spin-Orbit,Spin-Spin,Magnetic field MRCI
   Andreas Hansen         : Spin unrestricted coupled pair/coupled cluster methods
   Dimitrios Liakos       : Extrapolation schemes; parallel MDCI
   Robert Izsak           : Overlap fitted RIJCOSX, COSX-SCS-MP3
   Christian Kollmar      : KDIIS, OOCD, Brueckner-CCSD(T), CCSD density
   Simone Kossmann        : Meta GGA functionals, TD-DFT gradient, OOMP2, MP2 Hessian
   Taras Petrenko         : DFT Hessian,TD-DFT gradient, ASA and ECA modules, normal mode analysis, Resonance Raman, ABS, FL, XAS/XES, NRVS
   Christoph Reimann      : Effective Core Potentials
   Michael Roemelt        : Restricted open shell CIS
   Christoph Riplinger    : Improved optimizer, TS searches, QM/MM, DLPNO-CCSD
   Barbara Sandhoefer     : DKH picture change effects
   Igor Schapiro          : Molecular dynamics
   Kantharuban Sivalingam : CASSCF convergence, NEVPT2
   Boris Wezisla          : Elementary symmetry handling
   Frank Wennmohs         : Technical directorship


 We gratefully acknowledge several colleagues who have allowed us to
 interface, adapt or use parts of their codes:
   Stefan Grimme, W. Hujo, H. Kruse, T. Risthaus : VdW corrections, initial TS optimization,
                                                   DFT functionals, gCP
   Ed Valeev                                     : LibInt (2-el integral package), F12 methods
   Garnet Chan, S. Sharma, R. Olivares           : DMRG
   Ulf Ekstrom                                   : XCFun DFT Library
   Mihaly Kallay                                 : mrcc  (arbitrary order and MRCC methods)
   Andreas Klamt, Michael Diedenhofen            : otool_cosmo (COSMO solvation model)
   Frank Weinhold                                : gennbo (NPA and NBO analysis)
   Christopher J. Cramer and Donald G. Truhlar   : smd solvation model


 Your calculation uses the libint2 library for the computation of 2-el integrals
 For citations please refer to: http://libint.valeyev.net

 This ORCA versions uses:
   CBLAS   interface :  Fast vector & matrix operations
   LAPACKE interface :  Fast linear algebra routines
   SCALAPACK package :  Parallel linear algebra routines


Your calculation utilizes the basis: Ahlrichs-TZV
Cite in your paper:
H - Kr: A. Schaefer, H. Horn and R. Ahlrichs, J. Chem. Phys. 97, 2571 (1992).

The def2-TZV basis will be loaded
Cite in your paper:
 	F. Weigend, R. Ahlrichs, Phys. Chem. Chem. Phys. 2005, 7, 3297.

Your calculation utilizes the atom-pairwise dispersion correction
with the zero-damping scheme (D30)
Cite in your paper:
S.Grimme, J.Antony, S.Ehrlich and H.Krieg, J.Chem.Phys., 132, (2010), 154104 
   

XCFun DFT library Copyright 2009-2010 Ulf Ekstrom and contributors.
See http://admol.org/xcfun for more information. This is free soft-
ware; see the source code for copying conditions. There is ABSOLUTELY
NO WARRANTY; not even for MERCHANTABILITY or FITNESS FOR A PARTICULAR
PURPOSE. For details see the documentation. Scientific users of this 
library should cite U. Ekstrom, L. Visscher, R. Bast, A. J. Thorvald-
sen and K. Ruud; J.Chem.Theor.Comp. 2010, DOI: 10.1021/ct100117s
XCFun Version 0.99 
================================================================================
                                        WARNINGS
                       Please study these warnings very carefully!
================================================================================
Now building the actual basis set


INFO   : the flag for use of LIBINT has been found!

================================================================================
                                       INPUT FILE
================================================================================
NAME = 4_wB97X_SMD_onB3LYP_SMD_20_waters.inp
|  1> ! wB97X-D3 Def2-TZVP def2-TZVP/J RIJCOSX TightSCF Grid4 COSMO
|  2> 
|  3> %pal nprocs 12 end
|  4> 
|  5> %scf
|  6>         maxiter 400
|  7> end
|  8> 
|  9> %cosmo
| 10>         SMD true
| 11>         solvent "WATER"
| 12> end
| 13> 
| 14> * xyz  0  1
| 15> O  2.076958	-2.525753	2.073671
| 16> H  1.511416	-2.710561	1.289115
| 17> H  1.531776	-1.945038	2.656820
| 18> O  2.256998	0.761930	-0.176247
| 19> H  1.970498	1.542311	0.353776
| 20> H  2.878875	0.251768	0.414281
| 21> O  1.159940	-2.532163	-2.728499
| 22> H  1.487278	-1.582353	-2.805267
| 23> H  1.794290	-3.073376	-3.222249
| 24> O  1.334279	2.771915	1.484624
| 25> H  1.863330	2.310894	2.194515
| 26> H  0.401422	2.761784	1.808405
| 27> O  2.659678	1.282159	3.272988
| 28> H  3.246611	0.708848	2.730896
| 29> H  1.933193	0.653890	3.503849
| 30> O  -3.574824	0.688348	-0.993761
| 31> H  -4.368686	0.817664	-1.536261
| 32> H  -2.854470	0.423358	-1.638082
| 33> O  2.024850	-0.050505	-2.834066
| 34> H  2.216423	0.256178	-1.921742
| 35> H  1.407640	0.651496	-3.168460
| 36> O  -1.332702	0.014108	2.147657
| 37> H  -1.443665	0.991950	2.285028
| 38> H  -0.869514	-0.049474	1.265478
| 39> O  -3.371880	-1.260116	0.899526
| 40> H  -2.701777	-0.827417	1.481867
| 41> H  -3.549043	-0.573133	0.212240
| 42> O  -1.343188	2.666513	2.179616
| 43> H  -1.784325	3.230048	2.833308
| 44> H  -1.786920	2.853176	1.297569
| 45> O  0.444089	3.310371	-1.046311
| 46> H  0.922187	3.196500	-0.194260
| 47> H  0.475055	4.264866	-1.217899
| 48> O  -0.124132	-0.303479	-0.168530
| 49> H  0.092373	-1.277288	-0.132553
| 50> H  0.785466	0.113901	-0.181601
| 51> O  0.502843	-2.881249	-0.135399
| 52> H  -0.454559	-3.140665	-0.188493
| 53> H  0.839136	-2.895491	-1.068061
| 54> O  -1.524218	-2.440385	-3.048373
| 55> H  -1.807823	-2.746485	-2.154844
| 56> H  -0.548209	-2.584653	-3.056086
| 57> O  -1.463077	0.126098	-2.416002
| 58> H  -1.518690	-0.804593	-2.784931
| 59> H  -0.917554	0.001372	-1.590358
| 60> O  3.734819	-0.564720	1.548058
| 61> H  4.623877	-0.864821	1.305342
| 62> H  3.185839	-1.392154	1.714205
| 63> O  0.286891	1.917568	-3.444190
| 64> H  -0.455687	1.316246	-3.194908
| 65> H  0.435860	2.438647	-2.625176
| 66> O  0.783834	-0.660988	3.583124
| 67> H  0.529829	-0.942770	4.475668
| 68> H  -0.071993	-0.431025	3.119869
| 69> O  -2.233537	2.981634	-0.274002
| 70> H  -1.345590	2.967922	-0.693597
| 71> H  -2.718183	2.173416	-0.564630
| 72> O  -2.120394	-3.103350	-0.456030
| 73> H  -2.612987	-2.405402	0.084392
| 74> H  -2.574054	-3.940911	-0.273553
| 75> **                         ****END OF INPUT****
================================================================================

                       ****************************
                       * Single Point Calculation *
                       ****************************

---------------------------------
CARTESIAN COORDINATES (ANGSTROEM)
---------------------------------
  O      2.076958   -2.525753    2.073671
  H      1.511416   -2.710561    1.289115
  H      1.531776   -1.945038    2.656820
  O      2.256998    0.761930   -0.176247
  H      1.970498    1.542311    0.353776
  H      2.878875    0.251768    0.414281
  O      1.159940   -2.532163   -2.728499
  H      1.487278   -1.582353   -2.805267
  H      1.794290   -3.073376   -3.222249
  O      1.334279    2.771915    1.484624
  H      1.863330    2.310894    2.194515
  H      0.401422    2.761784    1.808405
  O      2.659678    1.282159    3.272988
  H      3.246611    0.708848    2.730896
  H      1.933193    0.653890    3.503849
  O     -3.574824    0.688348   -0.993761
  H     -4.368686    0.817664   -1.536261
  H     -2.854470    0.423358   -1.638082
  O      2.024850   -0.050505   -2.834066
  H      2.216423    0.256178   -1.921742
  H      1.407640    0.651496   -3.168460
  O     -1.332702    0.014108    2.147657
  H     -1.443665    0.991950    2.285028
  H     -0.869514   -0.049474    1.265478
  O     -3.371880   -1.260116    0.899526
  H     -2.701777   -0.827417    1.481867
  H     -3.549043   -0.573133    0.212240
  O     -1.343188    2.666513    2.179616
  H     -1.784325    3.230048    2.833308
  H     -1.786920    2.853176    1.297569
  O      0.444089    3.310371   -1.046311
  H      0.922187    3.196500   -0.194260
  H      0.475055    4.264866   -1.217899
  O     -0.124132   -0.303479   -0.168530
  H      0.092373   -1.277288   -0.132553
  H      0.785466    0.113901   -0.181601
  O      0.502843   -2.881249   -0.135399
  H     -0.454559   -3.140665   -0.188493
  H      0.839136   -2.895491   -1.068061
  O     -1.524218   -2.440385   -3.048373
  H     -1.807823   -2.746485   -2.154844
  H     -0.548209   -2.584653   -3.056086
  O     -1.463077    0.126098   -2.416002
  H     -1.518690   -0.804593   -2.784931
  H     -0.917554    0.001372   -1.590358
  O      3.734819   -0.564720    1.548058
  H      4.623877   -0.864821    1.305342
  H      3.185839   -1.392154    1.714205
  O      0.286891    1.917568   -3.444190
  H     -0.455687    1.316246   -3.194908
  H      0.435860    2.438647   -2.625176
  O      0.783834   -0.660988    3.583124
  H      0.529829   -0.942770    4.475668
  H     -0.071993   -0.431025    3.119869
  O     -2.233537    2.981634   -0.274002
  H     -1.345590    2.967922   -0.693597
  H     -2.718183    2.173416   -0.564630
  O     -2.120394   -3.103350   -0.456030
  H     -2.612987   -2.405402    0.084392
  H     -2.574054   -3.940911   -0.273553

----------------------------
CARTESIAN COORDINATES (A.U.)
----------------------------
  NO LB      ZA    FRAG    MASS        X           Y           Z
   0 O     8.0000    0    15.999          3.924881811656815         -4.772981451930003          3.918670281854616
   1 H     1.0000    0     1.008          2.856162314426723         -5.122217959287722          2.436074305129894
   2 H     1.0000    0     1.008          2.894637138513359         -3.675589140069924          5.020662187124660
   3 O     8.0000    0    15.999          4.265108104807997          1.439839033218619         -0.333058561925219
   4 H     1.0000    0     1.008          3.723701567439559          2.914545403334220          0.668539752754125
   5 H     1.0000    0     1.008          5.440285323792543          0.475772569285086          0.782877632487030
   6 O     8.0000    0    15.999          2.191968931780617         -4.785094596448439         -5.156115866678001
   7 H     1.0000    0     1.008          2.810548105006132         -2.990213817188694         -5.301186362526868
   8 H     1.0000    0     1.008          3.390716704833562         -5.807838946566361         -6.089168145301620
   9 O     8.0000    0    15.999          2.521421896242314          5.238160216508327          2.805532771846704
  10 H     1.0000    0     1.008          3.521183397119486          4.366956784521816          4.147032346782195
  11 H     1.0000    0     1.008          0.758577644130937          5.219015401045570          3.417390189213861
  12 O     8.0000    0    15.999          5.026063024415406          2.422929370142338          6.185050959610649
  13 H     1.0000    0     1.008          6.135205653376209          1.339528590577811          5.160645540221011
  14 H     1.0000    0     1.008          3.653205334013626          1.235673021709767          6.621315024613844
  15 O     8.0000    0    15.999         -6.755438336968904          1.300789204832426         -1.877936132571717
  16 H     1.0000    0     1.008         -8.255620105095899          1.545161029566586         -2.903112560223996
  17 H     1.0000    0     1.008         -5.394166557494195          0.800030676604633         -3.095526364905992
  18 O     8.0000    0    15.999          3.826411962270446         -0.095440618393693         -5.355608585457666
  19 H     1.0000    0     1.008          4.188432466924142          0.484106261535678         -3.631566080054094
  20 H     1.0000    0     1.008          2.660054095152911          1.231149017345160         -5.987521666284129
  21 O     8.0000    0    15.999         -2.518441798129120          0.026660256297361          4.058483559598914
  22 H     1.0000    0     1.008         -2.728131479127424          1.874513838543186          4.318077128341810
  23 H     1.0000    0     1.008         -1.643143329610403         -0.093492310749620          2.391406848502398
  24 O     8.0000    0    15.999         -6.371929756446390         -2.381274136972312          1.699857790341648
  25 H     1.0000    0     1.008         -5.105618604927358         -1.563591528550720          2.800322796895483
  26 H     1.0000    0     1.008         -6.706719307510281         -1.083064408312689          0.401075474663446
  27 O     8.0000    0    15.999         -2.538257466369418          5.038979302540759          4.118877317112903
  28 H     1.0000    0     1.008         -3.371885583909037          6.103906119420071          5.354176173048154
  29 H     1.0000    0     1.008         -3.376789423226563          5.391721251876901          2.452050049866064
  30 O     8.0000    0    15.999          0.839206589086955          6.255694591675027         -1.977241240909279
  31 H     1.0000    0     1.008          1.742680874262437          6.040509587079280         -0.367098198775542
  32 H     1.0000    0     1.008          0.897723848549960          8.059428737872192         -2.301495568776559
  33 O     8.0000    0    15.999         -0.234575484455913         -0.573492197396288         -0.318475545349749
  34 H     1.0000    0     1.008          0.174559672168708         -2.413724514144008         -0.250488868229664
  35 H     1.0000    0     1.008          1.484315627506590          0.215241696379764         -0.343176155646233
  36 O     8.0000    0    15.999          0.950235558359364         -5.444771533634472         -0.255867028806804
  37 H     1.0000    0     1.008         -0.858992021709110         -5.934996728391788         -0.356200148161218
  38 H     1.0000    0     1.008          1.585737229114143         -5.471685013233778         -2.018342784322066
  39 O     8.0000    0    15.999         -2.880354588393183         -4.611659311329414         -5.760590124039928
  40 H     1.0000    0     1.008         -3.416290368603919         -5.190104480922709         -4.072065021323406
  41 H     1.0000    0     1.008         -1.035964874150835         -4.884286321217965         -5.775165581710862
  42 O     8.0000    0    15.999         -2.764814842839103          0.238290686035202         -4.565582119006012
  43 H     1.0000    0     1.008         -2.869908182324866         -1.520460419270102         -5.262756891867445
  44 H     1.0000    0     1.008         -1.733925773083980          0.002592704255740         -3.005341074890734
  45 O     8.0000    0    15.999          7.057785069765635         -1.067166142348009          2.925405659425865
  46 H     1.0000    0     1.008          8.737861206937396         -1.634274844863911          2.466738891105035
  47 H     1.0000    0     1.008          6.020363216765547         -2.630789796243006          3.239377987398479
  48 O     8.0000    0    15.999          0.542145420286802          3.623678363171106         -6.508575853190235
  49 H     1.0000    0     1.008         -0.861123632788173          2.487344464869312         -6.037501143074078
  50 H     1.0000    0     1.008          0.823656032730917          4.608374967308658         -4.960863693342856
  51 O     8.0000    0    15.999          1.481231594456030         -1.249086297808340          6.771123063880451
  52 H     1.0000    0     1.008          1.001231707809363         -1.781577107276938          8.457786786355060
  53 H     1.0000    0     1.008         -0.136047053559393         -0.814519206873408          5.895697983710762
  54 O     8.0000    0    15.999         -4.220773239980071          5.634471691588158         -0.517788740146691
  55 H     1.0000    0     1.008         -2.542796588543097          5.608559766839829         -1.310708377309378
  56 H     1.0000    0     1.008         -5.136621451880469          4.107161015082591         -1.066996066995956
  57 O     8.0000    0    15.999         -4.006963956009819         -5.864481597704516         -0.861771808852108
  58 H     1.0000    0     1.008         -4.937829821496489         -4.545551021986447          0.159477767893882
  59 H     1.0000    0     1.008         -4.864257113924533         -7.447242508157734         -0.516940253112560

--------------------------------
INTERNAL COORDINATES (ANGSTROEM)
--------------------------------
 O      0   0   0   0.000000     0.000     0.000
 H      1   0   0   0.984642     0.000     0.000
 H      1   2   0   0.987176   105.301     0.000
 O      2   1   3   3.842053    91.307    77.713
 H      4   2   1   0.985901   116.999   298.158
 H      4   2   1   0.997857    55.469    28.962
 O      2   1   3   4.036903   146.585   123.548
 H      7   2   1   1.007563    95.118   313.458
 H      7   2   1   0.969072   115.176    63.772
 O      5   4   2   1.787601   171.107   354.760
 H     10   5   4   0.998189    86.765    58.119
 H     10   5   4   0.987501   122.451   312.100
 O     11  10   5   1.689843   170.004   317.202
 H     13  11  10   0.983382   106.521    58.686
 H     13  11  10   0.987825   100.939   313.224
 O     12  10   5   5.287892   122.726   332.101
 H     16  12  10   0.970178   149.244   253.290
 H     16  12  10   1.002137    84.484     4.156
 O      8   7   2   1.623691   176.631   359.911
 H     19   8   7   0.981371   110.058   359.461
 H     19   8   7   0.992760   117.857   242.714
 O     12  10   5   3.266803   122.966    29.551
 H     22  12  10   0.993659    41.056   179.618
 H     22  12  10   0.998412    73.473   315.381
 O     22  12  10   2.709193   138.357   253.518
 H     25  22  12   0.987617     8.729   225.083
 H     25  22  12   0.987772    97.380   356.874
 O     23  22  12   1.680883   164.804    30.412
 H     28  23  22   0.969271   120.645   185.905
 H     28  23  22   1.004862   102.340    68.107
 O      5   4   2   2.723271   113.603   232.915
 H     31   5   4   0.983634    37.539   189.732
 H     31   5   4   0.970290   135.374   232.782
 O     24  22  12   1.635999   174.714   156.443
 H     34  24  22   0.998235   102.632   345.062
 H     34  24  22   1.000872   111.147   236.543
 O     35  34  24   1.655652   177.173   195.167
 H     37  35  34   0.993345    90.810   233.014
 H     37  35  34   0.991541    95.717   339.016
 O      7   2   1   2.704708   101.865   205.548
 H     40   7   2   0.986166    99.655   343.469
 H     40   7   2   0.986644     9.687   224.294
 O     18  16  12   1.621573   166.830     6.059
 H     43  18  16   1.002690   107.402   133.963
 H     43  18  16   0.997417    95.458    28.873
 O      6   4   2   1.638519   171.817   296.234
 H     46   6   4   0.969224   117.399   182.409
 H     46   6   4   1.006792   103.820    64.992
 O     21  19   8   1.713197   169.576    98.603
 H     49  21  19   0.987498    90.074   285.838
 H     49  21  19   0.982089    99.129    29.121
 O     15  13  11   1.748203   166.526    88.109
 H     52  15  13   0.969822   115.624   144.929
 H     52  15  13   0.999964   111.636   265.674
 O     30  28  23   1.638842   167.594   294.425
 H     55  30  28   0.982190    99.335   330.898
 H     55  30  28   0.986186   110.627    84.117
 O     38  37  35   1.687594   162.571    21.127
 H     58  38  37   1.010859   114.301   298.883
 H     58  38  37   0.969852   114.381   177.067

---------------------------
INTERNAL COORDINATES (A.U.)
---------------------------
 O      0   0   0   0.000000     0.000     0.000
 H      1   0   0   1.860704     0.000     0.000
 H      1   2   0   1.865492   105.301     0.000
 O      2   1   3   7.260428    91.307    77.713
 H      4   2   1   1.863083   116.999   298.158
 H      4   2   1   1.885677    55.469    28.962
 O      2   1   3   7.628641   146.585   123.548
 H      7   2   1   1.904018    95.118   313.458
 H      7   2   1   1.831281   115.176    63.772
 O      5   4   2   3.378077   171.107   354.760
 H     10   5   4   1.886303    86.765    58.119
 H     10   5   4   1.866107   122.451   312.100
 O     11  10   5   3.193341   170.004   317.202
 H     13  11  10   1.858322   106.521    58.686
 H     13  11  10   1.866720   100.939   313.224
 O     12  10   5   9.992668   122.726   332.101
 H     16  12  10   1.833371   149.244   253.290
 H     16  12  10   1.893765    84.484     4.156
 O      8   7   2   3.068331   176.631   359.911
 H     19   8   7   1.854523   110.058   359.461
 H     19   8   7   1.876045   117.857   242.714
 O     12  10   5   6.173363   122.966    29.551
 H     22  12  10   1.877744    41.056   179.618
 H     22  12  10   1.886724    73.473   315.381
 O     22  12  10   5.119632   138.357   253.518
 H     25  22  12   1.866326     8.729   225.083
 H     25  22  12   1.866619    97.380   356.874
 O     23  22  12   3.176409   164.804    30.412
 H     28  23  22   1.831657   120.645   185.905
 H     28  23  22   1.898914   102.340    68.107
 O      5   4   2   5.146236   113.603   232.915
 H     31   5   4   1.858798    37.539   189.732
 H     31   5   4   1.833582   135.374   232.782
 O     24  22  12   3.091590   174.714   156.443
 H     34  24  22   1.886390   102.632   345.062
 H     34  24  22   1.891375   111.147   236.543
 O     35  34  24   3.128729   177.173   195.167
 H     37  35  34   1.877150    90.810   233.014
 H     37  35  34   1.873742    95.717   339.016
 O      7   2   1   5.111158   101.865   205.548
 H     40   7   2   1.863583    99.655   343.469
 H     40   7   2   1.864487     9.687   224.294
 O     18  16  12   3.064328   166.830     6.059
 H     43  18  16   1.894809   107.402   133.963
 H     43  18  16   1.884844    95.458    28.873
 O      6   4   2   3.096351   171.817   296.234
 H     46   6   4   1.831569   117.399   182.409
 H     46   6   4   1.902562   103.820    64.992
 O     21  19   8   3.237473   169.576    98.603
 H     49  21  19   1.866100    90.074   285.838
 H     49  21  19   1.855879    99.129    29.121
 O     15  13  11   3.303625   166.526    88.109
 H     52  15  13   1.832698   115.624   144.929
 H     52  15  13   1.889658   111.636   265.674
 O     30  28  23   3.096963   167.594   294.425
 H     55  30  28   1.856071    99.335   330.898
 H     55  30  28   1.863621   110.627    84.117
 O     38  37  35   3.189091   162.571    21.127
 H     58  38  37   1.910246   114.301   298.883
 H     58  38  37   1.832755   114.381   177.067

---------------------
BASIS SET INFORMATION
---------------------
There are 2 groups of distinct atoms

 Group   1 Type O   : 11s6p2d1f contracted to 5s3p2d1f pattern {62111/411/11/1}
 Group   2 Type H   : 5s1p contracted to 3s1p pattern {311/1}

Atom   0O    basis set group =>   1
Atom   1H    basis set group =>   2
Atom   2H    basis set group =>   2
Atom   3O    basis set group =>   1
Atom   4H    basis set group =>   2
Atom   5H    basis set group =>   2
Atom   6O    basis set group =>   1
Atom   7H    basis set group =>   2
Atom   8H    basis set group =>   2
Atom   9O    basis set group =>   1
Atom  10H    basis set group =>   2
Atom  11H    basis set group =>   2
Atom  12O    basis set group =>   1
Atom  13H    basis set group =>   2
Atom  14H    basis set group =>   2
Atom  15O    basis set group =>   1
Atom  16H    basis set group =>   2
Atom  17H    basis set group =>   2
Atom  18O    basis set group =>   1
Atom  19H    basis set group =>   2
Atom  20H    basis set group =>   2
Atom  21O    basis set group =>   1
Atom  22H    basis set group =>   2
Atom  23H    basis set group =>   2
Atom  24O    basis set group =>   1
Atom  25H    basis set group =>   2
Atom  26H    basis set group =>   2
Atom  27O    basis set group =>   1
Atom  28H    basis set group =>   2
Atom  29H    basis set group =>   2
Atom  30O    basis set group =>   1
Atom  31H    basis set group =>   2
Atom  32H    basis set group =>   2
Atom  33O    basis set group =>   1
Atom  34H    basis set group =>   2
Atom  35H    basis set group =>   2
Atom  36O    basis set group =>   1
Atom  37H    basis set group =>   2
Atom  38H    basis set group =>   2
Atom  39O    basis set group =>   1
Atom  40H    basis set group =>   2
Atom  41H    basis set group =>   2
Atom  42O    basis set group =>   1
Atom  43H    basis set group =>   2
Atom  44H    basis set group =>   2
Atom  45O    basis set group =>   1
Atom  46H    basis set group =>   2
Atom  47H    basis set group =>   2
Atom  48O    basis set group =>   1
Atom  49H    basis set group =>   2
Atom  50H    basis set group =>   2
Atom  51O    basis set group =>   1
Atom  52H    basis set group =>   2
Atom  53H    basis set group =>   2
Atom  54O    basis set group =>   1
Atom  55H    basis set group =>   2
Atom  56H    basis set group =>   2
Atom  57O    basis set group =>   1
Atom  58H    basis set group =>   2
Atom  59H    basis set group =>   2
-------------------------------
AUXILIARY BASIS SET INFORMATION
-------------------------------
There are 2 groups of distinct atoms

 Group   1 Type O   : 12s5p4d2f1g contracted to 6s4p3d1f1g pattern {711111/2111/211/2/1}
 Group   2 Type H   : 5s2p1d contracted to 3s1p1d pattern {311/2/1}

Atom   0O    basis set group =>   1
Atom   1H    basis set group =>   2
Atom   2H    basis set group =>   2
Atom   3O    basis set group =>   1
Atom   4H    basis set group =>   2
Atom   5H    basis set group =>   2
Atom   6O    basis set group =>   1
Atom   7H    basis set group =>   2
Atom   8H    basis set group =>   2
Atom   9O    basis set group =>   1
Atom  10H    basis set group =>   2
Atom  11H    basis set group =>   2
Atom  12O    basis set group =>   1
Atom  13H    basis set group =>   2
Atom  14H    basis set group =>   2
Atom  15O    basis set group =>   1
Atom  16H    basis set group =>   2
Atom  17H    basis set group =>   2
Atom  18O    basis set group =>   1
Atom  19H    basis set group =>   2
Atom  20H    basis set group =>   2
Atom  21O    basis set group =>   1
Atom  22H    basis set group =>   2
Atom  23H    basis set group =>   2
Atom  24O    basis set group =>   1
Atom  25H    basis set group =>   2
Atom  26H    basis set group =>   2
Atom  27O    basis set group =>   1
Atom  28H    basis set group =>   2
Atom  29H    basis set group =>   2
Atom  30O    basis set group =>   1
Atom  31H    basis set group =>   2
Atom  32H    basis set group =>   2
Atom  33O    basis set group =>   1
Atom  34H    basis set group =>   2
Atom  35H    basis set group =>   2
Atom  36O    basis set group =>   1
Atom  37H    basis set group =>   2
Atom  38H    basis set group =>   2
Atom  39O    basis set group =>   1
Atom  40H    basis set group =>   2
Atom  41H    basis set group =>   2
Atom  42O    basis set group =>   1
Atom  43H    basis set group =>   2
Atom  44H    basis set group =>   2
Atom  45O    basis set group =>   1
Atom  46H    basis set group =>   2
Atom  47H    basis set group =>   2
Atom  48O    basis set group =>   1
Atom  49H    basis set group =>   2
Atom  50H    basis set group =>   2
Atom  51O    basis set group =>   1
Atom  52H    basis set group =>   2
Atom  53H    basis set group =>   2
Atom  54O    basis set group =>   1
Atom  55H    basis set group =>   2
Atom  56H    basis set group =>   2
Atom  57O    basis set group =>   1
Atom  58H    basis set group =>   2
Atom  59H    basis set group =>   2
smp-n71.crc.pitt.edu.219596hfi_wait_for_device: The /dev/hfi1_0 device failed to appear after 15.0 seconds: Connection timed out
smp-n71.crc.pitt.edu.219597hfi_wait_for_device: The /dev/hfi1_0 device failed to appear after 15.0 seconds: Connection timed out
smp-n71.crc.pitt.edu.219598hfi_wait_for_device: The /dev/hfi1_0 device failed to appear after 15.0 seconds: Connection timed out
smp-n71.crc.pitt.edu.219600hfi_wait_for_device: The /dev/hfi1_0 device failed to appear after 15.0 seconds: Connection timed out
smp-n71.crc.pitt.edu.219604hfi_wait_for_device: The /dev/hfi1_0 device failed to appear after 15.0 seconds: Connection timed out
smp-n71.crc.pitt.edu.219605hfi_wait_for_device: The /dev/hfi1_0 device failed to appear after 15.0 seconds: Connection timed out
smp-n71.crc.pitt.edu.219607hfi_wait_for_device: The /dev/hfi1_0 device failed to appear after 15.0 seconds: Connection timed out
smp-n71.crc.pitt.edu.219599hfi_wait_for_device: The /dev/hfi1_0 device failed to appear after 15.0 seconds: Connection timed out
smp-n71.crc.pitt.edu.219602hfi_wait_for_device: The /dev/hfi1_0 device failed to appear after 15.0 seconds: Connection timed out
smp-n71.crc.pitt.edu.219603hfi_wait_for_device: The /dev/hfi1_0 device failed to appear after 15.0 seconds: Connection timed out
smp-n71.crc.pitt.edu.219606hfi_wait_for_device: The /dev/hfi1_0 device failed to appear after 15.0 seconds: Connection timed out
smp-n71.crc.pitt.edu.219601hfi_wait_for_device: The /dev/hfi1_0 device failed to appear after 15.0 seconds: Connection timed out


           ************************************************************
           *        Program running with 12 parallel MPI-processes    *
           *              working on a common directory               *
           ************************************************************
------------------------------------------------------------------------------
                           ORCA GTO INTEGRAL CALCULATION
                           -- RI-GTO INTEGRALS CHOSEN --
------------------------------------------------------------------------------

                         BASIS SET STATISTICS AND STARTUP INFO

Gaussian basis set:
 # of primitive gaussian shells          ...  640
 # of primitive gaussian functions       ... 1240
 # of contracted shells                  ...  380
 # of contracted basis functions         ...  860
 Highest angular momentum                ...    3
 Maximum contraction depth               ...    6
Auxiliary gaussian basis set:
 # of primitive gaussian shells          ...  800
 # of primitive gaussian functions       ... 2040
 # of contracted shells                  ...  500
 # of contracted aux-basis functions     ... 1420
 Highest angular momentum                ...    4
 Maximum contraction depth               ...    7
Ratio of auxiliary to basis functions    ...  1.65
Integral package used                  ... LIBINT
 One Electron integrals                  ... done
 Ordering auxiliary basis shells         ... done
 Integral threshhold             Thresh  ...  2.500e-11
 Primitive cut-off               TCut    ...  2.500e-12
 Pre-screening matrix                    ... done
 Shell pair data                         ... 
 Ordering of the shell pairs             ... done (   0.007 sec) 46428 of 72390 pairs
 Determination of significant pairs      ... done (   0.000 sec)
 Creation of shell pair data             ... done (   0.005 sec)
 Storage of shell pair data              ... done (   0.007 sec)
 Shell pair data done in (   0.019 sec)
 Computing two index integrals           ... done
 Cholesky decomposition of the V-matrix  ... done


Timings:
 Total evaluation time                   ...   0.962 sec (  0.016 min)
 One electron matrix time                ...   0.356 sec (  0.006 min) = 37.0%
 Schwartz matrix evaluation time         ...   0.440 sec (  0.007 min) = 45.8%
 Two index repulsion integral time       ...   0.060 sec (  0.001 min) =  6.2%
 Cholesky decomposition of V             ...   0.073 sec (  0.001 min) =  7.6%
 Three index repulsion integral time     ...   0.000 sec (  0.000 min) =  0.0%

           ************************************************************
           *              Shut down parallel processing               *
           ************************************************************
smp-n71.crc.pitt.edu.219678hfi_wait_for_device: The /dev/hfi1_0 device failed to appear after 15.0 seconds: Connection timed out
smp-n71.crc.pitt.edu.219680hfi_wait_for_device: The /dev/hfi1_0 device failed to appear after 15.0 seconds: Connection timed out
smp-n71.crc.pitt.edu.219681hfi_wait_for_device: The /dev/hfi1_0 device failed to appear after 15.0 seconds: Connection timed out
smp-n71.crc.pitt.edu.219682hfi_wait_for_device: The /dev/hfi1_0 device failed to appear after 15.0 seconds: Connection timed out
smp-n71.crc.pitt.edu.219683hfi_wait_for_device: The /dev/hfi1_0 device failed to appear after 15.0 seconds: Connection timed out
smp-n71.crc.pitt.edu.219685hfi_wait_for_device: The /dev/hfi1_0 device failed to appear after 15.0 seconds: Connection timed out
smp-n71.crc.pitt.edu.219679hfi_wait_for_device: The /dev/hfi1_0 device failed to appear after 15.0 seconds: Connection timed out
smp-n71.crc.pitt.edu.219684hfi_wait_for_device: The /dev/hfi1_0 device failed to appear after 15.0 seconds: Connection timed out
smp-n71.crc.pitt.edu.219686hfi_wait_for_device: The /dev/hfi1_0 device failed to appear after 15.0 seconds: Connection timed out
smp-n71.crc.pitt.edu.219687hfi_wait_for_device: The /dev/hfi1_0 device failed to appear after 15.0 seconds: Connection timed out
smp-n71.crc.pitt.edu.219688hfi_wait_for_device: The /dev/hfi1_0 device failed to appear after 15.0 seconds: Connection timed out
smp-n71.crc.pitt.edu.219689hfi_wait_for_device: The /dev/hfi1_0 device failed to appear after 15.0 seconds: Connection timed out


           ************************************************************
           *        Program running with 12 parallel MPI-processes    *
           *              working on a common directory               *
           ************************************************************
-------------------------------------------------------------------------------
                                 ORCA SCF
-------------------------------------------------------------------------------

------------
SCF SETTINGS
------------
Hamiltonian:
 Density Functional     Method          .... DFT(GTOs)
 Exchange Functional    Exchange        .... WB97X-D3
 Correlation Functional Correlation     .... WB97X-D3
 Gradients option       PostSCFGGA      .... off
 Hybrid DFT is turned on
   Fraction HF Exchange ScalHFX         ....  0.195728
   Scaling of DF-GGA-X  ScalDFX         ....  0.000000
   Scaling of DF-GGA-C  ScalDFC         ....  1.000000
   Scaling of DF-LDA-C  ScalLDAC        ....  1.000000
   Perturbative correction              ....  0.000000
 Long-range corrected/Screened/Range-Separated Hybrid DFT is turned on
   Amount of maximum screened exact exchange              ....  0.804272
   Range separation parameter mu (erf(mu*r12)/r12)        ....  0.250000
 RI-approximation to the Coulomb term is turned on
   Number of auxiliary basis functions  .... 1420
   RIJ-COSX (HFX calculated with COS-X)).... on


General Settings:
 Integral files         IntName         .... 4_wB97X_SMD_onB3LYP_SMD_20_waters
 Hartree-Fock type      HFTyp           .... RHF
 Total Charge           Charge          ....    0
 Multiplicity           Mult            ....    1
 Number of Electrons    NEL             ....  200
 Basis Dimension        Dim             ....  860
 Nuclear Repulsion      ENuc            ....   2488.6144627289 Eh

Convergence Acceleration:
 DIIS                   CNVDIIS         .... on
   Start iteration      DIISMaxIt       ....    12
   Startup error        DIISStart       ....  0.200000
   # of expansion vecs  DIISMaxEq       ....     5
   Bias factor          DIISBfac        ....   1.050
   Max. coefficient     DIISMaxC        ....  10.000
 Newton-Raphson         CNVNR           .... off
 SOSCF                  CNVSOSCF        .... on
   Start iteration      SOSCFMaxIt      ....   150
   Startup grad/error   SOSCFStart      ....  0.003300
 Level Shifting         CNVShift        .... on
   Level shift para.    LevelShift      ....    0.2500
   Turn off err/grad.   ShiftErr        ....    0.0010
 Zerner damping         CNVZerner       .... off
 Static damping         CNVDamp         .... on
   Fraction old density DampFac         ....    0.7000
   Max. Damping (<1)    DampMax         ....    0.9800
   Min. Damping (>=0)   DampMin         ....    0.0000
   Turn off err/grad.   DampErr         ....    0.1000
 Fernandez-Rico         CNVRico         .... off

SCF Procedure:
 Maximum # iterations   MaxIter         ....   400
 SCF integral mode      SCFMode         .... Direct
   Integral package                     .... LIBINT
 Reset frequeny         DirectResetFreq ....    20
 Integral Threshold     Thresh          ....  2.500e-11 Eh
 Primitive CutOff       TCut            ....  2.500e-12 Eh

Convergence Tolerance:
 Convergence Check Mode ConvCheckMode   .... Total+1el-Energy
 Energy Change          TolE            ....  1.000e-08 Eh
 1-El. energy change                    ....  1.000e-05 Eh
 Orbital Gradient       TolG            ....  1.000e-05
 Orbital Rotation angle TolX            ....  1.000e-05
 DIIS Error             TolErr          ....  5.000e-07


Diagonalization of the overlap matrix:
Smallest eigenvalue                        ... 1.549e-03
Time for diagonalization                   ...    0.188 sec
Threshold for overlap eigenvalues          ... 1.000e-08
Number of eigenvalues below threshold      ... 0
Time for construction of square roots      ...    0.076 sec
Total time needed                          ...    0.266 sec

-------------------
DFT GRID GENERATION
-------------------

General Integration Accuracy     IntAcc      ...  4.670
Radial Grid Type                 RadialGrid  ... Gauss-Chebyshev
Angular Grid (max. acc.)         AngularGrid ... Lebedev-302
Angular grid pruning method      GridPruning ... 3 (G Style)
Weight generation scheme         WeightScheme... Becke
Basis function cutoff            BFCut       ...    1.0000e-11
Integration weight cutoff        WCut        ...    1.0000e-14
Grids for H and He will be reduced by one unit

# of grid points (after initial pruning)     ... 260000 (   0.0 sec)
# of grid points (after weights+screening)   ... 224159 (   1.5 sec)
nearest neighbour list constructed           ...    0.0 sec
Grid point re-assignment to atoms done       ...    0.1 sec
Grid point division into batches done        ...    0.6 sec
Reduced shell lists constructed in    1.2 sec

Total number of grid points                  ...   224159
Total number of batches                      ...     3530
Average number of points per batch           ...       63
Average number of grid points per atom       ...     3736
Average number of shells per batch           ...   141.82 (37.32%)
Average number of basis functions per batch  ...   265.00 (30.81%)
Average number of large shells per batch     ...    84.48 (59.57%)
Average number of large basis fcns per batch ...   154.06 (58.13%)
Maximum spatial batch extension              ...  14.31, 14.90, 14.15 au
Average spatial batch extension              ...   0.15,  0.14,  0.14 au

Time for grid setup =    2.785 sec

------------------------------
INITIAL GUESS: MODEL POTENTIAL
------------------------------
Loading Hartree-Fock densities                     ... done
Calculating cut-offs                               ... done
Setting up the integral package                    ... done
Initializing the effective Hamiltonian             ... done
Starting the Coulomb interaction                   ... done (   0.5 sec)
Reading the grid                                   ... done
Mapping shells                                     ... done
Starting the XC term evaluation                    ... done (   1.7 sec)
  promolecular density results
     # of electrons  =    199.980068638
     EX              =   -174.962351542
     EC              =     -6.601708064
     EX+EC           =   -181.564059606
Transforming the Hamiltonian                       ... done (   0.1 sec)
Diagonalizing the Hamiltonian                      ... done (   0.2 sec)
Back transforming the eigenvectors                 ... done (   0.0 sec)
Now organizing SCF variables                       ... done
                      ------------------
                      INITIAL GUESS DONE (   5.4 sec)
                      ------------------
--------------------
COSX GRID GENERATION
--------------------

General Integration Accuracy     IntAcc      ...  3.340
Radial Grid Type                 RadialGrid  ... Gauss-Chebyshev
Angular Grid (max. acc.)         AngularGrid ... Lebedev-50
Angular grid pruning method      GridPruning ... 3 (G Style)
Weight generation scheme         WeightScheme... Becke
Basis function cutoff            BFCut       ...    1.0000e-11
Integration weight cutoff        WCut        ...    1.0000e-14
Grids for H and He will be reduced by one unit

# of grid points (after initial pruning)     ...  24400 (   0.0 sec)
# of grid points (after weights+screening)   ...  21504 (   0.1 sec)
nearest neighbour list constructed           ...    0.0 sec
Grid point re-assignment to atoms done       ...    0.0 sec
Grid point division into batches done        ...    0.0 sec
Reduced shell lists constructed in    0.1 sec

Total number of grid points                  ...    21504
Total number of batches                      ...      366
Average number of points per batch           ...       58
Average number of grid points per atom       ...      358
Average number of shells per batch           ...   164.91 (43.40%)
Average number of basis functions per batch  ...   323.53 (37.62%)
Average number of large shells per batch     ...    99.69 (60.45%)
Average number of large basis fcns per batch ...   185.19 (57.24%)
Maximum spatial batch extension              ...  12.17, 12.43, 12.30 au
Average spatial batch extension              ...   0.32,  0.30,  0.29 au

Overlap Fitting                  UseSFitting ... on
Constructing numerical overlap ... done (      0.1 sec)
Inverting numerical overlap    ... done (      0.0 sec)
Obtaining analytic overlap     ... done (      0.0 sec)
Final contraction and storage  ... done (      0.1 sec)


General Integration Accuracy     IntAcc      ...  3.670
Radial Grid Type                 RadialGrid  ... Gauss-Chebyshev
Angular Grid (max. acc.)         AngularGrid ... Lebedev-50
Angular grid pruning method      GridPruning ... 3 (G Style)
Weight generation scheme         WeightScheme... Becke
Basis function cutoff            BFCut       ...    1.0000e-11
Integration weight cutoff        WCut        ...    1.0000e-14
Grids for H and He will be reduced by one unit

# of grid points (after initial pruning)     ...  32040 (   0.0 sec)
# of grid points (after weights+screening)   ...  28198 (   0.1 sec)
nearest neighbour list constructed           ...    0.0 sec
Grid point re-assignment to atoms done       ...    0.0 sec
Grid point division into batches done        ...    0.0 sec
Reduced shell lists constructed in    0.1 sec

Total number of grid points                  ...    28198
Total number of batches                      ...      472
Average number of points per batch           ...       59
Average number of grid points per atom       ...      470
Average number of shells per batch           ...   161.27 (42.44%)
Average number of basis functions per batch  ...   312.15 (36.30%)
Average number of large shells per batch     ...    97.80 (60.65%)
Average number of large basis fcns per batch ...   181.51 (58.15%)
Maximum spatial batch extension              ...  14.04, 13.30, 12.79 au
Average spatial batch extension              ...   0.28,  0.27,  0.26 au

Overlap Fitting                  UseSFitting ... on
Constructing numerical overlap ... done (      0.1 sec)
Inverting numerical overlap    ... done (      0.0 sec)
Obtaining analytic overlap     ... done (      0.0 sec)
Final contraction and storage  ... done (      0.1 sec)


General Integration Accuracy     IntAcc      ...  4.010
Radial Grid Type                 RadialGrid  ... Gauss-Chebyshev
Angular Grid (max. acc.)         AngularGrid ... Lebedev-110
Angular grid pruning method      GridPruning ... 3 (G Style)
Weight generation scheme         WeightScheme... Becke
Basis function cutoff            BFCut       ...    1.0000e-11
Integration weight cutoff        WCut        ...    1.0000e-14
Grids for H and He will be reduced by one unit

# of grid points (after initial pruning)     ...  55160 (   0.0 sec)
# of grid points (after weights+screening)   ...  48809 (   0.1 sec)
nearest neighbour list constructed           ...    0.0 sec
Grid point re-assignment to atoms done       ...    0.0 sec
Grid point division into batches done        ...    0.0 sec
Reduced shell lists constructed in    0.1 sec

Total number of grid points                  ...    48809
Total number of batches                      ...      794
Average number of points per batch           ...       61
Average number of grid points per atom       ...      813
Average number of shells per batch           ...   156.22 (41.11%)
Average number of basis functions per batch  ...   299.46 (34.82%)
Average number of large shells per batch     ...    94.43 (60.44%)
Average number of large basis fcns per batch ...   174.46 (58.26%)
Maximum spatial batch extension              ...  18.69, 12.33, 11.12 au
Average spatial batch extension              ...   0.26,  0.24,  0.23 au

Overlap Fitting                  UseSFitting ... on
Constructing numerical overlap ... done (      0.1 sec)
Inverting numerical overlap    ... done (      0.0 sec)
Obtaining analytic overlap     ... done (      0.0 sec)
Final contraction and storage  ... done (      0.1 sec)

Time for X-Grid setup             =    1.137 sec

--------------------
COSMO INITIALIZATION
--------------------

Epsilon                                      ...   78.3550
Refractive Index                             ...    1.3300
Potential Evaluation                         ...  ANALYTIC
Technical COSMO parameters:
  rsolv                                      ...    1.3000
  routf                                      ...    0.8500
  disex                                      ...   10.0000
  nppa                                       ... 1082   
  nspa                                       ...   92   
Solvent:                                     ... WATER
Solvent:                                     ... WATER
SMD-CDS solvent descriptors:
  Soln                                       ...    1.3328
  Soln25                                     ...    1.3323
  Sola                                       ...    0.0000
  Solb                                       ...    0.0000
  Solg                                       ...    0.0000
  Solc                                       ...    0.0000
  Solh                                       ...    0.0000
Radii:
 Radius for O  used is    2.8724 Bohr (=   1.5200 Ang.)
 Radius for H  used is    2.2677 Bohr (=   1.2000 Ang.)
Initializing COSMO package            ... done
Setting COSMO radii                   ... done
Setting atoms and making cavity       ...  USING 1082 GRID
done
Cholesky decomposition of A           ... done
--------------
SCF ITERATIONS
--------------
ITER       Energy         Delta-E        Max-DP      RMS-DP      [F,P]     Damp
               ***  Starting incremental Fock matrix formation  ***
  0  -1527.9317905810   0.000000000000 0.04049528  0.00059439  0.2888595 0.7000
  1  -1528.4940467744  -0.562256193424 0.02855336  0.00039508  0.1472067 0.7000
                               ***Turning on DIIS***
  2  -1528.7359850439  -0.241938269567 0.04633647  0.00065022  0.0600580 0.0000
  3  -1529.1125223742  -0.376537330256 0.01718198  0.00024694  0.0714573 0.0000
  4  -1529.1845307856  -0.072008411357 0.00312628  0.00004642  0.0104212 0.0000
                      *** Initiating the SOSCF procedure ***
                           *** Shutting down DIIS ***
                      *** Re-Reading the Fockian *** 
                      *** Removing any level shift *** 
ITER      Energy       Delta-E        Grad      Rot      Max-DP    RMS-DP
  5  -1529.18617913  -0.0016483478  0.000506  0.000506  0.000856  0.000015
               *** Restarting incremental Fock matrix formation ***
  6  -1529.18627017  -0.0000910387  0.000242  0.000409  0.000676  0.000009
  7  -1529.18627789  -0.0000077177  0.000162  0.000183  0.000378  0.000004
  8  -1529.18628304  -0.0000051511  0.000013  0.000031  0.000055  0.000001
  9  -1529.18628314  -0.0000001026  0.000012  0.000014  0.000029  0.000000
                  ***Gradient check signals convergence***
              ***Rediagonalizing the Fockian in SOSCF/NRSCF***

               *****************************************************
               *                     SUCCESS                       *
               *           SCF CONVERGED AFTER  10 CYCLES          *
               *****************************************************

Setting up the final grid:

General Integration Accuracy     IntAcc      ...  5.010
Radial Grid Type                 RadialGrid  ... Gauss-Chebyshev
Angular Grid (max. acc.)         AngularGrid ... Lebedev-434
Angular grid pruning method      GridPruning ... 3 (G Style)
Weight generation scheme         WeightScheme... Becke
Basis function cutoff            BFCut       ...    1.0000e-11
Integration weight cutoff        WCut        ...    1.0000e-14
Grids for H and He will be reduced by one unit

# of grid points (after initial pruning)     ... 484520 (   0.0 sec)
# of grid points (after weights+screening)   ... 416245 (   2.5 sec)
nearest neighbour list constructed           ...    0.0 sec
Grid point re-assignment to atoms done       ...    0.0 sec
Grid point division into batches done        ...    1.8 sec
Reduced shell lists constructed in    2.5 sec

Total number of grid points                  ...   416245
Total number of batches                      ...     6534
Average number of points per batch           ...       63
Average number of grid points per atom       ...     6937
Average number of shells per batch           ...   137.42 (36.16%)
Average number of basis functions per batch  ...   254.50 (29.59%)
Average number of large shells per batch     ...    81.78 (59.51%)
Average number of large basis fcns per batch ...   148.47 (58.34%)
Maximum spatial batch extension              ...  17.47, 15.53, 13.13 au
Average spatial batch extension              ...   0.12,  0.11,  0.12 au

Final grid set up in    5.5 sec
Final integration                            ... done (   1.2 sec)
Change in XC energy                          ...    -0.002104863
Integrated number of electrons               ...   200.000014291
Previous integrated no of electrons          ...   199.999622773
Old exchange energy                            =    -56.633756763 Eh
New exchange energy                            =    -56.632198200 Eh
Exchange energy change after final integration =      0.001558563 Eh
Total energy after final integration           =  -1529.186829518 Eh
Final COS-X integration done in                =    14.843 sec
   3.03165402747019       -2.32539539727504        3.23934965500006     
  2.473312705581835E-003  0.187831237219878       1.316773898841194E-002
Total Energy after outlying charge correction =  -1529.194594825 Eh

SMD CDS free energy correction energy :                10.84100     Kcal/mol
Total Energy after SMD CDS correction =             -1529.169553287 Eh

----------------
TOTAL SCF ENERGY
----------------

Total Energy       :        -1529.16955329 Eh          -41610.81900 eV
Total Energy       :        -1529.16955329 Eh          -41610.81900 eV
COSMO(ediel)       :           -0.09136048 Eh              -2.48605 eV
SMD CDS (Gcds)     :            0.01727623 Eh               0.47011 eV

Components:
Nuclear Repulsion  :         2488.61446273 Eh           67718.64228 eV
Electronic Energy  :        -4017.78401602 Eh         -109329.46128 eV

One Electron Energy:        -7070.41289319 Eh         -192395.71603 eV
Two Electron Energy:         3052.62887717 Eh           83066.25475 eV

Virial components:
Potential Energy   :        -3052.06413557 Eh          -83050.88735 eV
Kinetic Energy     :         1522.89458228 Eh           41440.06836 eV
Virial Ratio       :            2.00412042


DFT components:
N(Alpha)           :      100.000007145714 electrons
N(Beta)            :      100.000007145714 electrons
N(Total)           :      200.000014291427 electrons
E(XC)              :     -130.025073161101 Eh       

---------------
SCF CONVERGENCE
---------------

  Last Energy change         ...   -7.4334e-08  Tolerance :   1.0000e-08
  Last MAX-Density change    ...    1.5972e-14  Tolerance :   1.0000e-07
  Last RMS-Density change    ...    2.2130e-16  Tolerance :   5.0000e-09
  Last Orbital Gradient      ...    1.9772e-06  Tolerance :   1.0000e-05
  Last Orbital Rotation      ...    1.1542e-06  Tolerance :   1.0000e-05

             **** THE GBW FILE WAS UPDATED (4_wB97X_SMD_onB3LYP_SMD_20_waters.gbw) ****
             **** DENSITY FILE WAS UPDATED (4_wB97X_SMD_onB3LYP_SMD_20_waters.scfp.tmp) ****
             **** ENERGY FILE WAS UPDATED (4_wB97X_SMD_onB3LYP_SMD_20_waters.en.tmp) ****
----------------
ORBITAL ENERGIES
----------------

  NO   OCC          E(Eh)            E(eV) 
   0   2.0000     -19.248985      -523.7915 
   1   2.0000     -19.240923      -523.5721 
   2   2.0000     -19.240285      -523.5548 
   3   2.0000     -19.239541      -523.5345 
   4   2.0000     -19.238970      -523.5190 
   5   2.0000     -19.238722      -523.5122 
   6   2.0000     -19.238235      -523.4990 
   7   2.0000     -19.238183      -523.4976 
   8   2.0000     -19.237783      -523.4867 
   9   2.0000     -19.234774      -523.4048 
  10   2.0000     -19.232439      -523.3413 
  11   2.0000     -19.231270      -523.3095 
  12   2.0000     -19.231177      -523.3069 
  13   2.0000     -19.230289      -523.2828 
  14   2.0000     -19.225386      -523.1494 
  15   2.0000     -19.225290      -523.1467 
  16   2.0000     -19.225273      -523.1463 
  17   2.0000     -19.225145      -523.1428 
  18   2.0000     -19.224209      -523.1173 
  19   2.0000     -19.224158      -523.1159 
  20   2.0000      -1.157371       -31.4937 
  21   2.0000      -1.146474       -31.1971 
  22   2.0000      -1.144654       -31.1476 
  23   2.0000      -1.142441       -31.0874 
  24   2.0000      -1.137709       -30.9586 
  25   2.0000      -1.136549       -30.9271 
  26   2.0000      -1.133739       -30.8506 
  27   2.0000      -1.133267       -30.8378 
  28   2.0000      -1.129050       -30.7230 
  29   2.0000      -1.125916       -30.6377 
  30   2.0000      -1.124279       -30.5932 
  31   2.0000      -1.120405       -30.4878 
  32   2.0000      -1.118589       -30.4384 
  33   2.0000      -1.114205       -30.3191 
  34   2.0000      -1.107973       -30.1495 
  35   2.0000      -1.105566       -30.0840 
  36   2.0000      -1.103898       -30.0386 
  37   2.0000      -1.102879       -30.0109 
  38   2.0000      -1.099949       -29.9311 
  39   2.0000      -1.098776       -29.8992 
  40   2.0000      -0.662431       -18.0257 
  41   2.0000      -0.654665       -17.8144 
  42   2.0000      -0.651967       -17.7409 
  43   2.0000      -0.648238       -17.6395 
  44   2.0000      -0.646117       -17.5818 
  45   2.0000      -0.645470       -17.5641 
  46   2.0000      -0.641226       -17.4487 
  47   2.0000      -0.640142       -17.4191 
  48   2.0000      -0.639477       -17.4011 
  49   2.0000      -0.636765       -17.3273 
  50   2.0000      -0.635380       -17.2896 
  51   2.0000      -0.634368       -17.2620 
  52   2.0000      -0.631775       -17.1915 
  53   2.0000      -0.629117       -17.1191 
  54   2.0000      -0.627936       -17.0870 
  55   2.0000      -0.624905       -17.0045 
  56   2.0000      -0.623979       -16.9793 
  57   2.0000      -0.620921       -16.8961 
  58   2.0000      -0.620604       -16.8875 
  59   2.0000      -0.614751       -16.7282 
  60   2.0000      -0.570257       -15.5175 
  61   2.0000      -0.559451       -15.2234 
  62   2.0000      -0.556398       -15.1404 
  63   2.0000      -0.551820       -15.0158 
  64   2.0000      -0.543236       -14.7822 
  65   2.0000      -0.540349       -14.7036 
  66   2.0000      -0.525580       -14.3017 
  67   2.0000      -0.520793       -14.1715 
  68   2.0000      -0.514462       -13.9992 
  69   2.0000      -0.512922       -13.9573 
  70   2.0000      -0.504319       -13.7232 
  71   2.0000      -0.497618       -13.5409 
  72   2.0000      -0.494996       -13.4695 
  73   2.0000      -0.492396       -13.3988 
  74   2.0000      -0.487917       -13.2769 
  75   2.0000      -0.483969       -13.1695 
  76   2.0000      -0.478314       -13.0156 
  77   2.0000      -0.472343       -12.8531 
  78   2.0000      -0.468444       -12.7470 
  79   2.0000      -0.456358       -12.4181 
  80   2.0000      -0.436006       -11.8643 
  81   2.0000      -0.431977       -11.7547 
  82   2.0000      -0.430126       -11.7043 
  83   2.0000      -0.429722       -11.6933 
  84   2.0000      -0.428445       -11.6586 
  85   2.0000      -0.426849       -11.6152 
  86   2.0000      -0.425332       -11.5739 
  87   2.0000      -0.424519       -11.5517 
  88   2.0000      -0.424094       -11.5402 
  89   2.0000      -0.423724       -11.5301 
  90   2.0000      -0.422612       -11.4999 
  91   2.0000      -0.419928       -11.4268 
  92   2.0000      -0.419638       -11.4189 
  93   2.0000      -0.416860       -11.3433 
  94   2.0000      -0.416163       -11.3244 
  95   2.0000      -0.415290       -11.3006 
  96   2.0000      -0.412744       -11.2313 
  97   2.0000      -0.411843       -11.2068 
  98   2.0000      -0.410964       -11.1829 
  99   2.0000      -0.409387       -11.1400 
 100   0.0000       0.082454         2.2437 
 101   0.0000       0.118158         3.2152 
 102   0.0000       0.118589         3.2270 
 103   0.0000       0.128332         3.4921 
 104   0.0000       0.146624         3.9898 
 105   0.0000       0.152101         4.1389 
 106   0.0000       0.155944         4.2435 
 107   0.0000       0.175997         4.7891 
 108   0.0000       0.179367         4.8808 
 109   0.0000       0.185642         5.0516 
 110   0.0000       0.197769         5.3816 
 111   0.0000       0.200719         5.4619 
 112   0.0000       0.210168         5.7190 
 113   0.0000       0.217017         5.9053 
 114   0.0000       0.232175         6.3178 
 115   0.0000       0.242364         6.5951 
 116   0.0000       0.245676         6.6852 
 117   0.0000       0.253222         6.8905 
 118   0.0000       0.255970         6.9653 
 119   0.0000       0.263630         7.1737 
 120   0.0000       0.265130         7.2146 
 121   0.0000       0.271937         7.3998 
 122   0.0000       0.278471         7.5776 
 123   0.0000       0.285003         7.7553 
 124   0.0000       0.291993         7.9455 
 125   0.0000       0.298053         8.1104 
 126   0.0000       0.304453         8.2846 
 127   0.0000       0.307080         8.3561 
 128   0.0000       0.313591         8.5332 
 129   0.0000       0.319209         8.6861 
 130   0.0000       0.322598         8.7783 
 131   0.0000       0.325759         8.8644 
 132   0.0000       0.330568         8.9952 
 133   0.0000       0.334271         9.0960 
 134   0.0000       0.340046         9.2531 
 135   0.0000       0.345896         9.4123 
 136   0.0000       0.348095         9.4721 
 137   0.0000       0.349813         9.5189 
 138   0.0000       0.352187         9.5835 
 139   0.0000       0.357646         9.7320 
 140   0.0000       0.372992        10.1496 
 141   0.0000       0.377908        10.2834 
 142   0.0000       0.383243        10.4286 
 143   0.0000       0.389571        10.6008 
 144   0.0000       0.394225        10.7274 
 145   0.0000       0.400381        10.8949 
 146   0.0000       0.403999        10.9934 
 147   0.0000       0.409505        11.1432 
 148   0.0000       0.410778        11.1778 
 149   0.0000       0.412421        11.2226 
 150   0.0000       0.418300        11.3825 
 151   0.0000       0.419710        11.4209 
 152   0.0000       0.420855        11.4521 
 153   0.0000       0.423979        11.5370 
 154   0.0000       0.426766        11.6129 
 155   0.0000       0.435868        11.8606 
 156   0.0000       0.438366        11.9285 
 157   0.0000       0.441794        12.0218 
 158   0.0000       0.446231        12.1426 
 159   0.0000       0.450020        12.2457 
 160   0.0000       0.452688        12.3183 
 161   0.0000       0.455485        12.3944 
 162   0.0000       0.460088        12.5196 
 163   0.0000       0.464599        12.6424 
 164   0.0000       0.471962        12.8427 
 165   0.0000       0.475269        12.9327 
 166   0.0000       0.479681        13.0528 
 167   0.0000       0.485394        13.2082 
 168   0.0000       0.494517        13.4565 
 169   0.0000       0.499876        13.6023 
 170   0.0000       0.503643        13.7048 
 171   0.0000       0.506176        13.7738 
 172   0.0000       0.511553        13.9201 
 173   0.0000       0.520851        14.1731 
 174   0.0000       0.526790        14.3347 
 175   0.0000       0.540225        14.7003 
 176   0.0000       0.547202        14.8901 
 177   0.0000       0.551275        15.0010 
 178   0.0000       0.558123        15.1873 
 179   0.0000       0.560630        15.2555 
 180   0.0000       0.569971        15.5097 
 181   0.0000       0.572876        15.5887 
 182   0.0000       0.578488        15.7415 
 183   0.0000       0.585315        15.9272 
 184   0.0000       0.587680        15.9916 
 185   0.0000       0.597210        16.2509 
 186   0.0000       0.602782        16.4025 
 187   0.0000       0.611930        16.6515 
 188   0.0000       0.614059        16.7094 
 189   0.0000       0.624132        16.9835 
 190   0.0000       0.630084        17.1455 
 191   0.0000       0.631439        17.1823 
 192   0.0000       0.638743        17.3811 
 193   0.0000       0.645650        17.5690 
 194   0.0000       0.653060        17.7707 
 195   0.0000       0.654259        17.8033 
 196   0.0000       0.660971        17.9859 
 197   0.0000       0.664460        18.0809 
 198   0.0000       0.672426        18.2976 
 199   0.0000       0.682250        18.5650 
 200   0.0000       0.686855        18.6903 
 201   0.0000       0.689977        18.7752 
 202   0.0000       0.700549        19.0629 
 203   0.0000       0.703211        19.1354 
 204   0.0000       0.707558        19.2536 
 205   0.0000       0.713463        19.4143 
 206   0.0000       0.720945        19.6179 
 207   0.0000       0.722972        19.6731 
 208   0.0000       0.725431        19.7400 
 209   0.0000       0.734959        19.9993 
 210   0.0000       0.739304        20.1175 
 211   0.0000       0.748849        20.3772 
 212   0.0000       0.752978        20.4896 
 213   0.0000       0.767816        20.8933 
 214   0.0000       0.771472        20.9928 
 215   0.0000       0.774343        21.0709 
 216   0.0000       0.782130        21.2829 
 217   0.0000       0.785429        21.3726 
 218   0.0000       0.792040        21.5525 
 219   0.0000       0.798398        21.7255 
 220   0.0000       0.803101        21.8535 
 221   0.0000       0.810428        22.0529 
 222   0.0000       0.812843        22.1186 
 223   0.0000       0.816482        22.2176 
 224   0.0000       0.822070        22.3697 
 225   0.0000       0.826587        22.4926 
 226   0.0000       0.829608        22.5748 
 227   0.0000       0.834879        22.7182 
 228   0.0000       0.844576        22.9821 
 229   0.0000       0.855213        23.2715 
 230   0.0000       0.855742        23.2859 
 231   0.0000       0.857611        23.3368 
 232   0.0000       0.860427        23.4134 
 233   0.0000       0.867456        23.6047 
 234   0.0000       0.876884        23.8612 
 235   0.0000       0.883476        24.0406 
 236   0.0000       0.891357        24.2551 
 237   0.0000       0.892712        24.2919 
 238   0.0000       0.906224        24.6596 
 239   0.0000       0.914499        24.8848 
 240   0.0000       0.938226        25.5304 
 241   0.0000       0.951549        25.8930 
 242   0.0000       0.957400        26.0522 
 243   0.0000       0.965434        26.2708 
 244   0.0000       0.969708        26.3871 
 245   0.0000       0.981513        26.7083 
 246   0.0000       0.994004        27.0482 
 247   0.0000       1.000329        27.2203 
 248   0.0000       1.006297        27.3827 
 249   0.0000       1.015099        27.6222 
 250   0.0000       1.018139        27.7050 
 251   0.0000       1.026176        27.9237 
 252   0.0000       1.033778        28.1305 
 253   0.0000       1.037861        28.2416 
 254   0.0000       1.050111        28.5750 
 255   0.0000       1.079028        29.3619 
 256   0.0000       1.105343        30.0779 
 257   0.0000       1.140664        31.0391 
 258   0.0000       1.159262        31.5451 
 259   0.0000       1.193264        32.4704 
 260   0.0000       1.214633        33.0518 
 261   0.0000       1.222627        33.2694 
 262   0.0000       1.230991        33.4970 
 263   0.0000       1.237199        33.6659 
 264   0.0000       1.239082        33.7171 
 265   0.0000       1.246829        33.9280 
 266   0.0000       1.254229        34.1293 
 267   0.0000       1.258989        34.2588 
 268   0.0000       1.264404        34.4062 
 269   0.0000       1.266746        34.4699 
 270   0.0000       1.276663        34.7398 
 271   0.0000       1.281945        34.8835 
 272   0.0000       1.287813        35.0432 
 273   0.0000       1.290337        35.1119 
 274   0.0000       1.298951        35.3462 
 275   0.0000       1.300542        35.3895 
 276   0.0000       1.307804        35.5872 
 277   0.0000       1.311820        35.6964 
 278   0.0000       1.320213        35.9248 
 279   0.0000       1.321493        35.9597 
 280   0.0000       1.328741        36.1569 
 281   0.0000       1.330385        36.2016 
 282   0.0000       1.339889        36.4602 
 283   0.0000       1.344279        36.5797 
 284   0.0000       1.351053        36.7640 
 285   0.0000       1.351873        36.7863 
 286   0.0000       1.362264        37.0691 
 287   0.0000       1.364253        37.1232 
 288   0.0000       1.370830        37.3022 
 289   0.0000       1.376093        37.4454 
 290   0.0000       1.384286        37.6683 
 291   0.0000       1.388464        37.7820 
 292   0.0000       1.391815        37.8732 
 293   0.0000       1.394986        37.9595 
 294   0.0000       1.399770        38.0897 
 295   0.0000       1.406993        38.2862 
 296   0.0000       1.419949        38.6388 
 297   0.0000       1.423460        38.7343 
 298   0.0000       1.426302        38.8116 
 299   0.0000       1.431892        38.9638 
 300   0.0000       1.433119        38.9972 
 301   0.0000       1.444388        39.3038 
 302   0.0000       1.448089        39.4045 
 303   0.0000       1.450650        39.4742 
 304   0.0000       1.456402        39.6307 
 305   0.0000       1.459636        39.7187 
 306   0.0000       1.464916        39.8624 
 307   0.0000       1.474580        40.1253 
 308   0.0000       1.477266        40.1984 
 309   0.0000       1.482204        40.3328 
 310   0.0000       1.483952        40.3804 
 311   0.0000       1.487188        40.4684 
 312   0.0000       1.499838        40.8127 
 313   0.0000       1.503171        40.9034 
 314   0.0000       1.510899        41.1136 
 315   0.0000       1.514352        41.2076 
 316   0.0000       1.520018        41.3618 
 317   0.0000       1.523383        41.4534 
 318   0.0000       1.531957        41.6867 
 319   0.0000       1.548693        42.1421 
 320   0.0000       1.689107        45.9629 
 321   0.0000       1.710949        46.5573 
 322   0.0000       1.721757        46.8514 
 323   0.0000       1.735878        47.2356 
 324   0.0000       1.738896        47.3178 
 325   0.0000       1.742312        47.4107 
 326   0.0000       1.749473        47.6056 
 327   0.0000       1.758535        47.8522 
 328   0.0000       1.760290        47.8999 
 329   0.0000       1.765523        48.0423 
 330   0.0000       1.768486        48.1229 
 331   0.0000       1.774082        48.2752 
 332   0.0000       1.780408        48.4474 
 333   0.0000       1.786425        48.6111 
 334   0.0000       1.792954        48.7887 
 335   0.0000       1.796065        48.8734 
 336   0.0000       1.800886        49.0046 
 337   0.0000       1.806552        49.1588 
 338   0.0000       1.815695        49.4076 
 339   0.0000       1.820986        49.5515 
 340   0.0000       1.830784        49.8182 
 341   0.0000       1.833214        49.8843 
 342   0.0000       1.842788        50.1448 
 343   0.0000       1.844640        50.1952 
 344   0.0000       1.850083        50.3433 
 345   0.0000       1.852088        50.3979 
 346   0.0000       1.856784        50.5257 
 347   0.0000       1.869538        50.8727 
 348   0.0000       1.871992        50.9395 
 349   0.0000       1.876967        51.0749 
 350   0.0000       1.890041        51.4306 
 351   0.0000       1.893280        51.5188 
 352   0.0000       1.904635        51.8278 
 353   0.0000       1.906034        51.8658 
 354   0.0000       1.918197        52.1968 
 355   0.0000       1.921813        52.2952 
 356   0.0000       1.932782        52.5937 
 357   0.0000       1.945057        52.9277 
 358   0.0000       1.952030        53.1174 
 359   0.0000       1.955220        53.2043 
 360   0.0000       1.964367        53.4531 
 361   0.0000       1.973891        53.7123 
 362   0.0000       1.978990        53.8511 
 363   0.0000       1.993414        54.2436 
 364   0.0000       1.997492        54.3545 
 365   0.0000       1.999387        54.4061 
 366   0.0000       2.009279        54.6753 
 367   0.0000       2.015183        54.8359 
 368   0.0000       2.029190        55.2171 
 369   0.0000       2.037681        55.4481 
 370   0.0000       2.045584        55.6632 
 371   0.0000       2.054028        55.8929 
 372   0.0000       2.054909        55.9169 
 373   0.0000       2.060921        56.0805 
 374   0.0000       2.062446        56.1220 
 375   0.0000       2.066234        56.2251 
 376   0.0000       2.072827        56.4045 
 377   0.0000       2.078714        56.5647 
 378   0.0000       2.083665        56.6994 
 379   0.0000       2.092307        56.9346 
 380   0.0000       2.095602        57.0242 
 381   0.0000       2.104941        57.2784 
 382   0.0000       2.111181        57.4482 
 383   0.0000       2.118122        57.6370 
 384   0.0000       2.121638        57.7327 
 385   0.0000       2.126982        57.8781 
 386   0.0000       2.132514        58.0287 
 387   0.0000       2.134526        58.0834 
 388   0.0000       2.141839        58.2824 
 389   0.0000       2.150296        58.5125 
 390   0.0000       2.154896        58.6377 
 391   0.0000       2.161238        58.8103 
 392   0.0000       2.165972        58.9391 
 393   0.0000       2.170929        59.0740 
 394   0.0000       2.178464        59.2790 
 395   0.0000       2.185311        59.4653 
 396   0.0000       2.196838        59.7790 
 397   0.0000       2.200550        59.8800 
 398   0.0000       2.204596        59.9901 
 399   0.0000       2.217715        60.3471 
 400   0.0000       2.219150        60.3861 
 401   0.0000       2.225970        60.5717 
 402   0.0000       2.228439        60.6389 
 403   0.0000       2.234045        60.7915 
 404   0.0000       2.241507        60.9945 
 405   0.0000       2.249763        61.2192 
 406   0.0000       2.251305        61.2611 
 407   0.0000       2.253144        61.3112 
 408   0.0000       2.257634        61.4333 
 409   0.0000       2.264547        61.6214 
 410   0.0000       2.268442        61.7274 
 411   0.0000       2.271357        61.8068 
 412   0.0000       2.284177        62.1556 
 413   0.0000       2.290871        62.3378 
 414   0.0000       2.298154        62.5360 
 415   0.0000       2.299189        62.5641 
 416   0.0000       2.304705        62.7142 
 417   0.0000       2.316003        63.0216 
 418   0.0000       2.328022        63.3487 
 419   0.0000       2.331015        63.4301 
 420   0.0000       2.336746        63.5861 
 421   0.0000       2.340451        63.6869 
 422   0.0000       2.346557        63.8531 
 423   0.0000       2.352667        64.0193 
 424   0.0000       2.359924        64.2168 
 425   0.0000       2.362427        64.2849 
 426   0.0000       2.372656        64.5633 
 427   0.0000       2.376172        64.6589 
 428   0.0000       2.376938        64.6798 
 429   0.0000       2.385013        64.8995 
 430   0.0000       2.394453        65.1564 
 431   0.0000       2.395637        65.1886 
 432   0.0000       2.403045        65.3902 
 433   0.0000       2.411448        65.6188 
 434   0.0000       2.414216        65.6941 
 435   0.0000       2.418308        65.8055 
 436   0.0000       2.422150        65.9101 
 437   0.0000       2.433170        66.2099 
 438   0.0000       2.437175        66.3189 
 439   0.0000       2.444208        66.5103 
 440   0.0000       2.447473        66.5991 
 441   0.0000       2.448763        66.6342 
 442   0.0000       2.458893        66.9099 
 443   0.0000       2.462600        67.0108 
 444   0.0000       2.467046        67.1317 
 445   0.0000       2.474637        67.3383 
 446   0.0000       2.481440        67.5234 
 447   0.0000       2.483767        67.5867 
 448   0.0000       2.487313        67.6832 
 449   0.0000       2.494904        67.8898 
 450   0.0000       2.498797        67.9957 
 451   0.0000       2.501584        68.0716 
 452   0.0000       2.503390        68.1207 
 453   0.0000       2.506390        68.2023 
 454   0.0000       2.509369        68.2834 
 455   0.0000       2.517168        68.4956 
 456   0.0000       2.520926        68.5979 
 457   0.0000       2.525632        68.7259 
 458   0.0000       2.527045        68.7644 
 459   0.0000       2.543852        69.2217 
 460   0.0000       2.545116        69.2561 
 461   0.0000       2.551024        69.4169 
 462   0.0000       2.555427        69.5367 
 463   0.0000       2.563815        69.7650 
 464   0.0000       2.568659        69.8968 
 465   0.0000       2.573448        70.0271 
 466   0.0000       2.578787        70.1723 
 467   0.0000       2.586717        70.3881 
 468   0.0000       2.588930        70.4484 
 469   0.0000       2.590182        70.4824 
 470   0.0000       2.597089        70.6704 
 471   0.0000       2.613065        71.1051 
 472   0.0000       2.623103        71.3783 
 473   0.0000       2.623719        71.3950 
 474   0.0000       2.634087        71.6772 
 475   0.0000       2.641377        71.8755 
 476   0.0000       2.647672        72.0468 
 477   0.0000       2.654082        72.2213 
 478   0.0000       2.659299        72.3632 
 479   0.0000       2.665546        72.5332 
 480   0.0000       2.667157        72.5770 
 481   0.0000       2.678182        72.8770 
 482   0.0000       2.685606        73.0791 
 483   0.0000       2.695541        73.3494 
 484   0.0000       2.698960        73.4424 
 485   0.0000       2.702835        73.5479 
 486   0.0000       2.705377        73.6170 
 487   0.0000       2.708252        73.6953 
 488   0.0000       2.714605        73.8682 
 489   0.0000       2.720968        74.0413 
 490   0.0000       2.728469        74.2454 
 491   0.0000       2.731612        74.3309 
 492   0.0000       2.740445        74.5713 
 493   0.0000       2.744964        74.6943 
 494   0.0000       2.757215        75.0276 
 495   0.0000       2.765963        75.2657 
 496   0.0000       2.774101        75.4871 
 497   0.0000       2.776827        75.5613 
 498   0.0000       2.781911        75.6997 
 499   0.0000       2.783344        75.7386 
 500   0.0000       2.791274        75.9544 
 501   0.0000       2.800978        76.2185 
 502   0.0000       2.819961        76.7350 
 503   0.0000       2.821139        76.7671 
 504   0.0000       2.824724        76.8646 
 505   0.0000       2.829244        76.9876 
 506   0.0000       2.840309        77.2887 
 507   0.0000       2.846768        77.4645 
 508   0.0000       2.851017        77.5801 
 509   0.0000       2.857697        77.7619 
 510   0.0000       2.861028        77.8525 
 511   0.0000       2.871528        78.1383 
 512   0.0000       2.893733        78.7425 
 513   0.0000       2.907310        79.1119 
 514   0.0000       2.915078        79.3233 
 515   0.0000       2.924910        79.5909 
 516   0.0000       2.931280        79.7642 
 517   0.0000       2.941203        80.0342 
 518   0.0000       2.945645        80.1551 
 519   0.0000       2.967400        80.7471 
 520   0.0000       2.986280        81.2608 
 521   0.0000       2.988357        81.3173 
 522   0.0000       3.001405        81.6724 
 523   0.0000       3.027631        82.3860 
 524   0.0000       3.034086        82.5617 
 525   0.0000       3.037304        82.6492 
 526   0.0000       3.042829        82.7996 
 527   0.0000       3.058262        83.2195 
 528   0.0000       3.070934        83.5644 
 529   0.0000       3.086276        83.9818 
 530   0.0000       3.092508        84.1514 
 531   0.0000       3.101919        84.4075 
 532   0.0000       3.118592        84.8612 
 533   0.0000       3.128028        85.1180 
 534   0.0000       3.132091        85.2285 
 535   0.0000       3.152902        85.7948 
 536   0.0000       3.164076        86.0989 
 537   0.0000       3.172180        86.3194 
 538   0.0000       3.178250        86.4846 
 539   0.0000       3.188384        86.7603 
 540   0.0000       3.195746        86.9607 
 541   0.0000       3.199843        87.0721 
 542   0.0000       3.210415        87.3598 
 543   0.0000       3.212711        87.4223 
 544   0.0000       3.225966        87.7830 
 545   0.0000       3.233914        87.9993 
 546   0.0000       3.239199        88.1431 
 547   0.0000       3.244032        88.2746 
 548   0.0000       3.252682        88.5100 
 549   0.0000       3.259031        88.6827 
 550   0.0000       3.267966        88.9259 
 551   0.0000       3.284943        89.3878 
 552   0.0000       3.306375        89.9711 
 553   0.0000       3.309715        90.0619 
 554   0.0000       3.326477        90.5180 
 555   0.0000       3.338991        90.8586 
 556   0.0000       3.343737        90.9877 
 557   0.0000       3.368562        91.6632 
 558   0.0000       3.389257        92.2264 
 559   0.0000       3.512524        95.5806 
 560   0.0000       3.793744       103.2330 
 561   0.0000       3.835568       104.3711 
 562   0.0000       3.846966       104.6813 
 563   0.0000       3.851558       104.8062 
 564   0.0000       3.860346       105.0453 
 565   0.0000       3.868010       105.2539 
 566   0.0000       3.869936       105.3063 
 567   0.0000       3.878135       105.5294 
 568   0.0000       3.882072       105.6366 
 569   0.0000       3.883815       105.6840 
 570   0.0000       3.889319       105.8337 
 571   0.0000       3.907095       106.3175 
 572   0.0000       3.908782       106.3634 
 573   0.0000       3.928300       106.8945 
 574   0.0000       3.945851       107.3721 
 575   0.0000       3.954563       107.6091 
[...]
      f0      :     0.000442  f :     0.001885
      f+1     :     0.000705
      f-1     :     0.000056
      f+2     :     0.000052
      f-2     :     0.000007
      f+3     :     0.000309
      f-3     :     0.000313
 37 H s       :     0.661886  s :     0.661886
      pz      :     0.029957  p :     0.197200
      px      :     0.123488
      py      :     0.043755
 38 H s       :     0.665332  s :     0.665332
      pz      :     0.114319  p :     0.191185
      px      :     0.037525
      py      :     0.039341
 39 O s       :     3.453955  s :     3.453955
      pz      :     1.595078  p :     4.841938
      px      :     1.474717
      py      :     1.772143
      dz2     :     0.011542  d :     0.027248
      dxz     :     0.001798
      dyz     :     0.003162
      dx2y2   :     0.009558
      dxy     :     0.001188
      f0      :     0.000236  f :     0.001900
      f+1     :     0.000531
      f-1     :     0.000393
      f+2     :     0.000010
      f-2     :     0.000092
      f+3     :     0.000478
      f-3     :     0.000160
 40 H s       :     0.674542  s :     0.674542
      pz      :     0.105739  p :     0.187652
      px      :     0.034537
      py      :     0.047376
 41 H s       :     0.671687  s :     0.671687
      pz      :     0.031505  p :     0.190122
      px      :     0.117612
      py      :     0.041006
 42 O s       :     3.455930  s :     3.455930
      pz      :     1.537262  p :     4.801334
      px      :     1.698684
      py      :     1.565389
      dz2     :     0.005060  d :     0.028741
      dxz     :     0.008625
      dyz     :     0.004423
      dx2y2   :     0.008703
      dxy     :     0.001930
      f0      :     0.000194  f :     0.001891
      f+1     :     0.000583
      f-1     :     0.000069
      f+2     :     0.000515
      f-2     :     0.000084
      f+3     :     0.000048
      f-3     :     0.000398
 43 H s       :     0.656223  s :     0.656223
      pz      :     0.039946  p :     0.202090
      px      :     0.035205
      py      :     0.126939
 44 H s       :     0.668866  s :     0.668866
      pz      :     0.103789  p :     0.203006
      px      :     0.067141
      py      :     0.032076
 45 O s       :     3.441515  s :     3.441515
      pz      :     1.805725  p :     4.803599
      px      :     1.405445
      py      :     1.592429
      dz2     :     0.003796  d :     0.027476
      dxz     :     0.003067
      dyz     :     0.003021
      dx2y2   :     0.006158
      dxy     :     0.011435
      f0      :     0.000216  f :     0.002062
      f+1     :     0.000314
      f-1     :     0.000222
      f+2     :     0.000163
      f-2     :     0.000205
      f+3     :     0.000560
      f-3     :     0.000382
 46 H s       :     0.651827  s :     0.651827
      pz      :     0.045532  p :     0.160947
      px      :     0.076042
      py      :     0.039373
 47 H s       :     0.650296  s :     0.650296
      pz      :     0.039957  p :     0.205427
      px      :     0.064640
      py      :     0.100830
 48 O s       :     3.458266  s :     3.458266
      pz      :     1.638903  p :     4.846585
      px      :     1.620133
      py      :     1.587549
      dz2     :     0.007405  d :     0.027489
      dxz     :     0.002858
      dyz     :     0.008283
      dx2y2   :     0.001038
      dxy     :     0.007906
      f0      :     0.000173  f :     0.001909
      f+1     :     0.000120
      f-1     :     0.000656
      f+2     :     0.000198
      f-2     :     0.000224
      f+3     :     0.000148
      f-3     :     0.000389
 49 H s       :     0.671444  s :     0.671444
      pz      :     0.039814  p :     0.190281
      px      :     0.081507
      py      :     0.068960
 50 H s       :     0.676580  s :     0.676580
      pz      :     0.091079  p :     0.182288
      px      :     0.035420
      py      :     0.055789
 51 O s       :     3.444206  s :     3.444206
      pz      :     1.433791  p :     4.799923
      px      :     1.586224
      py      :     1.779908
      dz2     :     0.007448  d :     0.027274
      dxz     :     0.008457
      dyz     :     0.003150
      dx2y2   :     0.004562
      dxy     :     0.003657
      f0      :     0.000471  f :     0.002044
      f+1     :     0.000305
      f-1     :     0.000401
      f+2     :     0.000321
      f-2     :     0.000197
      f+3     :     0.000190
      f-3     :     0.000158
 52 H s       :     0.651528  s :     0.651528
      pz      :     0.076905  p :     0.160891
      px      :     0.037641
      py      :     0.046345
 53 H s       :     0.655808  s :     0.655808
      pz      :     0.052479  p :     0.202205
      px      :     0.105688
      py      :     0.044038
 54 O s       :     3.444092  s :     3.444092
      pz      :     1.720107  p :     4.837877
      px      :     1.461143
      py      :     1.656627
      dz2     :     0.004016  d :     0.027051
      dxz     :     0.006977
      dyz     :     0.002563
      dx2y2   :     0.008653
      dxy     :     0.004843
      f0      :     0.000357  f :     0.001953
      f+1     :     0.000073
      f-1     :     0.000073
      f+2     :     0.000576
      f-2     :     0.000209
      f+3     :     0.000662
      f-3     :     0.000002
 55 H s       :     0.677035  s :     0.677035
      pz      :     0.050637  p :     0.180911
      px      :     0.096355
      py      :     0.033920
 56 H s       :     0.670893  s :     0.670893
      pz      :     0.044559  p :     0.188554
      px      :     0.050331
      py      :     0.093664
 57 O s       :     3.444999  s :     3.444999
      pz      :     1.744057  p :     4.807306
      px      :     1.681510
      py      :     1.381739
      dz2     :     0.004014  d :     0.027144
      dxz     :     0.003183
      dyz     :     0.005996
      dx2y2   :     0.003366
      dxy     :     0.010586
      f0      :     0.000263  f :     0.002052
      f+1     :     0.000120
      f-1     :     0.000237
      f+2     :     0.000068
      f-2     :     0.000583
      f+3     :     0.000764
      f-3     :     0.000017
 58 H s       :     0.649189  s :     0.649189
      pz      :     0.067451  p :     0.210660
      px      :     0.059662
      py      :     0.083546
 59 H s       :     0.652528  s :     0.652528
      pz      :     0.041757  p :     0.161276
      px      :     0.050531
      py      :     0.068987


                      *****************************
                      * MAYER POPULATION ANALYSIS *
                      *****************************

  NA   - Mulliken gross atomic population
  ZA   - Total nuclear charge
  QA   - Mulliken gross atomic charge
  VA   - Mayer's total valence
  BVA  - Mayer's bonded valence
  FA   - Mayer's free valence

  ATOM       NA         ZA         QA         VA         BVA        FA
  0 O      8.7619     8.0000    -0.7619     1.7473     1.7473     0.0000
  1 H      0.6027     1.0000     0.3973     0.8831     0.8831    -0.0000
  2 H      0.6328     1.0000     0.3672     0.9239     0.9239    -0.0000
  3 O      8.7552     8.0000    -0.7552     1.7542     1.7542     0.0000
  4 H      0.6418     1.0000     0.3582     0.9300     0.9300    -0.0000
  5 H      0.6038     1.0000     0.3962     0.9096     0.9096    -0.0000
  6 O      8.7785     8.0000    -0.7785     1.7692     1.7692     0.0000
  7 H      0.6095     1.0000     0.3905     0.9020     0.9020     0.0000
  8 H      0.5924     1.0000     0.4076     0.8532     0.8532     0.0000
  9 O      8.7891     8.0000    -0.7891     1.7141     1.7141     0.0000
 10 H      0.6097     1.0000     0.3903     0.9133     0.9133    -0.0000
 11 H      0.6276     1.0000     0.3724     0.9163     0.9163     0.0000
 12 O      8.7693     8.0000    -0.7693     1.7479     1.7479    -0.0000
 13 H      0.6175     1.0000     0.3825     0.9020     0.9020     0.0000
 14 H      0.6294     1.0000     0.3706     0.9225     0.9225    -0.0000
 15 O      8.7671     8.0000    -0.7671     1.7789     1.7789    -0.0000
 16 H      0.5939     1.0000     0.4061     0.8541     0.8541     0.0000
 17 H      0.6145     1.0000     0.3855     0.8984     0.8984     0.0000
 18 O      8.7656     8.0000    -0.7656     1.7427     1.7427    -0.0000
 19 H      0.6212     1.0000     0.3788     0.8964     0.8964     0.0000
 20 H      0.6191     1.0000     0.3809     0.9189     0.9189    -0.0000
 21 O      8.7831     8.0000    -0.7831     1.7185     1.7185     0.0000
 22 H      0.6061     1.0000     0.3939     0.9053     0.9053     0.0000
 23 H      0.6322     1.0000     0.3678     0.9095     0.9095    -0.0000
 24 O      8.7641     8.0000    -0.7641     1.7580     1.7580     0.0000
 25 H      0.6059     1.0000     0.3941     0.8909     0.8909    -0.0000
 26 H      0.6230     1.0000     0.3770     0.9143     0.9143    -0.0000
 27 O      8.7674     8.0000    -0.7674     1.7805     1.7805     0.0000
 28 H      0.5911     1.0000     0.4089     0.8526     0.8526    -0.0000
 29 H      0.6114     1.0000     0.3886     0.8995     0.8995    -0.0000
 30 O      8.7483     8.0000    -0.7483     1.7981     1.7981    -0.0000
 31 H      0.6197     1.0000     0.3803     0.8927     0.8927    -0.0000
 32 H      0.5871     1.0000     0.4129     0.8454     0.8454    -0.0000
 33 O      8.7597     8.0000    -0.7597     1.6616     1.6616    -0.0000
 34 H      0.6501     1.0000     0.3499     0.9434     0.9434     0.0000
 35 H      0.6481     1.0000     0.3519     0.9565     0.9565     0.0000
 36 O      8.7704     8.0000    -0.7704     1.7488     1.7488    -0.0000
 37 H      0.6060     1.0000     0.3940     0.9030     0.9030     0.0000
 38 H      0.6086     1.0000     0.3914     0.9039     0.9039     0.0000
 39 O      8.7716     8.0000    -0.7716     1.7476     1.7476     0.0000
 40 H      0.6278     1.0000     0.3722     0.9197     0.9197     0.0000
 41 H      0.6210     1.0000     0.3790     0.9133     0.9133     0.0000
 42 O      8.7907     8.0000    -0.7907     1.7196     1.7196     0.0000
 43 H      0.5952     1.0000     0.4048     0.8976     0.8976    -0.0000
 44 H      0.6433     1.0000     0.3567     0.9305     0.9305     0.0000
 45 O      8.7740     8.0000    -0.7740     1.7771     1.7771    -0.0000
 46 H      0.5908     1.0000     0.4092     0.8521     0.8521    -0.0000
 47 H      0.6160     1.0000     0.3840     0.9096     0.9096    -0.0000
 48 O      8.7719     8.0000    -0.7719     1.7666     1.7666    -0.0000
 49 H      0.6090     1.0000     0.3910     0.8921     0.8921    -0.0000
 50 H      0.6270     1.0000     0.3730     0.9105     0.9105    -0.0000
 51 O      8.7627     8.0000    -0.7627     1.7840     1.7840     0.0000
 52 H      0.5927     1.0000     0.4073     0.8517     0.8517     0.0000
 53 H      0.6148     1.0000     0.3852     0.9034     0.9034    -0.0000
 54 O      8.7478     8.0000    -0.7478     1.7399     1.7399    -0.0000
 55 H      0.6424     1.0000     0.3576     0.9230     0.9230    -0.0000
 56 H      0.6257     1.0000     0.3743     0.9214     0.9214    -0.0000
 57 O      8.7764     8.0000    -0.7764     1.7523     1.7523     0.0000
 58 H      0.6220     1.0000     0.3780     0.9238     0.9238     0.0000
 59 H      0.5922     1.0000     0.4078     0.8513     0.8513     0.0000

  Mayer bond orders larger than 0.1
B(  0-O ,  1-H ) :   0.8105 B(  0-O ,  2-H ) :   0.8043 B(  0-O , 47-H ) :   0.1500 
B(  2-H , 51-O ) :   0.1093 B(  3-O ,  4-H ) :   0.8151 B(  3-O ,  5-H ) :   0.7472 
B(  3-O , 35-H ) :   0.1901 B(  4-H ,  9-O ) :   0.1005 B(  5-H , 45-O ) :   0.1456 
B(  6-O ,  7-H ) :   0.7516 B(  6-O ,  8-H ) :   0.8400 B(  6-O , 38-H ) :   0.1117 
B(  6-O , 41-H ) :   0.1011 B(  7-H , 18-O ) :   0.1354 B(  9-O , 10-H ) :   0.7683 
B(  9-O , 11-H ) :   0.7975 B( 10-H , 12-O ) :   0.1310 B( 12-O , 13-H ) :   0.8161 
B( 12-O , 14-H ) :   0.8049 B( 14-H , 51-O ) :   0.1047 B( 15-O , 16-H ) :   0.8397 
B( 15-O , 17-H ) :   0.7585 B( 15-O , 56-H ) :   0.1147 B( 17-H , 42-O ) :   0.1311 
B( 18-O , 19-H ) :   0.8288 B( 18-O , 20-H ) :   0.7801 B( 20-H , 48-O ) :   0.1282 
B( 21-O , 22-H ) :   0.7672 B( 21-O , 23-H ) :   0.7768 B( 21-O , 53-H ) :   0.1193 
B( 22-H , 27-O ) :   0.1246 B( 23-H , 33-O ) :   0.1231 B( 24-O , 25-H ) :   0.8018 
B( 24-O , 26-H ) :   0.8022 B( 24-O , 58-H ) :   0.1714 B( 27-O , 28-H ) :   0.8378 
B( 27-O , 29-H ) :   0.7567 B( 29-H , 54-O ) :   0.1328 B( 30-O , 31-H ) :   0.8177 
B( 30-O , 32-H ) :   0.8360 B( 33-O , 34-H ) :   0.7572 B( 33-O , 35-H ) :   0.7458 
B( 33-O , 44-H ) :   0.1123 B( 34-H , 36-O ) :   0.1839 B( 36-O , 37-H ) :   0.7725 
B( 36-O , 38-H ) :   0.7802 B( 37-H , 57-O ) :   0.1201 B( 39-O , 40-H ) :   0.8098 
B( 39-O , 41-H ) :   0.8024 B( 39-O , 43-H ) :   0.1397 B( 42-O , 43-H ) :   0.7485 
B( 42-O , 44-H ) :   0.7865 B( 45-O , 46-H ) :   0.8372 B( 45-O , 47-H ) :   0.7497 
B( 48-O , 49-H ) :   0.8095 B( 48-O , 50-H ) :   0.8241 B( 51-O , 52-H ) :   0.8396 
B( 51-O , 53-H ) :   0.7679 B( 54-O , 55-H ) :   0.8274 B( 54-O , 56-H ) :   0.7966 
B( 57-O , 58-H ) :   0.7381 B( 57-O , 59-H ) :   0.8401 

-------
TIMINGS
-------

Total SCF time: 0 days 0 hours 2 min 8 sec 

Total time                  ....     128.301 sec
Sum of individual times     ....     124.653 sec  ( 97.2%)

Fock matrix formation       ....      93.610 sec  ( 73.0%)
  Coulomb formation         ....      85.788 sec  ( 91.6% of F)
  Split-RI-J                ....       7.383 sec  (  7.9% of F)
  Chain of spheres X        ....      85.891 sec  ( 91.8% of F)
  COS-X 1 center corr.      ....       0.000 sec  (  0.0% of F)
  XC integration            ....       7.622 sec  (  8.1% of F)
    Basis function eval.    ....       1.842 sec  ( 24.2% of XC)
    Density eval.           ....       1.827 sec  ( 24.0% of XC)
    XC-Functional eval.     ....       0.611 sec  (  8.0% of XC)
    XC-Potential eval.      ....       2.684 sec  ( 35.2% of XC)
Diagonalization             ....       1.986 sec  (  1.5%)
Density matrix formation    ....       0.120 sec  (  0.1%)
Population analysis         ....       1.817 sec  (  1.4%)
Initial guess               ....       5.376 sec  (  4.2%)
Orbital Transformation      ....       0.000 sec  (  0.0%)
Orbital Orthonormalization  ....       0.000 sec  (  0.0%)
DIIS solution               ....       0.709 sec  (  0.6%)
SOSCF solution              ....       1.153 sec  (  0.9%)
Grid generation             ....       9.375 sec  (  7.3%)
COSMO(total)                ....      10.506 sec  (  8.2%)
   Initialization           ....       3.434 sec  ( 32.7% of COSMO)
   Potential evaluation     ....       3.781 sec  ( 36.0% of COSMO)
   Charge calculation       ....       0.580 sec  (  5.5% of COSMO)
   Fock-Matrix contrib.     ....       2.875 sec  ( 27.4% of COSMO)
   Outer-lying charge       ....       0.298 sec  (  2.8% of COSMO)
           ************************************************************
           *              Shut down parallel processing               *
           ************************************************************

Entering the calculation of the dispersion correction...

Checking the input atom types...

Done


-------------------------------------------------------------------------------
                          DFT DISPERSION CORRECTION                            
                                                                               
                                DFTD3 V2.1  Rev 6                               
                              USING zero damping                               
-------------------------------------------------------------------------------
The omegaB97X-D3 functional is recognized. Fit by Chai et al.
Active option DFTDOPT                   ...         3   

molecular C6(AA) [au] = 17793.192494 


            DFT-D V3
 parameters
 s6 scaling factor         :     1.0000 
 rs6 scaling factor        :     1.2810 
 s8 scaling factor         :     1.0000 
 rs8 scaling factor        :     1.0940 
 Damping factor alpha6     :    14.0000 
 Damping factor alpha8     :    16.0000 
 ad hoc parameters k1-k3   :    16.0000     1.3333    -4.0000 

 Edisp/kcal,au: -26.569313152427  -0.042340891120 
 E6   /kcal   : -15.525169974 
 E8   /kcal   : -11.044143179 
 % E8         :  41.567288982 

-------------------------   ----------------
Dispersion correction           -0.042340891
-------------------------   ----------------


-------------------------   --------------------
FINAL SINGLE POINT ENERGY     -1529.211894177987
-------------------------   --------------------


                            ***************************************
                            *     ORCA property calculations      *
                            ***************************************

                                    ---------------------
                                    Active property flags
                                    ---------------------
   (+) Dipole Moment


------------------------------------------------------------------------------
                       ORCA ELECTRIC PROPERTIES CALCULATION
------------------------------------------------------------------------------

Dipole Moment Calculation                       ... on
Quadrupole Moment Calculation                   ... off
Polarizability Calculation                      ... off
GBWName                                         ... 4_wB97X_SMD_onB3LYP_SMD_20_waters.gbw
Electron density file                           ... 4_wB97X_SMD_onB3LYP_SMD_20_waters.scfp.tmp

-------------
DIPOLE MOMENT
-------------
                                X             Y             Z
Electronic contribution:     -0.06052      -0.04768       0.30858
Nuclear contribution   :     -0.50425      -0.54707       1.56309
                        -----------------------------------------
Total Dipole Moment    :     -0.56477      -0.59474       1.87167
                        -----------------------------------------
Magnitude (a.u.)       :      2.04349
Magnitude (Debye)      :      5.19414

smp-n71.crc.pitt.edu.219898hfi_wait_for_device: The /dev/hfi1_0 device failed to appear after 15.0 seconds: Connection timed out
smp-n71.crc.pitt.edu.219899hfi_wait_for_device: The /dev/hfi1_0 device failed to appear after 15.0 seconds: Connection timed out
smp-n71.crc.pitt.edu.219900hfi_wait_for_device: The /dev/hfi1_0 device failed to appear after 15.0 seconds: Connection timed out
smp-n71.crc.pitt.edu.219901hfi_wait_for_device: The /dev/hfi1_0 device failed to appear after 15.0 seconds: Connection timed out
smp-n71.crc.pitt.edu.219902hfi_wait_for_device: The /dev/hfi1_0 device failed to appear after 15.0 seconds: Connection timed out
smp-n71.crc.pitt.edu.219903hfi_wait_for_device: The /dev/hfi1_0 device failed to appear after 15.0 seconds: Connection timed out
smp-n71.crc.pitt.edu.219904hfi_wait_for_device: The /dev/hfi1_0 device failed to appear after 15.0 seconds: Connection timed out
smp-n71.crc.pitt.edu.219905hfi_wait_for_device: The /dev/hfi1_0 device failed to appear after 15.0 seconds: Connection timed out
smp-n71.crc.pitt.edu.219906hfi_wait_for_device: The /dev/hfi1_0 device failed to appear after 15.0 seconds: Connection timed out
smp-n71.crc.pitt.edu.219907hfi_wait_for_device: The /dev/hfi1_0 device failed to appear after 15.0 seconds: Connection timed out
smp-n71.crc.pitt.edu.219908hfi_wait_for_device: The /dev/hfi1_0 device failed to appear after 15.0 seconds: Connection timed out
smp-n71.crc.pitt.edu.219909hfi_wait_for_device: The /dev/hfi1_0 device failed to appear after 15.0 seconds: Connection timed out

Timings for individual modules:

Sum of individual times         ...      163.454 sec (=   2.724 min)
GTO integral calculation        ...       16.313 sec (=   0.272 min)  10.0 %
SCF iterations                  ...      147.141 sec (=   2.452 min)  90.0 %
                             ****ORCA TERMINATED NORMALLY****
TOTAL RUN TIME: 0 days 0 hours 2 minutes 59 seconds 88 msec
cp: cannot stat /scratch/slurm-1321691/*.{prop}: No such file or directory
