
                                 *****************
                                 * O   R   C   A *
                                 *****************

           --- An Ab Initio, DFT and Semiempirical electronic structure package ---

                  #######################################################
                  #                        -***-                        #
                  #  Department of molecular theory and spectroscopy    #
                  #              Directorship: Frank Neese              #
                  # Max Planck Institute for Chemical Energy Conversion #
                  #                  D-45470 Muelheim/Ruhr              #
                  #                       Germany                       #
                  #                                                     #
                  #                  All rights reserved                #
                  #                        -***-                        #
                  #######################################################


                         Program Version 3.0.3 - RELEASE   -


 With contributions from (in alphabetic order):
   Ute Becker             : Parallelization
   Dmytro Bykov           : SCF Hessian
   Dmitry Ganyushin       : Spin-Orbit,Spin-Spin,Magnetic field MRCI
   Andreas Hansen         : Spin unrestricted coupled pair/coupled cluster methods
   Dimitrios Liakos       : Extrapolation schemes; parallel MDCI
   Robert Izsak           : Overlap fitted RIJCOSX, COSX-SCS-MP3
   Christian Kollmar      : KDIIS, OOCD, Brueckner-CCSD(T), CCSD density
   Simone Kossmann        : Meta GGA functionals, TD-DFT gradient, OOMP2, MP2 Hessian
   Taras Petrenko         : DFT Hessian,TD-DFT gradient, ASA and ECA modules, normal mode analysis, Resonance Raman, ABS, FL, XAS/XES, NRVS
   Christoph Reimann      : Effective Core Potentials
   Michael Roemelt        : Restricted open shell CIS
   Christoph Riplinger    : Improved optimizer, TS searches, QM/MM, DLPNO-CCSD
   Barbara Sandhoefer     : DKH picture change effects
   Igor Schapiro          : Molecular dynamics
   Kantharuban Sivalingam : CASSCF convergence, NEVPT2
   Boris Wezisla          : Elementary symmetry handling
   Frank Wennmohs         : Technical directorship


 We gratefully acknowledge several colleagues who have allowed us to
 interface, adapt or use parts of their codes:
   Stefan Grimme, W. Hujo, H. Kruse, T. Risthaus : VdW corrections, initial TS optimization,
                                                   DFT functionals, gCP
   Ed Valeev                                     : LibInt (2-el integral package), F12 methods
   Garnet Chan, S. Sharma, R. Olivares           : DMRG
   Ulf Ekstrom                                   : XCFun DFT Library
   Mihaly Kallay                                 : mrcc  (arbitrary order and MRCC methods)
   Andreas Klamt, Michael Diedenhofen            : otool_cosmo (COSMO solvation model)
   Frank Weinhold                                : gennbo (NPA and NBO analysis)
   Christopher J. Cramer and Donald G. Truhlar   : smd solvation model


 Your calculation uses the libint2 library for the computation of 2-el integrals
 For citations please refer to: http://libint.valeyev.net

 This ORCA versions uses:
   CBLAS   interface :  Fast vector & matrix operations
   LAPACKE interface :  Fast linear algebra routines
   SCALAPACK package :  Parallel linear algebra routines


Your calculation utilizes the basis: ma-def2-TZVP
Cite in your paper:
        def2-TZVP: F. Weigend, R. Ahlrichs, Phys. Chem. Chem. Phys. 2005, 7, 3297.
        Minimal augmentation of diffuse functions: J. Zheng, X. Xu, D. G. Truhlar, Theor. Chem. Acc. 2011, 128, 295.

Your calculation utilizes the atom-pairwise dispersion correction
with the zero-damping scheme (D30)
Cite in your paper:
S.Grimme, J.Antony, S.Ehrlich and H.Krieg, J.Chem.Phys., 132, (2010), 154104 
   

XCFun DFT library Copyright 2009-2010 Ulf Ekstrom and contributors.
See http://admol.org/xcfun for more information. This is free soft-
ware; see the source code for copying conditions. There is ABSOLUTELY
NO WARRANTY; not even for MERCHANTABILITY or FITNESS FOR A PARTICULAR
PURPOSE. For details see the documentation. Scientific users of this 
library should cite U. Ekstrom, L. Visscher, R. Bast, A. J. Thorvald-
sen and K. Ruud; J.Chem.Theor.Comp. 2010, DOI: 10.1021/ct100117s
XCFun Version 0.99 
================================================================================
                                        WARNINGS
                       Please study these warnings very carefully!
================================================================================
Now building the actual basis set


INFO   : the flag for use of LIBINT has been found!

================================================================================
                                       INPUT FILE
================================================================================
NAME = 4_wb98x-ma-def2-TZVP-GasPhase_onB3LYP_20_waters.inp
|  1> ! wB97X-D3 MA-Def2-TZVP def2-TZVP/J RIJCOSX TightSCF Grid4 
|  2> 
|  3> %pal nprocs 1 end
|  4> 
|  5> %scf
|  6>         maxiter 400
|  7> end
|  8> 
|  9> * xyz  0  1
| 10> O  2.142277	-2.532633	2.060809
| 11> H  1.571599	-2.772989	1.296631
| 12> H  1.562653	-2.026593	2.671626
| 13> O  2.227539	0.783650	-0.184819
| 14> H  1.959449	1.559601	0.360528
| 15> H  2.868927	0.278360	0.380215
| 16> O  1.194091	-2.496067	-2.686271
| 17> H  1.469135	-1.510085	-2.767594
| 18> H  1.846826	-2.986976	-3.202659
| 19> O  1.361973	2.820891	1.462201
| 20> H  1.902679	2.380642	2.179346
| 21> H  0.438229	2.816411	1.802709
| 22> O  2.620020	1.288421	3.244090
| 23> H  3.231688	0.712854	2.738920
| 24> H  1.924490	0.649731	3.511640
| 25> O  -3.608586	0.690191	-1.050537
| 26> H  -4.384459	0.829672	-1.610588
| 27> H  -2.855241	0.413413	-1.673333
| 28> O  1.936788	-0.052108	-2.841656
| 29> H  2.188480	0.311769	-1.968654
| 30> H  1.354524	0.661265	-3.223577
| 31> O  -1.317858	0.007956	2.186576
| 32> H  -1.429485	0.981011	2.325104
| 33> H  -0.873721	-0.052842	1.290476
| 34> O  -3.342233	-1.277763	0.838444
| 35> H  -2.733521	-0.839588	1.475427
| 36> H  -3.566546	-0.571826	0.190166
| 37> O  -1.325053	2.691016	2.173929
| 38> H  -1.788042	3.306739	2.756855
| 39> H  -1.729572	2.806266	1.245071
| 40> O  0.508708	3.391924	-1.038840
| 41> H  0.984648	3.244523	-0.185987
| 42> H  0.543996	4.347224	-1.185742
| 43> O  -0.136691	-0.303515	-0.131026
| 44> H  0.088908	-1.274578	-0.096695
| 45> H  0.770407	0.121827	-0.166886
| 46> O  0.508243	-2.877983	-0.108862
| 47> H  -0.432572	-3.180869	-0.159007
| 48> H  0.852236	-2.882214	-1.039040
| 49> O  -1.521597	-2.417041	-3.023403
| 50> H  -1.801923	-2.773185	-2.153276
| 51> H  -0.553579	-2.580862	-3.060863
| 52> O  -1.507023	0.113511	-2.381116
| 53> H  -1.547864	-0.815825	-2.770513
| 54> H  -0.943018	-0.013137	-1.571344
| 55> O  3.723662	-0.582971	1.504895
| 56> H  4.629253	-0.887182	1.360606
| 57> H  3.160509	-1.411138	1.699479
| 58> O  0.255977	1.911704	-3.462385
| 59> H  -0.514988	1.353046	-3.218803
| 60> H  0.410284	2.452635	-2.664306
| 61> O  0.745347	-0.742917	3.619548
| 62> H  0.467267	-1.014366	4.504959
| 63> H  -0.095525	-0.478805	3.134192
| 64> O  -2.143713	2.883452	-0.247417
| 65> H  -1.293044	2.908407	-0.730221
| 66> H  -2.683752	2.133055	-0.584010
| 67> O  -2.131779	-3.173169	-0.406030
| 68> H  -2.608030	-2.418981	0.091562
| 69> H  -2.655522	-3.966396	-0.229075
| 70> **                         ****END OF INPUT****
================================================================================

                       ****************************
                       * Single Point Calculation *
                       ****************************

---------------------------------
CARTESIAN COORDINATES (ANGSTROEM)
---------------------------------
  O      2.142277   -2.532633    2.060809
  H      1.571599   -2.772989    1.296631
  H      1.562653   -2.026593    2.671626
  O      2.227539    0.783650   -0.184819
  H      1.959449    1.559601    0.360528
  H      2.868927    0.278360    0.380215
  O      1.194091   -2.496067   -2.686271
  H      1.469135   -1.510085   -2.767594
  H      1.846826   -2.986976   -3.202659
  O      1.361973    2.820891    1.462201
  H      1.902679    2.380642    2.179346
  H      0.438229    2.816411    1.802709
  O      2.620020    1.288421    3.244090
  H      3.231688    0.712854    2.738920
  H      1.924490    0.649731    3.511640
  O     -3.608586    0.690191   -1.050537
  H     -4.384459    0.829672   -1.610588
  H     -2.855241    0.413413   -1.673333
  O      1.936788   -0.052108   -2.841656
  H      2.188480    0.311769   -1.968654
  H      1.354524    0.661265   -3.223577
  O     -1.317858    0.007956    2.186576
  H     -1.429485    0.981011    2.325104
  H     -0.873721   -0.052842    1.290476
  O     -3.342233   -1.277763    0.838444
  H     -2.733521   -0.839588    1.475427
  H     -3.566546   -0.571826    0.190166
  O     -1.325053    2.691016    2.173929
  H     -1.788042    3.306739    2.756855
  H     -1.729572    2.806266    1.245071
  O      0.508708    3.391924   -1.038840
  H      0.984648    3.244523   -0.185987
  H      0.543996    4.347224   -1.185742
  O     -0.136691   -0.303515   -0.131026
  H      0.088908   -1.274578   -0.096695
  H      0.770407    0.121827   -0.166886
  O      0.508243   -2.877983   -0.108862
  H     -0.432572   -3.180869   -0.159007
  H      0.852236   -2.882214   -1.039040
  O     -1.521597   -2.417041   -3.023403
  H     -1.801923   -2.773185   -2.153276
  H     -0.553579   -2.580862   -3.060863
  O     -1.507023    0.113511   -2.381116
  H     -1.547864   -0.815825   -2.770513
  H     -0.943018   -0.013137   -1.571344
  O      3.723662   -0.582971    1.504895
  H      4.629253   -0.887182    1.360606
  H      3.160509   -1.411138    1.699479
  O      0.255977    1.911704   -3.462385
  H     -0.514988    1.353046   -3.218803
  H      0.410284    2.452635   -2.664306
  O      0.745347   -0.742917    3.619548
  H      0.467267   -1.014366    4.504959
  H     -0.095525   -0.478805    3.134192
  O     -2.143713    2.883452   -0.247417
  H     -1.293044    2.908407   -0.730221
  H     -2.683752    2.133055   -0.584010
  O     -2.131779   -3.173169   -0.406030
  H     -2.608030   -2.418981    0.091562
  H     -2.655522   -3.966396   -0.229075

----------------------------
CARTESIAN COORDINATES (A.U.)
----------------------------
  NO LB      ZA    FRAG    MASS        X           Y           Z
   0 O     8.0000    0    15.999          4.048316832998418         -4.785982767731381          3.894364624320120
   1 H     1.0000    0     1.008          2.969891702344505         -5.240189782376158          2.450277486752447
   2 H     1.0000    0     1.008          2.952986212350446         -3.829705754921871          5.048641472263498
   3 O     8.0000    0    15.999          4.209438662628811          1.480883884847389         -0.349257294345192
   4 H     1.0000    0     1.008          3.702821983385863          2.947218768189718          0.681299183610361
   5 H     1.0000    0     1.008          5.421486328212294          0.526024166638320          0.718502222008869
   6 O     8.0000    0    15.999          2.256504968980162         -4.716883041918417         -5.076316511494775
   7 H     1.0000    0     1.008          2.776262803758398         -2.853647088942473         -5.229994709883653
   8 H     1.0000    0     1.008          3.489995357005250         -5.644566608595564         -6.052148410338102
   9 O     8.0000    0    15.999          2.573755971795129          5.330711443643254          2.763159442745788
  10 H     1.0000    0     1.008          3.595542230763153          4.498761402910556          4.118367091056744
  11 H     1.0000    0     1.008          0.828132793942176          5.322245470563287          3.406626309155045
  12 O     8.0000    0    15.999          4.951120265396358          2.434762835192953          6.130441653792593
  13 H     1.0000    0     1.008          6.107005270279702          1.347098833470300          5.175808702719594
  14 H     1.0000    0     1.008          3.636759047470110          1.227813650718789          6.636037880923224
  15 O     8.0000    0    15.999         -6.819239270702353          1.304271970097242         -1.985227223551230
  16 H     1.0000    0     1.008         -8.285426755406236          1.567852860982713         -3.043570234579961
  17 H     1.0000    0     1.008         -5.395623536343448          0.781237350202786         -3.162141100852850
  18 O     8.0000    0    15.999          3.659998899465073         -0.098469849386369         -5.369951606814128
  19 H     1.0000    0     1.008          4.135627849563981          0.589158027046495         -3.720216912448608
  20 H     1.0000    0     1.008          2.559679401823550          1.249609751947437         -6.091677701607467
  21 O     8.0000    0    15.999         -2.490390703397193          0.015034661121477          4.132029811004995
  22 H     1.0000    0     1.008         -2.701335162548420          1.853842124364221          4.393809792884838
  23 H     1.0000    0     1.008         -1.651093407455810         -0.099856908368667          2.438646222398161
  24 O     8.0000    0    15.999         -6.315905045754026         -2.414622134057620          1.584429538629470
  25 H     1.0000    0     1.008         -5.165606071322554         -1.586591385326676          2.788152960593031
  26 H     1.0000    0     1.008         -6.739795184032305         -1.080594536255653          0.359361659983269
  27 O     8.0000    0    15.999         -2.503987282930757          5.085283262000231          4.108130444589293
  28 H     1.0000    0     1.008         -3.378909695948822          6.248831106356626          5.209700940931472
  29 H     1.0000    0     1.008         -3.268417408898447          5.303074198934655          2.352843207287467
  30 O     8.0000    0    15.999          0.961318802134812          6.409807427074708         -1.963123096962753
  31 H     1.0000    0     1.008          1.860715058313293          6.131259905208581         -0.351464494469612
  32 H     1.0000    0     1.008          1.028003457948625          8.215062802809680         -2.240727645488053
  33 O     8.0000    0    15.999         -0.258308554971830         -0.573560227537109         -0.247603256423166
  34 H     1.0000    0     1.008          0.168011771114671         -2.408603356321081         -0.182727068519515
  35 H     1.0000    0     1.008          1.455858241655870          0.230219665717224         -0.315368835585582
  36 O     8.0000    0    15.999          0.960440079482539         -5.438599688081085         -0.205719366390935
  37 H     1.0000    0     1.008         -0.817442613202584         -6.010971277879958         -0.300479683376417
  38 H     1.0000    0     1.008          1.610492641468512         -5.446595119353706         -1.963501042189537
  39 O     8.0000    0    15.999         -2.875401616196175         -4.567545544459157         -5.713403662475915
  40 H     1.0000    0     1.008         -3.405140984413784         -5.240560168698406         -4.069101930745417
  41 H     1.0000    0     1.008         -1.046112703489993         -4.877122369444270         -5.784192803452604
  42 O     8.0000    0    15.999         -2.847860747520406          0.214504703187535         -4.499657133098035
  43 H     1.0000    0     1.008         -2.925039052555884         -1.541685823206305         -5.235510820468568
  44 H     1.0000    0     1.008         -1.782045759358151         -0.024825332221323         -2.969409822180356
  45 O     8.0000    0    15.999          7.036701395289476         -1.101655534018206          2.843839410307422
  46 H     1.0000    0     1.008          8.748020374633356         -1.676531010944524          2.571172716170059
  47 H     1.0000    0     1.008          5.972496453793321         -2.666664357169367          3.211549880350355
  48 O     8.0000    0    15.999          0.483726426582760          3.612597009121793         -6.542959420196933
  49 H     1.0000    0     1.008         -0.973186282255838          2.556886386597614         -6.082656149044126
  50 H     1.0000    0     1.008          0.775324397129747          4.634808456469949         -5.034808676963194
  51 O     8.0000    0    15.999          1.408501704739803         -1.403909670234375          6.839954448582398
  52 H     1.0000    0     1.008          0.883006661418981         -1.916873939561164          8.513138754543748
  53 H     1.0000    0     1.008         -0.180516088942828         -0.904810321552165          5.922764531126916
  54 O     8.0000    0    15.999         -4.051030479726728          5.448934600307501         -0.467550370876394
  55 H     1.0000    0     1.008         -2.443499039110071          5.496092715979506         -1.379917707238110
  56 H     1.0000    0     1.008         -5.071556291363427          4.030889778591396         -1.103618959471350
  57 O     8.0000    0    15.999         -4.028478488044511         -5.996420386648764         -0.767285502156046
  58 H     1.0000    0     1.008         -4.928462449050642         -4.571211613158964          0.173027104274098
  59 H     1.0000    0     1.008         -5.018209322602830         -7.495402178680717         -0.432889014128011

--------------------------------
INTERNAL COORDINATES (ANGSTROEM)
--------------------------------
 O      0   0   0   0.000000     0.000     0.000
 H      1   0   0   0.983571     0.000     0.000
 H      1   2   0   0.982414   105.463     0.000
 O      2   1   3   3.908277    88.553    82.407
 H      4   2   1   0.985584   117.456   300.695
 H      4   2   1   0.992955    55.223    30.576
 O      2   1   3   4.010325   144.035   123.280
 H      7   2   1   1.026851    96.877   316.858
 H      7   2   1   0.966287   115.600    67.545
 O      5   4   2   1.778065   173.081   345.382
 H     10   5   4   1.000240    87.155    66.708
 H     10   5   4   0.984514   121.759   320.917
 O     11  10   5   1.685587   165.501   310.747
 H     13  11  10   0.980108   108.695    69.247
 H     13  11  10   0.981463   106.994   320.288
 O     12  10   5   5.388742   121.553   330.566
 H     16  12  10   0.967001   148.462   256.261
 H     16  12  10   1.015879    82.831     5.718
 O      8   7   2   1.532932   177.180    44.798
 H     19   8   7   0.978717   112.890   317.221
 H     19   8   7   0.996893   121.395   194.202
 O     12  10   5   3.334459   122.533    28.120
 H     22  12  10   0.989185    41.152   179.525
 H     22  12  10   1.001973    73.424   315.014
 O     16  12  10   2.740809    81.107   105.950
 H     25  16  12   0.984010   100.750    10.569
 H     25  16  12   0.984341     7.697   129.221
 O     23  22  12   1.719848   163.517    32.480
 H     28  23  22   0.966062   123.474   179.147
 H     28  23  22   1.019655    99.693    61.591
 O     10   5   4   2.703580    71.501   241.076
 H     31  10   5   0.987727    10.778   284.529
 H     31  10   5   0.967173   109.732   218.209
 O     24  22  12   1.620715   174.483   143.194
 H     34  24  22   0.997515   102.899   358.039
 H     34  24  22   1.002511   112.162   249.045
 O     35  34  24   1.657377   177.134   188.659
 H     37  35  34   0.989640    93.206   239.507
 H     37  35  34   0.991756    95.668   346.263
 O      7   2   1   2.737675   102.572   211.643
 H     40   7   2   0.981092    99.424   341.793
 H     40   7   2   0.982497    12.186   224.725
 O     18  16  12   1.551963   167.542     6.144
 H     43  18  16   1.008446   108.602   135.683
 H     43  18  16   0.994923    98.388    29.172
 O      6   4   2   1.654499   170.210   306.285
 H     46   6   4   0.966157   123.136   175.936
 H     46   6   4   1.020228   105.491    53.209
 O     21  19   8   1.681497   165.500    92.816
 H     49  21  19   0.982760    93.129   292.677
 H     49  21  19   0.976395   101.108    37.268
 O      3   1   2   1.792866   165.127   255.110
 H     52   3   1   0.966936   114.472   213.841
 H     52   3   1   1.006177   108.293    95.889
 O     30  28  23   1.550803   171.215   288.803
 H     55  30  28   0.978448   104.121   334.468
 H     55  30  28   0.983886   115.967    94.372
 O     38  37  35   1.717086   161.206    17.598
 H     58  38  37   1.021378   113.244   307.697
 H     58  38  37   0.966865   120.401   181.881

---------------------------
INTERNAL COORDINATES (A.U.)
---------------------------
 O      0   0   0   0.000000     0.000     0.000
 H      1   0   0   1.858680     0.000     0.000
 H      1   2   0   1.856494   105.463     0.000
 O      2   1   3   7.385574    88.553    82.407
 H      4   2   1   1.862484   117.456   300.695
 H      4   2   1   1.876413    55.223    30.576
 O      2   1   3   7.578416   144.035   123.280
 H      7   2   1   1.940467    96.877   316.858
 H      7   2   1   1.826018   115.600    67.545
 O      5   4   2   3.360055   173.081   345.382
 H     10   5   4   1.890179    87.155    66.708
 H     10   5   4   1.860463   121.759   320.917
 O     11  10   5   3.185298   165.501   310.747
 H     13  11  10   1.852136   108.695    69.247
 H     13  11  10   1.854697   106.994   320.288
 O     12  10   5  10.183246   121.553   330.566
 H     16  12  10   1.827367   148.462   256.261
 H     16  12  10   1.919733    82.831     5.718
 O      8   7   2   2.896822   177.180    44.798
 H     19   8   7   1.849508   112.890   317.221
 H     19   8   7   1.883855   121.395   194.202
 O     12  10   5   6.301214   122.533    28.120
 H     22  12  10   1.869288    41.152   179.525
 H     22  12  10   1.893454    73.424   315.014
 O     16  12  10   5.179379    81.107   105.950
 H     25  16  12   1.859509   100.750    10.569
 H     25  16  12   1.860135     7.697   129.221
 O     23  22  12   3.250042   163.517    32.480
 H     28  23  22   1.825593   123.474   179.147
 H     28  23  22   1.926868    99.693    61.591
 O     10   5   4   5.109026    71.501   241.076
 H     31  10   5   1.866533    10.778   284.529
 H     31  10   5   1.827692   109.732   218.209
 O     24  22  12   3.062708   174.483   143.194
 H     34  24  22   1.885031   102.899   358.039
 H     34  24  22   1.894471   112.162   249.045
 O     35  34  24   3.131988   177.134   188.659
 H     37  35  34   1.870149    93.206   239.507
 H     37  35  34   1.874147    95.668   346.263
 O      7   2   1   5.173456   102.572   211.643
 H     40   7   2   1.853996    99.424   341.793
 H     40   7   2   1.856649    12.186   224.725
 O     18  16  12   2.932785   167.542     6.144
 H     43  18  16   1.905687   108.602   135.683
 H     43  18  16   1.880132    98.388    29.172
 O      6   4   2   3.126551   170.210   306.285
 H     46   6   4   1.825772   123.136   175.936
 H     46   6   4   1.927951   105.491    53.209
 O     21  19   8   3.177569   165.500    92.816
 H     49  21  19   1.857148    93.129   292.677
 H     49  21  19   1.845119   101.108    37.268
 O      3   1   2   3.388026   165.127   255.110
 H     52   3   1   1.827245   114.472   213.841
 H     52   3   1   1.901398   108.293    95.889
 O     30  28  23   2.930594   171.215   288.803
 H     55  30  28   1.848998   104.121   334.468
 H     55  30  28   1.859276   115.967    94.372
 O     38  37  35   3.244822   161.206    17.598
 H     58  38  37   1.930124   113.244   307.697
 H     58  38  37   1.827111   120.401   181.881

---------------------
BASIS SET INFORMATION
---------------------
There are 2 groups of distinct atoms

 Group   1 Type O   : 12s7p2d1f contracted to 6s4p2d1f pattern {621111/4111/11/1}
 Group   2 Type H   : 5s1p contracted to 3s1p pattern {311/1}

Atom   0O    basis set group =>   1
Atom   1H    basis set group =>   2
Atom   2H    basis set group =>   2
Atom   3O    basis set group =>   1
Atom   4H    basis set group =>   2
Atom   5H    basis set group =>   2
Atom   6O    basis set group =>   1
Atom   7H    basis set group =>   2
Atom   8H    basis set group =>   2
Atom   9O    basis set group =>   1
Atom  10H    basis set group =>   2
Atom  11H    basis set group =>   2
Atom  12O    basis set group =>   1
Atom  13H    basis set group =>   2
Atom  14H    basis set group =>   2
Atom  15O    basis set group =>   1
Atom  16H    basis set group =>   2
Atom  17H    basis set group =>   2
Atom  18O    basis set group =>   1
Atom  19H    basis set group =>   2
Atom  20H    basis set group =>   2
Atom  21O    basis set group =>   1
Atom  22H    basis set group =>   2
Atom  23H    basis set group =>   2
Atom  24O    basis set group =>   1
Atom  25H    basis set group =>   2
Atom  26H    basis set group =>   2
Atom  27O    basis set group =>   1
Atom  28H    basis set group =>   2
Atom  29H    basis set group =>   2
Atom  30O    basis set group =>   1
Atom  31H    basis set group =>   2
Atom  32H    basis set group =>   2
Atom  33O    basis set group =>   1
Atom  34H    basis set group =>   2
Atom  35H    basis set group =>   2
Atom  36O    basis set group =>   1
Atom  37H    basis set group =>   2
Atom  38H    basis set group =>   2
Atom  39O    basis set group =>   1
Atom  40H    basis set group =>   2
Atom  41H    basis set group =>   2
Atom  42O    basis set group =>   1
Atom  43H    basis set group =>   2
Atom  44H    basis set group =>   2
Atom  45O    basis set group =>   1
Atom  46H    basis set group =>   2
Atom  47H    basis set group =>   2
Atom  48O    basis set group =>   1
Atom  49H    basis set group =>   2
Atom  50H    basis set group =>   2
Atom  51O    basis set group =>   1
Atom  52H    basis set group =>   2
Atom  53H    basis set group =>   2
Atom  54O    basis set group =>   1
Atom  55H    basis set group =>   2
Atom  56H    basis set group =>   2
Atom  57O    basis set group =>   1
Atom  58H    basis set group =>   2
Atom  59H    basis set group =>   2
-------------------------------
AUXILIARY BASIS SET INFORMATION
-------------------------------
There are 2 groups of distinct atoms

 Group   1 Type O   : 12s5p4d2f1g contracted to 6s4p3d1f1g pattern {711111/2111/211/2/1}
 Group   2 Type H   : 5s2p1d contracted to 3s1p1d pattern {311/2/1}

Atom   0O    basis set group =>   1
Atom   1H    basis set group =>   2
Atom   2H    basis set group =>   2
Atom   3O    basis set group =>   1
Atom   4H    basis set group =>   2
Atom   5H    basis set group =>   2
Atom   6O    basis set group =>   1
Atom   7H    basis set group =>   2
Atom   8H    basis set group =>   2
Atom   9O    basis set group =>   1
Atom  10H    basis set group =>   2
Atom  11H    basis set group =>   2
Atom  12O    basis set group =>   1
Atom  13H    basis set group =>   2
Atom  14H    basis set group =>   2
Atom  15O    basis set group =>   1
Atom  16H    basis set group =>   2
Atom  17H    basis set group =>   2
Atom  18O    basis set group =>   1
Atom  19H    basis set group =>   2
Atom  20H    basis set group =>   2
Atom  21O    basis set group =>   1
Atom  22H    basis set group =>   2
Atom  23H    basis set group =>   2
Atom  24O    basis set group =>   1
Atom  25H    basis set group =>   2
Atom  26H    basis set group =>   2
Atom  27O    basis set group =>   1
Atom  28H    basis set group =>   2
Atom  29H    basis set group =>   2
Atom  30O    basis set group =>   1
Atom  31H    basis set group =>   2
Atom  32H    basis set group =>   2
Atom  33O    basis set group =>   1
Atom  34H    basis set group =>   2
Atom  35H    basis set group =>   2
Atom  36O    basis set group =>   1
Atom  37H    basis set group =>   2
Atom  38H    basis set group =>   2
Atom  39O    basis set group =>   1
Atom  40H    basis set group =>   2
Atom  41H    basis set group =>   2
Atom  42O    basis set group =>   1
Atom  43H    basis set group =>   2
Atom  44H    basis set group =>   2
Atom  45O    basis set group =>   1
Atom  46H    basis set group =>   2
Atom  47H    basis set group =>   2
Atom  48O    basis set group =>   1
Atom  49H    basis set group =>   2
Atom  50H    basis set group =>   2
Atom  51O    basis set group =>   1
Atom  52H    basis set group =>   2
Atom  53H    basis set group =>   2
Atom  54O    basis set group =>   1
Atom  55H    basis set group =>   2
Atom  56H    basis set group =>   2
Atom  57O    basis set group =>   1
Atom  58H    basis set group =>   2
Atom  59H    basis set group =>   2
------------------------------------------------------------------------------
                           ORCA GTO INTEGRAL CALCULATION
                           -- RI-GTO INTEGRALS CHOSEN --
------------------------------------------------------------------------------

                         BASIS SET STATISTICS AND STARTUP INFO

Gaussian basis set:
 # of primitive gaussian shells          ...  680
 # of primitive gaussian functions       ... 1320
 # of contracted shells                  ...  420
 # of contracted basis functions         ...  940
 Highest angular momentum                ...    3
 Maximum contraction depth               ...    6
Auxiliary gaussian basis set:
 # of primitive gaussian shells          ...  800
 # of primitive gaussian functions       ... 2040
 # of contracted shells                  ...  500
 # of contracted aux-basis functions     ... 1420
 Highest angular momentum                ...    4
 Maximum contraction depth               ...    7
Ratio of auxiliary to basis functions    ...  1.51
Integral package used                  ... LIBINT
 One Electron integrals                  ... done
 Ordering auxiliary basis shells         ... done
 Integral threshhold             Thresh  ...  2.500e-11
 Primitive cut-off               TCut    ...  2.500e-12
 Pre-screening matrix                    ... done
 Shell pair data                         ... 
 Ordering of the shell pairs             ... done (   0.010 sec) 62422 of 88410 pairs
 Determination of significant pairs      ... done (   0.000 sec)
 Creation of shell pair data             ... done (   0.014 sec)
 Storage of shell pair data              ... done (   0.008 sec)
 Shell pair data done in (   0.032 sec)
 Computing two index integrals           ... done
 Cholesky decomposition of the V-matrix  ... done


Timings:
 Total evaluation time                   ...   1.280 sec (  0.021 min)
 One electron matrix time                ...   0.507 sec (  0.008 min) = 39.6%
 Schwartz matrix evaluation time         ...   0.628 sec (  0.010 min) = 49.1%
 Two index repulsion integral time       ...   0.048 sec (  0.001 min) =  3.8%
 Cholesky decomposition of V             ...   0.050 sec (  0.001 min) =  3.9%
 Three index repulsion integral time     ...   0.000 sec (  0.000 min) =  0.0%

-------------------------------------------------------------------------------
                                 ORCA SCF
-------------------------------------------------------------------------------

------------
SCF SETTINGS
------------
Hamiltonian:
 Density Functional     Method          .... DFT(GTOs)
 Exchange Functional    Exchange        .... WB97X-D3
 Correlation Functional Correlation     .... WB97X-D3
 Gradients option       PostSCFGGA      .... off
 Hybrid DFT is turned on
   Fraction HF Exchange ScalHFX         ....  0.195728
   Scaling of DF-GGA-X  ScalDFX         ....  0.000000
   Scaling of DF-GGA-C  ScalDFC         ....  1.000000
   Scaling of DF-LDA-C  ScalLDAC        ....  1.000000
   Perturbative correction              ....  0.000000
 Long-range corrected/Screened/Range-Separated Hybrid DFT is turned on
   Amount of maximum screened exact exchange              ....  0.804272
   Range separation parameter mu (erf(mu*r12)/r12)        ....  0.250000
 RI-approximation to the Coulomb term is turned on
   Number of auxiliary basis functions  .... 1420
   RIJ-COSX (HFX calculated with COS-X)).... on


General Settings:
 Integral files         IntName         .... 4_wb98x-ma-def2-TZVP-GasPhase_onB3LYP_20_waters
 Hartree-Fock type      HFTyp           .... RHF
 Total Charge           Charge          ....    0
 Multiplicity           Mult            ....    1
 Number of Electrons    NEL             ....  200
 Basis Dimension        Dim             ....  940
 Nuclear Repulsion      ENuc            ....   2487.4435895616 Eh

Convergence Acceleration:
 DIIS                   CNVDIIS         .... on
   Start iteration      DIISMaxIt       ....    12
   Startup error        DIISStart       ....  0.200000
   # of expansion vecs  DIISMaxEq       ....     5
   Bias factor          DIISBfac        ....   1.050
   Max. coefficient     DIISMaxC        ....  10.000
 Newton-Raphson         CNVNR           .... off
 SOSCF                  CNVSOSCF        .... on
   Start iteration      SOSCFMaxIt      ....   150
   Startup grad/error   SOSCFStart      ....  0.003300
 Level Shifting         CNVShift        .... on
   Level shift para.    LevelShift      ....    0.2500
   Turn off err/grad.   ShiftErr        ....    0.0010
 Zerner damping         CNVZerner       .... off
 Static damping         CNVDamp         .... on
   Fraction old density DampFac         ....    0.7000
   Max. Damping (<1)    DampMax         ....    0.9800
   Min. Damping (>=0)   DampMin         ....    0.0000
   Turn off err/grad.   DampErr         ....    0.1000
 Fernandez-Rico         CNVRico         .... off

SCF Procedure:
 Maximum # iterations   MaxIter         ....   400
 SCF integral mode      SCFMode         .... Direct
   Integral package                     .... LIBINT
 Reset frequeny         DirectResetFreq ....    20
 Integral Threshold     Thresh          ....  2.500e-11 Eh
 Primitive CutOff       TCut            ....  2.500e-12 Eh

Convergence Tolerance:
 Convergence Check Mode ConvCheckMode   .... Total+1el-Energy
 Energy Change          TolE            ....  1.000e-08 Eh
 1-El. energy change                    ....  1.000e-05 Eh
 Orbital Gradient       TolG            ....  1.000e-05
 Orbital Rotation angle TolX            ....  1.000e-05
 DIIS Error             TolErr          ....  5.000e-07


Diagonalization of the overlap matrix:
Smallest eigenvalue                        ... 5.457e-05
Time for diagonalization                   ...    0.225 sec
Threshold for overlap eigenvalues          ... 1.000e-08
Number of eigenvalues below threshold      ... 0
Time for construction of square roots      ...    0.107 sec
Total time needed                          ...    0.335 sec

-------------------
DFT GRID GENERATION
-------------------

General Integration Accuracy     IntAcc      ...  4.670
Radial Grid Type                 RadialGrid  ... Gauss-Chebyshev
Angular Grid (max. acc.)         AngularGrid ... Lebedev-302
Angular grid pruning method      GridPruning ... 3 (G Style)
Weight generation scheme         WeightScheme... Becke
Basis function cutoff            BFCut       ...    1.0000e-11
Integration weight cutoff        WCut        ...    1.0000e-14
Grids for H and He will be reduced by one unit

# of grid points (after initial pruning)     ... 260000 (   0.2 sec)
# of grid points (after weights+screening)   ... 224236 (   3.9 sec)
nearest neighbour list constructed           ...    0.0 sec
Grid point re-assignment to atoms done       ...    0.0 sec
Grid point division into batches done        ...    0.5 sec
Reduced shell lists constructed in   11.0 sec

Total number of grid points                  ...   224236
Total number of batches                      ...     3534
Average number of points per batch           ...       63
Average number of grid points per atom       ...     3737
Average number of shells per batch           ...   174.13 (41.46%)
Average number of basis functions per batch  ...   329.98 (35.10%)
Average number of large shells per batch     ...   114.66 (65.85%)
Average number of large basis fcns per batch ...   217.36 (65.87%)
Maximum spatial batch extension              ...  18.25, 18.01, 18.20 au
Average spatial batch extension              ...   1.95,  1.94,  1.97 au

Time for grid setup =   15.209 sec

------------------------------
INITIAL GUESS: MODEL POTENTIAL
------------------------------
Loading Hartree-Fock densities                     ... done
Calculating cut-offs                               ... done
Setting up the integral package                    ... done
Initializing the effective Hamiltonian             ... done
Starting the Coulomb interaction                   ... done (   7.9 sec)
Reading the grid                                   ... done
Mapping shells                                     ... done
Starting the XC term evaluation                    ... done (  14.4 sec)
  promolecular density results
     # of electrons  =    199.980010418
     EX              =   -174.962922322
     EC              =     -6.599179112
     EX+EC           =   -181.562101435
Transforming the Hamiltonian                       ... done (   0.1 sec)
Diagonalizing the Hamiltonian                      ... done (   0.2 sec)
Back transforming the eigenvectors                 ... done (   0.0 sec)
Now organizing SCF variables                       ... done
                      ------------------
                      INITIAL GUESS DONE (  38.0 sec)
                      ------------------
--------------------
COSX GRID GENERATION
--------------------

General Integration Accuracy     IntAcc      ...  3.340
Radial Grid Type                 RadialGrid  ... Gauss-Chebyshev
Angular Grid (max. acc.)         AngularGrid ... Lebedev-50
Angular grid pruning method      GridPruning ... 3 (G Style)
Weight generation scheme         WeightScheme... Becke
Basis function cutoff            BFCut       ...    1.0000e-11
Integration weight cutoff        WCut        ...    1.0000e-14
Grids for H and He will be reduced by one unit

# of grid points (after initial pruning)     ...  24400 (   0.0 sec)
# of grid points (after weights+screening)   ...  21515 (   0.4 sec)
nearest neighbour list constructed           ...    0.0 sec
Grid point re-assignment to atoms done       ...    0.0 sec
Grid point division into batches done        ...    0.0 sec
Reduced shell lists constructed in    1.3 sec

Total number of grid points                  ...    21515
Total number of batches                      ...      364
Average number of points per batch           ...       59
Average number of grid points per atom       ...      359
Average number of shells per batch           ...   200.47 (47.73%)
Average number of basis functions per batch  ...   391.22 (41.62%)
Average number of large shells per batch     ...   134.44 (67.06%)
Average number of large basis fcns per batch ...   257.12 (65.72%)
Maximum spatial batch extension              ...  14.08, 16.92, 14.97 au
Average spatial batch extension              ...   4.01,  4.19,  4.12 au

Overlap Fitting                  UseSFitting ... on
Constructing numerical overlap ... done (      0.9 sec)
Inverting numerical overlap    ... done (      0.0 sec)
Obtaining analytic overlap     ... done (      0.0 sec)
Final contraction and storage  ... done (      0.1 sec)


General Integration Accuracy     IntAcc      ...  3.670
Radial Grid Type                 RadialGrid  ... Gauss-Chebyshev
Angular Grid (max. acc.)         AngularGrid ... Lebedev-50
Angular grid pruning method      GridPruning ... 3 (G Style)
Weight generation scheme         WeightScheme... Becke
Basis function cutoff            BFCut       ...    1.0000e-11
Integration weight cutoff        WCut        ...    1.0000e-14
Grids for H and He will be reduced by one unit

# of grid points (after initial pruning)     ...  32040 (   0.0 sec)
# of grid points (after weights+screening)   ...  28210 (   0.5 sec)
nearest neighbour list constructed           ...    0.0 sec
Grid point re-assignment to atoms done       ...    0.0 sec
Grid point division into batches done        ...    0.0 sec
Reduced shell lists constructed in    1.6 sec

Total number of grid points                  ...    28210
Total number of batches                      ...      470
Average number of points per batch           ...       60
Average number of grid points per atom       ...      470
Average number of shells per batch           ...   196.70 (46.83%)
Average number of basis functions per batch  ...   381.92 (40.63%)
Average number of large shells per batch     ...   131.19 (66.70%)
Average number of large basis fcns per batch ...   250.24 (65.52%)
Maximum spatial batch extension              ...  15.19, 18.42, 16.03 au
Average spatial batch extension              ...   3.82,  3.85,  3.75 au

Overlap Fitting                  UseSFitting ... on
Constructing numerical overlap ... done (      1.2 sec)
Inverting numerical overlap    ... done (      0.0 sec)
Obtaining analytic overlap     ... done (      0.0 sec)
Final contraction and storage  ... done (      0.1 sec)


General Integration Accuracy     IntAcc      ...  4.010
Radial Grid Type                 RadialGrid  ... Gauss-Chebyshev
Angular Grid (max. acc.)         AngularGrid ... Lebedev-110
Angular grid pruning method      GridPruning ... 3 (G Style)
Weight generation scheme         WeightScheme... Becke
Basis function cutoff            BFCut       ...    1.0000e-11
Integration weight cutoff        WCut        ...    1.0000e-14
Grids for H and He will be reduced by one unit

# of grid points (after initial pruning)     ...  55160 (   0.0 sec)
# of grid points (after weights+screening)   ...  48844 (   0.8 sec)
nearest neighbour list constructed           ...    0.0 sec
Grid point re-assignment to atoms done       ...    0.0 sec
Grid point division into batches done        ...    0.0 sec
Reduced shell lists constructed in    2.6 sec

Total number of grid points                  ...    48844
Total number of batches                      ...      793
Average number of points per batch           ...       61
Average number of grid points per atom       ...      814
Average number of shells per batch           ...   190.47 (45.35%)
Average number of basis functions per batch  ...   367.44 (39.09%)
Average number of large shells per batch     ...   126.95 (66.65%)
Average number of large basis fcns per batch ...   241.99 (65.86%)
Maximum spatial batch extension              ...  20.72, 18.22, 17.32 au
Average spatial batch extension              ...   3.30,  3.23,  3.29 au

Overlap Fitting                  UseSFitting ... on
Constructing numerical overlap ... done (      1.9 sec)
Inverting numerical overlap    ... done (      0.0 sec)
Obtaining analytic overlap     ... done (      0.0 sec)
Final contraction and storage  ... done (      0.1 sec)

Time for X-Grid setup             =   11.526 sec
--------------
SCF ITERATIONS
--------------
ITER       Energy         Delta-E        Max-DP      RMS-DP      [F,P]     Damp
               ***  Starting incremental Fock matrix formation  ***
  0  -1527.8347274586   0.000000000000 0.07277671  0.00066836  0.2868515 0.7000
  1  -1528.4132150471  -0.578487588505 0.05988276  0.00046547  0.1440935 0.7000
                               ***Turning on DIIS***
  2  -1528.6609962452  -0.247781198129 0.10312046  0.00078950  0.0572192 0.0000
  3  -1529.0458056440  -0.384809398837 0.03868586  0.00030032  0.0717647 0.0000
  4  -1529.1208295213  -0.075023877298 0.01091639  0.00006651  0.0096583 0.0000
                      *** Initiating the SOSCF procedure ***
                           *** Shutting down DIIS ***
                      *** Re-Reading the Fockian *** 
                      *** Removing any level shift *** 
ITER      Energy       Delta-E        Grad      Rot      Max-DP    RMS-DP
  5  -1529.12221472  -0.0013851965  0.000281  0.000281  0.003074  0.000022
               *** Restarting incremental Fock matrix formation ***
  6  -1529.12228889  -0.0000741751  0.000170  0.000182  0.001605  0.000020
  7  -1529.12229346  -0.0000045652  0.000147  0.000077  0.000410  0.000005
  8  -1529.12229901  -0.0000055551  0.000012  0.000013  0.000174  0.000002
  9  -1529.12229910  -0.0000000819  0.000011  0.000007  0.000038  0.000000
                  ***Gradient check signals convergence***
              ***Rediagonalizing the Fockian in SOSCF/NRSCF***

               *****************************************************
               *                     SUCCESS                       *
               *           SCF CONVERGED AFTER  10 CYCLES          *
               *****************************************************

Setting up the final grid:

General Integration Accuracy     IntAcc      ...  5.010
Radial Grid Type                 RadialGrid  ... Gauss-Chebyshev
Angular Grid (max. acc.)         AngularGrid ... Lebedev-434
Angular grid pruning method      GridPruning ... 3 (G Style)
Weight generation scheme         WeightScheme... Becke
Basis function cutoff            BFCut       ...    1.0000e-11
Integration weight cutoff        WCut        ...    1.0000e-14
Grids for H and He will be reduced by one unit

# of grid points (after initial pruning)     ... 484520 (   0.4 sec)
# of grid points (after weights+screening)   ... 416425 (   6.9 sec)
nearest neighbour list constructed           ...    0.0 sec
Grid point re-assignment to atoms done       ...    0.1 sec
Grid point division into batches done        ...    1.7 sec
Reduced shell lists constructed in   19.4 sec

Total number of grid points                  ...   416425
Total number of batches                      ...     6537
Average number of points per batch           ...       63
Average number of grid points per atom       ...     6940
Average number of shells per batch           ...   169.48 (40.35%)
Average number of basis functions per batch  ...   319.22 (33.96%)
Average number of large shells per batch     ...   111.41 (65.74%)
Average number of large basis fcns per batch ...   210.93 (66.08%)
Maximum spatial batch extension              ...  18.82, 18.33, 18.51 au
Average spatial batch extension              ...   1.56,  1.55,  1.57 au

Final grid set up in   26.7 sec
Final integration                            ... done (  27.2 sec)
Change in XC energy                          ...    -0.002096819
Integrated number of electrons               ...   200.000057861
Previous integrated no of electrons          ...   199.999631504
Old exchange energy                            =    -56.616382466 Eh
New exchange energy                            =    -56.614821658 Eh
Exchange energy change after final integration =      0.001560808 Eh
Total energy after final integration           =  -1529.122835206 Eh
Final COS-X integration done in                =   415.249 sec

----------------
TOTAL SCF ENERGY
----------------

Total Energy       :        -1529.12283521 Eh          -41609.54773 eV

Components:
Nuclear Repulsion  :         2487.44358956 Eh           67686.78120 eV
Electronic Energy  :        -4016.56642477 Eh         -109296.32894 eV

One Electron Energy:        -7067.94243958 Eh         -192328.49157 eV
Two Electron Energy:         3051.37601481 Eh           83032.16264 eV

Virial components:
Potential Energy   :        -3051.98157210 Eh          -83048.64069 eV
Kinetic Energy     :         1522.85873689 Eh           41439.09295 eV
Virial Ratio       :            2.00411338


DFT components:
N(Alpha)           :      100.000028930725 electrons
N(Beta)            :      100.000028930725 electrons
N(Total)           :      200.000057861451 electrons
E(XC)              :     -129.994756787454 Eh       

---------------
SCF CONVERGENCE
---------------

  Last Energy change         ...   -1.0029e-07  Tolerance :   1.0000e-08
  Last MAX-Density change    ...    1.4752e-14  Tolerance :   1.0000e-07
  Last RMS-Density change    ...    1.7090e-16  Tolerance :   5.0000e-09
  Last Orbital Gradient      ...    1.1056e-06  Tolerance :   1.0000e-05
  Last Orbital Rotation      ...    1.5508e-06  Tolerance :   1.0000e-05

             **** THE GBW FILE WAS UPDATED (4_wb98x-ma-def2-TZVP-GasPhase_onB3LYP_20_waters.gbw) ****
             **** DENSITY FILE WAS UPDATED (4_wb98x-ma-def2-TZVP-GasPhase_onB3LYP_20_waters.scfp.tmp) ****
             **** ENERGY FILE WAS UPDATED (4_wb98x-ma-def2-TZVP-GasPhase_onB3LYP_20_waters.en.tmp) ****
----------------
ORBITAL ENERGIES
----------------

  NO   OCC          E(Eh)            E(eV) 
   0   2.0000     -19.261792      -524.1400 
   1   2.0000     -19.256634      -523.9997 
   2   2.0000     -19.256314      -523.9909 
   3   2.0000     -19.250524      -523.8334 
   4   2.0000     -19.250140      -523.8230 
   5   2.0000     -19.250088      -523.8215 
   6   2.0000     -19.245596      -523.6993 
   7   2.0000     -19.242258      -523.6085 
   8   2.0000     -19.240131      -523.5506 
   9   2.0000     -19.239943      -523.5455 
  10   2.0000     -19.239786      -523.5412 
  11   2.0000     -19.239274      -523.5272 
  12   2.0000     -19.235986      -523.4378 
  13   2.0000     -19.229777      -523.2688 
  14   2.0000     -19.229218      -523.2536 
  15   2.0000     -19.228614      -523.2372 
  16   2.0000     -19.224942      -523.1373 
  17   2.0000     -19.221566      -523.0454 
  18   2.0000     -19.216764      -522.9147 
  19   2.0000     -19.212896      -522.8095 
  20   2.0000      -1.162869       -31.6433 
  21   2.0000      -1.155846       -31.4522 
  22   2.0000      -1.152373       -31.3577 
  23   2.0000      -1.151976       -31.3469 
  24   2.0000      -1.146703       -31.2034 
  25   2.0000      -1.145671       -31.1753 
  26   2.0000      -1.142297       -31.0835 
  27   2.0000      -1.139397       -31.0046 
  28   2.0000      -1.133512       -30.8444 
  29   2.0000      -1.129826       -30.7441 
  30   2.0000      -1.126651       -30.6577 
  31   2.0000      -1.125300       -30.6210 
  32   2.0000      -1.119067       -30.4514 
  33   2.0000      -1.114873       -30.3372 
  34   2.0000      -1.113565       -30.3016 
  35   2.0000      -1.110261       -30.2117 
  36   2.0000      -1.108897       -30.1746 
  37   2.0000      -1.105564       -30.0839 
  38   2.0000      -1.099463       -29.9179 
  39   2.0000      -1.093122       -29.7454 
  40   2.0000      -0.673179       -18.3181 
  41   2.0000      -0.666907       -18.1475 
  42   2.0000      -0.661261       -17.9938 
  43   2.0000      -0.660507       -17.9733 
  44   2.0000      -0.658170       -17.9097 
  45   2.0000      -0.656494       -17.8641 
  46   2.0000      -0.652747       -17.7622 
  47   2.0000      -0.649873       -17.6840 
  48   2.0000      -0.647900       -17.6303 
  49   2.0000      -0.645529       -17.5657 
  50   2.0000      -0.643793       -17.5185 
  51   2.0000      -0.639922       -17.4132 
  52   2.0000      -0.634902       -17.2766 
  53   2.0000      -0.632201       -17.2031 
  54   2.0000      -0.627430       -17.0732 
  55   2.0000      -0.627070       -17.0635 
  56   2.0000      -0.625849       -17.0302 
  57   2.0000      -0.622331       -16.9345 
  58   2.0000      -0.619572       -16.8594 
  59   2.0000      -0.611581       -16.6420 
  60   2.0000      -0.575983       -15.6733 
  61   2.0000      -0.566298       -15.4098 
  62   2.0000      -0.562711       -15.3121 
  63   2.0000      -0.553161       -15.0523 
  64   2.0000      -0.548658       -14.9297 
  65   2.0000      -0.542006       -14.7487 
  66   2.0000      -0.529418       -14.4062 
  67   2.0000      -0.528917       -14.3926 
  68   2.0000      -0.520491       -14.1633 
  69   2.0000      -0.512826       -13.9547 
  70   2.0000      -0.504473       -13.7274 
  71   2.0000      -0.500746       -13.6260 
  72   2.0000      -0.498194       -13.5565 
  73   2.0000      -0.492257       -13.3950 
  74   2.0000      -0.490275       -13.3411 
  75   2.0000      -0.482992       -13.1429 
  76   2.0000      -0.475751       -12.9458 
  77   2.0000      -0.472812       -12.8659 
  78   2.0000      -0.469744       -12.7824 
  79   2.0000      -0.453922       -12.3519 
  80   2.0000      -0.445598       -12.1253 
  81   2.0000      -0.442280       -12.0350 
  82   2.0000      -0.438482       -11.9317 
  83   2.0000      -0.436684       -11.8828 
  84   2.0000      -0.434822       -11.8321 
  85   2.0000      -0.434081       -11.8119 
  86   2.0000      -0.431961       -11.7543 
  87   2.0000      -0.430873       -11.7247 
  88   2.0000      -0.429622       -11.6906 
  89   2.0000      -0.427289       -11.6271 
  90   2.0000      -0.426279       -11.5996 
  91   2.0000      -0.425202       -11.5703 
  92   2.0000      -0.420344       -11.4381 
  93   2.0000      -0.418068       -11.3762 
  94   2.0000      -0.416582       -11.3358 
  95   2.0000      -0.415334       -11.3018 
  96   2.0000      -0.407443       -11.0871 
  97   2.0000      -0.405365       -11.0305 
  98   2.0000      -0.403918       -10.9912 
  99   2.0000      -0.393493       -10.7075 
 100   0.0000       0.045327         1.2334 
 101   0.0000       0.061372         1.6700 
 102   0.0000       0.066447         1.8081 
 103   0.0000       0.069135         1.8813 
 104   0.0000       0.081507         2.2179 
 105   0.0000       0.084573         2.3013 
 106   0.0000       0.088632         2.4118 
 107   0.0000       0.110714         3.0127 
 108   0.0000       0.115476         3.1423 
 109   0.0000       0.120218         3.2713 
 110   0.0000       0.124206         3.3798 
 111   0.0000       0.130709         3.5568 
 112   0.0000       0.132408         3.6030 
 113   0.0000       0.135725         3.6933 
 114   0.0000       0.138620         3.7720 
 115   0.0000       0.141792         3.8584 
 116   0.0000       0.142920         3.8891 
 117   0.0000       0.154992         4.2175 
 118   0.0000       0.156966         4.2713 
 119   0.0000       0.159106         4.3295 
 120   0.0000       0.163740         4.4556 
 121   0.0000       0.167833         4.5670 
 122   0.0000       0.171430         4.6648 
 123   0.0000       0.174818         4.7570 
 124   0.0000       0.176802         4.8110 
 125   0.0000       0.180790         4.9196 
 126   0.0000       0.182117         4.9557 
 127   0.0000       0.184111         5.0099 
 128   0.0000       0.186449         5.0735 
 129   0.0000       0.194658         5.2969 
 130   0.0000       0.199137         5.4188 
 131   0.0000       0.202021         5.4973 
 132   0.0000       0.207250         5.6396 
 133   0.0000       0.208173         5.6647 
 134   0.0000       0.211317         5.7502 
 135   0.0000       0.212842         5.7917 
 136   0.0000       0.213253         5.8029 
 137   0.0000       0.219092         5.9618 
 138   0.0000       0.221903         6.0383 
 139   0.0000       0.223430         6.0798 
 140   0.0000       0.226801         6.1716 
 141   0.0000       0.227570         6.1925 
 142   0.0000       0.233989         6.3672 
 143   0.0000       0.235886         6.4188 
 144   0.0000       0.236889         6.4461 
 145   0.0000       0.244991         6.6665 
 146   0.0000       0.245875         6.6906 
 147   0.0000       0.249208         6.7813 
 148   0.0000       0.252892         6.8815 
 149   0.0000       0.254085         6.9140 
 150   0.0000       0.256835         6.9888 
 151   0.0000       0.259414         7.0590 
 152   0.0000       0.264015         7.1842 
 153   0.0000       0.265707         7.2302 
 154   0.0000       0.267266         7.2727 
 155   0.0000       0.268467         7.3054 
 156   0.0000       0.273582         7.4445 
 157   0.0000       0.275384         7.4936 
 158   0.0000       0.277643         7.5551 
 159   0.0000       0.283022         7.7014 
 160   0.0000       0.285833         7.7779 
 161   0.0000       0.287672         7.8280 
 162   0.0000       0.289295         7.8721 
 163   0.0000       0.291706         7.9377 
 164   0.0000       0.296665         8.0727 
 165   0.0000       0.298411         8.1202 
 166   0.0000       0.300021         8.1640 
 167   0.0000       0.304462         8.2848 
 168   0.0000       0.306031         8.3275 
 169   0.0000       0.307018         8.3544 
 170   0.0000       0.314320         8.5531 
 171   0.0000       0.316612         8.6154 
 172   0.0000       0.319056         8.6819 
 173   0.0000       0.321416         8.7462 
 174   0.0000       0.324830         8.8391 
 175   0.0000       0.327355         8.9078 
 176   0.0000       0.329904         8.9771 
 177   0.0000       0.333432         9.0731 
 178   0.0000       0.338318         9.2061 
 179   0.0000       0.341396         9.2898 
 180   0.0000       0.345150         9.3920 
 181   0.0000       0.347268         9.4496 
 182   0.0000       0.348340         9.4788 
 183   0.0000       0.353092         9.6081 
 184   0.0000       0.359011         9.7692 
 185   0.0000       0.363238         9.8842 
 186   0.0000       0.365963         9.9584 
 187   0.0000       0.369568        10.0565 
 188   0.0000       0.373309        10.1582 
 189   0.0000       0.374252        10.1839 
 190   0.0000       0.377791        10.2802 
 191   0.0000       0.379694        10.3320 
 192   0.0000       0.385033        10.4773 
 193   0.0000       0.386461        10.5161 
 194   0.0000       0.390097        10.6151 
 195   0.0000       0.392494        10.6803 
 196   0.0000       0.397192        10.8082 
 197   0.0000       0.400881        10.9085 
 198   0.0000       0.403826        10.9887 
 199   0.0000       0.405462        11.0332 
 200   0.0000       0.410973        11.1831 
 201   0.0000       0.411855        11.2071 
 202   0.0000       0.414397        11.2763 
 203   0.0000       0.417759        11.3678 
 204   0.0000       0.422981        11.5099 
 205   0.0000       0.426603        11.6085 
 206   0.0000       0.428305        11.6548 
 207   0.0000       0.437825        11.9138 
 208   0.0000       0.438750        11.9390 
 209   0.0000       0.440869        11.9966 
 210   0.0000       0.445071        12.1110 
 211   0.0000       0.446929        12.1616 
 212   0.0000       0.453129        12.3303 
 213   0.0000       0.457102        12.4384 
 214   0.0000       0.464934        12.6515 
 215   0.0000       0.468000        12.7349 
 216   0.0000       0.475742        12.9456 
 217   0.0000       0.480801        13.0833 
 218   0.0000       0.489327        13.3153 
 219   0.0000       0.506524        13.7832 
 220   0.0000       0.509186        13.8557 
 221   0.0000       0.518672        14.1138 
 222   0.0000       0.527922        14.3655 
 223   0.0000       0.536259        14.5923 
 224   0.0000       0.541707        14.7406 
 225   0.0000       0.548989        14.9388 
 226   0.0000       0.553884        15.0719 
 227   0.0000       0.559757        15.2318 
 228   0.0000       0.561621        15.2825 
 229   0.0000       0.563817        15.3422 
 230   0.0000       0.576870        15.6974 
 231   0.0000       0.581680        15.8283 
 232   0.0000       0.582756        15.8576 
 233   0.0000       0.586370        15.9559 
 234   0.0000       0.592952        16.1350 
 235   0.0000       0.599574        16.3152 
 236   0.0000       0.606996        16.5172 
 237   0.0000       0.612625        16.6704 
 238   0.0000       0.617212        16.7952 
 239   0.0000       0.620846        16.8941 
 240   0.0000       0.625452        17.0194 
 241   0.0000       0.634424        17.2635 
 242   0.0000       0.640581        17.4311 
 243   0.0000       0.645000        17.5513 
 244   0.0000       0.656499        17.8643 
 245   0.0000       0.661485        17.9999 
 246   0.0000       0.666547        18.1377 
 247   0.0000       0.669426        18.2160 
 248   0.0000       0.676106        18.3978 
 249   0.0000       0.682365        18.5681 
 250   0.0000       0.684203        18.6181 
 251   0.0000       0.690652        18.7936 
 252   0.0000       0.699330        19.0297 
 253   0.0000       0.700302        19.0562 
 254   0.0000       0.704887        19.1810 
 255   0.0000       0.708247        19.2724 
 256   0.0000       0.712677        19.3929 
 257   0.0000       0.718076        19.5398 
 258   0.0000       0.722237        19.6531 
 259   0.0000       0.725210        19.7340 
 260   0.0000       0.727822        19.8050 
 261   0.0000       0.730481        19.8774 
 262   0.0000       0.736586        20.0435 
 263   0.0000       0.741960        20.1898 
 264   0.0000       0.749290        20.3892 
 265   0.0000       0.751272        20.4432 
 266   0.0000       0.758441        20.6382 
 267   0.0000       0.761759        20.7285 
 268   0.0000       0.765278        20.8243 
 269   0.0000       0.769745        20.9458 
 270   0.0000       0.771676        20.9984 
 271   0.0000       0.775687        21.1075 
 272   0.0000       0.781448        21.2643 
 273   0.0000       0.791992        21.5512 
 274   0.0000       0.799389        21.7525 
 275   0.0000       0.802763        21.8443 
 276   0.0000       0.804668        21.8961 
 277   0.0000       0.807389        21.9702 
 278   0.0000       0.811040        22.0695 
 279   0.0000       0.816396        22.2153 
 280   0.0000       0.824058        22.4238 
 281   0.0000       0.832764        22.6607 
 282   0.0000       0.837851        22.7991 
 283   0.0000       0.840649        22.8752 
 284   0.0000       0.843882        22.9632 
 285   0.0000       0.850202        23.1352 
 286   0.0000       0.854651        23.2562 
 287   0.0000       0.858488        23.3606 
 288   0.0000       0.866120        23.5683 
 289   0.0000       0.867641        23.6097 
 290   0.0000       0.875257        23.8169 
 291   0.0000       0.877310        23.8728 
 292   0.0000       0.882739        24.0205 
 293   0.0000       0.887847        24.1595 
 294   0.0000       0.895371        24.3643 
 295   0.0000       0.904045        24.6003 
 296   0.0000       0.904302        24.6073 
 297   0.0000       0.911486        24.8028 
 298   0.0000       0.915302        24.9066 
 299   0.0000       0.917618        24.9696 
 300   0.0000       0.924226        25.1495 
 301   0.0000       0.927511        25.2389 
 302   0.0000       0.934124        25.4188 
 303   0.0000       0.937946        25.5228 
 304   0.0000       0.941670        25.6241 
 305   0.0000       0.949269        25.8309 
 306   0.0000       0.950607        25.8673 
 307   0.0000       0.958347        26.0779 
 308   0.0000       0.959874        26.1195 
 309   0.0000       0.963120        26.2078 
 310   0.0000       0.967059        26.3150 
 311   0.0000       0.977591        26.6016 
 312   0.0000       0.984763        26.7968 
 313   0.0000       0.996600        27.1189 
 314   0.0000       1.003840        27.3159 
 315   0.0000       1.008282        27.4367 
 316   0.0000       1.016173        27.6515 
 317   0.0000       1.023120        27.8405 
 318   0.0000       1.028188        27.9784 
 319   0.0000       1.032692        28.1010 
 320   0.0000       1.039701        28.2917 
 321   0.0000       1.044560        28.4239 
 322   0.0000       1.054015        28.6812 
 323   0.0000       1.061510        28.8851 
 324   0.0000       1.070433        29.1280 
 325   0.0000       1.075054        29.2537 
 326   0.0000       1.079862        29.3845 
 327   0.0000       1.087505        29.5925 
 328   0.0000       1.094374        29.7794 
 329   0.0000       1.102613        30.0036 
 330   0.0000       1.112060        30.2607 
 331   0.0000       1.121025        30.5046 
 332   0.0000       1.132559        30.8185 
 333   0.0000       1.147956        31.2375 
 334   0.0000       1.150989        31.3200 
 335   0.0000       1.173105        31.9218 
 336   0.0000       1.184285        32.2260 
 337   0.0000       1.215673        33.0801 
 338   0.0000       1.230738        33.4901 
 339   0.0000       1.250673        34.0325 
 340   0.0000       1.262718        34.3603 
 341   0.0000       1.277293        34.7569 
 342   0.0000       1.282977        34.9116 
 343   0.0000       1.285671        34.9849 
 344   0.0000       1.291667        35.1480 
 345   0.0000       1.297223        35.2992 
 346   0.0000       1.308810        35.6145 
 347   0.0000       1.309205        35.6253 
 348   0.0000       1.314443        35.7678 
 349   0.0000       1.320437        35.9309 
 350   0.0000       1.325711        36.0744 
 351   0.0000       1.333931        36.2981 
 352   0.0000       1.336100        36.3571 
 353   0.0000       1.342106        36.5206 
 354   0.0000       1.349954        36.7341 
 355   0.0000       1.355649        36.8891 
 356   0.0000       1.357570        36.9414 
 357   0.0000       1.365710        37.1629 
 358   0.0000       1.370706        37.2988 
 359   0.0000       1.374333        37.3975 
 360   0.0000       1.379040        37.5256 
 361   0.0000       1.386734        37.7350 
 362   0.0000       1.388289        37.7773 
 363   0.0000       1.397149        38.0183 
 364   0.0000       1.401738        38.1432 
 365   0.0000       1.403961        38.2037 
 366   0.0000       1.410373        38.3782 
 367   0.0000       1.413771        38.4707 
 368   0.0000       1.418433        38.5975 
 369   0.0000       1.422556        38.7097 
 370   0.0000       1.427030        38.8315 
 371   0.0000       1.428992        38.8849 
 372   0.0000       1.435439        39.0603 
 373   0.0000       1.444114        39.2963 
 374   0.0000       1.450601        39.4729 
 375   0.0000       1.451541        39.4984 
 376   0.0000       1.457623        39.6640 
 377   0.0000       1.463188        39.8154 
 378   0.0000       1.471603        40.0444 
 379   0.0000       1.474325        40.1184 
 380   0.0000       1.482350        40.3368 
 381   0.0000       1.482773        40.3483 
 382   0.0000       1.487357        40.4730 
 383   0.0000       1.500760        40.8377 
 384   0.0000       1.505001        40.9532 
 385   0.0000       1.513425        41.1824 
 386   0.0000       1.515579        41.2410 
 387   0.0000       1.523091        41.4454 
 388   0.0000       1.527753        41.5723 
 389   0.0000       1.533682        41.7336 
 390   0.0000       1.550623        42.1946 
 391   0.0000       1.563448        42.5436 
 392   0.0000       1.568155        42.6717 
 393   0.0000       1.570072        42.7238 
 394   0.0000       1.579099        42.9695 
 395   0.0000       1.582229        43.0547 
 396   0.0000       1.592537        43.3351 
 397   0.0000       1.601251        43.5723 
 398   0.0000       1.623820        44.1864 
 399   0.0000       1.634226        44.4696 
 400   0.0000       1.757726        47.8302 
 401   0.0000       1.759261        47.8719 
 402   0.0000       1.780474        48.4492 
 403   0.0000       1.782612        48.5073 
 404   0.0000       1.791328        48.7445 
 405   0.0000       1.798613        48.9427 
 406   0.0000       1.804904        49.1139 
 407   0.0000       1.808257        49.2052 
 408   0.0000       1.811801        49.3016 
 409   0.0000       1.819681        49.5160 
 410   0.0000       1.822849        49.6022 
 411   0.0000       1.826568        49.7034 
 412   0.0000       1.834817        49.9279 
 413   0.0000       1.839953        50.0677 
 414   0.0000       1.847050        50.2608 
 415   0.0000       1.847876        50.2833 
 416   0.0000       1.855483        50.4903 
 417   0.0000       1.860486        50.6264 
 418   0.0000       1.862840        50.6904 
 419   0.0000       1.871106        50.9154 
 420   0.0000       1.878942        51.1286 
 421   0.0000       1.884902        51.2908 
 422   0.0000       1.886757        51.3413 
 423   0.0000       1.890020        51.4301 
 424   0.0000       1.900783        51.7229 
 425   0.0000       1.905685        51.8563 
 426   0.0000       1.908905        51.9440 
 427   0.0000       1.914843        52.1055 
 428   0.0000       1.920584        52.2617 
 429   0.0000       1.930805        52.5399 
 430   0.0000       1.939463        52.7755 
 431   0.0000       1.948038        53.0088 
 432   0.0000       1.958157        53.2842 
 433   0.0000       1.961825        53.3840 
 434   0.0000       1.966549        53.5125 
 435   0.0000       1.973172        53.6927 
 436   0.0000       1.978655        53.8419 
 437   0.0000       1.980639        53.8959 
 438   0.0000       1.996808        54.3359 
 439   0.0000       2.002906        54.5018 
 440   0.0000       2.008717        54.6600 
 441   0.0000       2.010489        54.7082 
 442   0.0000       2.015575        54.8466 
 443   0.0000       2.028717        55.2042 
 444   0.0000       2.033616        55.3375 
 445   0.0000       2.044138        55.6238 
 446   0.0000       2.056539        55.9613 
 447   0.0000       2.058998        56.0282 
 448   0.0000       2.064826        56.1868 
 449   0.0000       2.075804        56.4855 
 450   0.0000       2.077162        56.5225 
 451   0.0000       2.088787        56.8388 
 452   0.0000       2.092732        56.9461 
 453   0.0000       2.100143        57.1478 
 454   0.0000       2.109116        57.3920 
 455   0.0000       2.109453        57.4011 
 456   0.0000       2.115234        57.5584 
 457   0.0000       2.121051        57.7167 
 458   0.0000       2.122585        57.7585 
 459   0.0000       2.137443        58.1628 
 460   0.0000       2.143362        58.3238 
 461   0.0000       2.148443        58.4621 
 462   0.0000       2.151114        58.5348 
 463   0.0000       2.164428        58.8971 
 464   0.0000       2.168531        59.0087 
 465   0.0000       2.176198        59.2173 
 466   0.0000       2.178681        59.2849 
 467   0.0000       2.185458        59.4693 
 468   0.0000       2.201808        59.9142 
 469   0.0000       2.203821        59.9690 
 470   0.0000       2.205194        60.0064 
 471   0.0000       2.218829        60.3774 
 472   0.0000       2.230029        60.6822 
 473   0.0000       2.234260        60.7973 
 474   0.0000       2.236136        60.8483 
 475   0.0000       2.243198        61.0405 
 476   0.0000       2.258467        61.4560 
 477   0.0000       2.264599        61.6229 
 478   0.0000       2.270014        61.7702 
 479   0.0000       2.278522        62.0017 
 480   0.0000       2.282808        62.1184 
 481   0.0000       2.289312        62.2953 
 482   0.0000       2.292496        62.3820 
 483   0.0000       2.298496        62.5452 
 484   0.0000       2.300666        62.6043 
 485   0.0000       2.313317        62.9486 
 486   0.0000       2.314990        62.9941 
 487   0.0000       2.322173        63.1895 
 488   0.0000       2.328564        63.3635 
 489   0.0000       2.337463        63.6056 
 490   0.0000       2.348659        63.9103 
 491   0.0000       2.357160        64.1416 
 492   0.0000       2.361301        64.2543 
 493   0.0000       2.368443        64.4486 
 494   0.0000       2.376452        64.6665 
 495   0.0000       2.382809        64.8395 
 496   0.0000       2.390416        65.0465 
 497   0.0000       2.397188        65.2308 
 498   0.0000       2.404971        65.4426 
 499   0.0000       2.413692        65.6799 
 500   0.0000       2.423406        65.9442 
 501   0.0000       2.429527        66.1108 
 502   0.0000       2.437574        66.3298 
 503   0.0000       2.445420        66.5432 
 504   0.0000       2.447016        66.5867 
 505   0.0000       2.459766        66.9336 
 506   0.0000       2.460867        66.9636 
 507   0.0000       2.463304        67.0299 
 508   0.0000       2.470387        67.2226 
 509   0.0000       2.478161        67.4342 
 510   0.0000       2.489176        67.7339 
 511   0.0000       2.492814        67.8329 
 512   0.0000       2.500355        68.0381 
 513   0.0000       2.505813        68.1866 
 514   0.0000       2.507652        68.2367 
 515   0.0000       2.508155        68.2504 
 516   0.0000       2.518613        68.5349 
 517   0.0000       2.523064        68.6561 
 518   0.0000       2.528982        68.8171 
 519   0.0000       2.536404        69.0191 
 520   0.0000       2.542361        69.1812 
 521   0.0000       2.546886        69.3043 
 522   0.0000       2.555628        69.5422 
 523   0.0000       2.562586        69.7315 
 524   0.0000       2.566063        69.8261 
 525   0.0000       2.573411        70.0261 
 526   0.0000       2.573965        70.0412 
 527   0.0000       2.580088        70.2078 
 528   0.0000       2.585970        70.3678 
 529   0.0000       2.589495        70.4637 
 530   0.0000       2.592026        70.5326 
 531   0.0000       2.598899        70.7196 
 532   0.0000       2.602358        70.8138 
 533   0.0000       2.608570        70.9828 
 534   0.0000       2.616363        71.1949 
 535   0.0000       2.618420        71.2508 
 536   0.0000       2.627945        71.5100 
 537   0.0000       2.629051        71.5401 
 538   0.0000       2.636523        71.7434 
 539   0.0000       2.643232        71.9260 
 540   0.0000       2.644340        71.9562 
 541   0.0000       2.648317        72.0644 
 542   0.0000       2.654956        72.2450 
 543   0.0000       2.658610        72.3445 
 544   0.0000       2.663951        72.4898 
 545   0.0000       2.670745        72.6747 
 546   0.0000       2.674716        72.7827 
 547   0.0000       2.687504        73.1307 
 548   0.0000       2.695872        73.3584 
 549   0.0000       2.705073        73.6088 
 550   0.0000       2.708652        73.7062 
 551   0.0000       2.715266        73.8861 
 552   0.0000       2.718951        73.9864 
 553   0.0000       2.724121        74.1271 
 554   0.0000       2.734047        74.3972 
 555   0.0000       2.741166        74.5909 
 556   0.0000       2.742174        74.6183 
 557   0.0000       2.757463        75.0344 
 558   0.0000       2.762388        75.1684 
 559   0.0000       2.770348        75.3850 
 560   0.0000       2.772275        75.4375 
 561   0.0000       2.775798        75.5333 
 562   0.0000       2.777628        75.5831 
 563   0.0000       2.785197        75.7891 
 564   0.0000       2.790960        75.9459 
 565   0.0000       2.793894        76.0257 
 566   0.0000       2.806852        76.3783 
 567   0.0000       2.810972        76.4904 
 568   0.0000       2.815906        76.6247 
 569   0.0000       2.822639        76.8079 
 570   0.0000       2.824511        76.8588 
 571   0.0000       2.828041        76.9549 
 572   0.0000       2.835771        77.1652 
 573   0.0000       2.842007        77.3349 
 574   0.0000       2.846566        77.4590 
 575   0.0000       2.853279        77.6417 
 576   0.0000       2.856823        77.7381 
 577   0.0000       2.866964        78.0141 
 578   0.0000       2.874982        78.2322 
 579   0.0000       2.876546        78.2748 
 580   0.0000       2.886410        78.5432 
 581   0.0000       2.894371        78.7598 
 582   0.0000       2.899336        78.8949 
 583   0.0000       2.908672        79.1490 
 584   0.0000       2.915710        79.3405 
 585   0.0000       2.919341        79.4393 
 586   0.0000       2.924136        79.5698 
 587   0.0000       2.928761        79.6956 
 588   0.0000       2.935528        79.8798 
 589   0.0000       2.945193        80.1428 
 590   0.0000       2.953004        80.3553 
 591   0.0000       2.967999        80.7633 
 592   0.0000       2.977062        81.0100 
 593   0.0000       2.979257        81.0697 
 594   0.0000       2.986522        81.2674 
 595   0.0000       2.990285        81.3698 
 596   0.0000       3.001531        81.6758 
 597   0.0000       3.018810        82.1460 
 598   0.0000       3.020521        82.1925 
 599   0.0000       3.025809        82.3365 
 600   0.0000       3.033895        82.5565 
 601   0.0000       3.044303        82.8397 
 602   0.0000       3.052589        83.0652 
 603   0.0000       3.057075        83.1872 
 604   0.0000       3.067203        83.4628 
 605   0.0000       3.087769        84.0225 
 606   0.0000       3.092782        84.1589 
 607   0.0000       3.098692        84.3197 
 608   0.0000       3.107710        84.5651 
 609   0.0000       3.122761        84.9746 
 610   0.0000       3.136456        85.3473 
 611   0.0000       3.140750        85.4642 
 612   0.0000       3.156928        85.9044 
 613   0.0000       3.169939        86.2584 
 614   0.0000       3.180752        86.5527 
 615   0.0000       3.189513        86.7910 
 616   0.0000       3.198811        87.0441 
 617   0.0000       3.213051        87.4316 
 618   0.0000       3.216885        87.5359 
 619   0.0000       3.226310        87.7924 
 620   0.0000       3.229576        87.8812 
 621   0.0000       3.244399        88.2846 
 622   0.0000       3.252073        88.4934 
 623   0.0000       3.260069        88.7110 
 624   0.0000       3.276929        89.1698 
 625   0.0000       3.287068        89.4457 
 626   0.0000       3.289696        89.5172 
 627   0.0000       3.294363        89.6442 
 628   0.0000       3.305668        89.9518 
 629   0.0000       3.316034        90.2339 
 630   0.0000       3.325528        90.4922 
 631   0.0000       3.356138        91.3252 
 632   0.0000       3.371204        91.7351 
 633   0.0000       3.383587        92.0721 
 634   0.0000       3.398561        92.4796 
 635   0.0000       3.418557        93.0237 
 636   0.0000       3.440736        93.6272 
 637   0.0000       3.463797        94.2547 
 638   0.0000       3.511635        95.5564 
 639   0.0000       3.609000        98.2059 
 640   0.0000       3.865862       105.1955 
 641   0.0000       3.899356       106.1069 
 642   0.0000       3.900561       106.1397 
 643   0.0000       3.916859       106.5831 
 644   0.0000       3.920289       106.6765 
 645   0.0000       3.925476       106.8176 
 646   0.0000       3.929060       106.9152 
 647   0.0000       3.933290       107.0302 
 648   0.0000       3.939730       107.2055 
 649   0.0000       3.950106       107.4879 
 650   0.0000       3.962472       107.8243 
 651   0.0000       3.976404       108.2035 
 652   0.0000       3.989606       108.5627 
 653   0.0000       3.996604       108.7531 
 654   0.0000       3.999218       108.8243 
 655   0.0000       4.015134       109.2573 
 656   0.0000       4.030661       109.6799 
 657   0.0000       4.041523       109.9754 
 658   0.0000       4.051029       110.2341 
 659   0.0000       4.059215       110.4569 
 660   0.0000       4.063453       110.5722 
 661   0.0000       4.073240       110.8385 
 662   0.0000       4.079946       111.0210 
 663   0.0000       4.089841       111.2902 
 664   0.0000       4.096963       111.4840 
 665   0.0000       4.100251       111.5735 
 666   0.0000       4.116545       112.0169 
 667   0.0000       4.125426       112.2585 
 668   0.0000       4.130234       112.3894 
 669   0.0000       4.131697       112.4292 
 670   0.0000       4.136003       112.5464 
 671   0.0000       4.150019       112.9278 
 672   0.0000       4.158044       113.1461 
 673   0.0000       4.167927       113.4151 
 674   0.0000       4.172682       113.5445 
 675   0.0000       4.188865       113.9848 
 676   0.0000       4.196386       114.1895 
 677   0.0000       4.210571       114.5755 
 678   0.0000       4.220532       114.8465 
 679   0.0000       4.280040       116.4658 
 680   0.0000       5.179730       140.9476 
 681   0.0000       5.182182       141.0143 
 682   0.0000       5.185045       141.0923 
 683   0.0000       5.186901       141.1428 
 684   0.0000       5.189699       141.2189 
 685   0.0000       5.193522       141.3229 
 686   0.0000       5.194745       141.3562 
 687   0.0000       5.195377       141.3734 
 688   0.0000       5.196900       141.4148 
 689   0.0000       5.200783       141.5205 
 690   0.0000       5.204036       141.6090 
 691   0.0000       5.206999       141.6897 
 692   0.0000       5.208562       141.7322 
 693   0.0000       5.209207       141.7497 
 694   0.0000       5.213062       141.8546 
 695   0.0000       5.214524       141.8944 
 696   0.0000       5.222925       142.1230 
 697   0.0000       5.223528       142.1394 
 698   0.0000       5.235736       142.4716 
 699   0.0000       5.258808       143.0994 
 700   0.0000       5.285237       143.8186 
 701   0.0000       5.290987       143.9751 
 702   0.0000       5.294660       144.0750 
 703   0.0000       5.296265       144.1187 
 704   0.0000       5.299852       144.2163 
 705   0.0000       5.308565       144.4534 
 706   0.0000       5.313734       144.5941 
[...]
      f+1     :     0.000502
      f-1     :     0.000170
      f+2     :     0.000105
      f-2     :     0.000672
      f+3     :     0.000217
      f-3     :     0.000081
 28 H s       :     0.646429  s :     0.646429
      pz      :     0.048182  p :     0.161707
      px      :     0.052340
      py      :     0.061184
 29 H s       :     0.596119  s :     0.596119
      pz      :     0.139062  p :     0.216804
      px      :     0.046811
      py      :     0.030932
 30 O s       :     3.462726  s :     3.462726
      pz      :     1.606883  p :     4.882160
      px      :     1.792048
      py      :     1.483230
      dz2     :     0.009278  d :     0.028332
      dxz     :     0.006054
      dyz     :     0.001121
      dx2y2   :     0.011254
      dxy     :     0.000625
      f0      :     0.000120  f :     0.002129
      f+1     :     0.000677
      f-1     :     0.000370
      f+2     :     0.000192
      f-2     :     0.000054
      f+3     :     0.000020
      f-3     :     0.000696
 31 H s       :     0.617355  s :     0.617355
      pz      :     0.100238  p :     0.183817
      px      :     0.054922
      py      :     0.028658
 32 H s       :     0.641829  s :     0.641829
      pz      :     0.035129  p :     0.159727
      px      :     0.041270
      py      :     0.083328
 33 O s       :     3.468415  s :     3.468415
      pz      :     1.823794  p :     4.897129
      px      :     1.603529
      py      :     1.469805
      dz2     :     0.007259  d :     0.029837
      dxz     :     0.003478
      dyz     :     0.000548
      dx2y2   :     0.011541
      dxy     :     0.007012
      f0      :     0.000026  f :     0.002019
      f+1     :     0.000470
      f-1     :     0.000436
      f+2     :     0.000027
      f-2     :     0.000017
      f+3     :     0.000278
      f-3     :     0.000765
 34 H s       :     0.610756  s :     0.610756
      pz      :     0.039043  p :     0.203412
      px      :     0.035521
      py      :     0.128848
 35 H s       :     0.604949  s :     0.604949
      pz      :     0.038226  p :     0.211620
      px      :     0.128293
      py      :     0.045102
 36 O s       :     3.466262  s :     3.466262
      pz      :     1.579035  p :     4.886960
      px      :     1.507475
      py      :     1.800450
      dz2     :     0.013145  d :     0.027996
      dxz     :     0.004134
      dyz     :     0.000436
      dx2y2   :     0.007210
      dxy     :     0.003071
      f0      :     0.000429  f :     0.001942
      f+1     :     0.000723
      f-1     :     0.000062
      f+2     :     0.000060
      f-2     :     0.000007
      f+3     :     0.000240
      f-3     :     0.000421
 37 H s       :     0.617709  s :     0.617709
      pz      :     0.029683  p :     0.191068
      px      :     0.116240
      py      :     0.045146
 38 H s       :     0.616303  s :     0.616303
      pz      :     0.113208  p :     0.189304
      px      :     0.037702
      py      :     0.038394
 39 O s       :     3.471969  s :     3.471969
      pz      :     1.610240  p :     4.861598
      px      :     1.487887
      py      :     1.763471
      dz2     :     0.011822  d :     0.029824
      dxz     :     0.001622
      dyz     :     0.004408
      dx2y2   :     0.010369
      dxy     :     0.001604
      f0      :     0.000159  f :     0.002053
      f+1     :     0.000537
      f-1     :     0.000523
      f+2     :     0.000025
      f-2     :     0.000124
      f+3     :     0.000463
      f-3     :     0.000222
 40 H s       :     0.631954  s :     0.631954
      pz      :     0.097348  p :     0.180405
      px      :     0.034052
      py      :     0.049004
 41 H s       :     0.629160  s :     0.629160
      pz      :     0.031706  p :     0.182688
      px      :     0.110304
      py      :     0.040677
 42 O s       :     3.476384  s :     3.476384
      pz      :     1.568498  p :     4.884979
      px      :     1.706286
      py      :     1.610194
      dz2     :     0.004741  d :     0.029643
      dxz     :     0.009210
      dyz     :     0.004667
      dx2y2   :     0.009141
      dxy     :     0.001884
      f0      :     0.000197  f :     0.001969
      f+1     :     0.000577
      f-1     :     0.000050
      f+2     :     0.000608
      f-2     :     0.000090
      f+3     :     0.000058
      f-3     :     0.000389
 43 H s       :     0.601872  s :     0.601872
      pz      :     0.040029  p :     0.205006
      px      :     0.032871
      py      :     0.132106
 44 H s       :     0.613739  s :     0.613739
      pz      :     0.099168  p :     0.197837
      px      :     0.066930
      py      :     0.031740
 45 O s       :     3.471394  s :     3.471394
      pz      :     1.843786  p :     4.885711
      px      :     1.409363
      py      :     1.632562
      dz2     :     0.004642  d :     0.028844
      dxz     :     0.002091
      dyz     :     0.002947
      dx2y2   :     0.007029
      dxy     :     0.012134
      f0      :     0.000152  f :     0.002125
      f+1     :     0.000472
      f-1     :     0.000213
      f+2     :     0.000081
      f-2     :     0.000181
      f+3     :     0.000563
      f-3     :     0.000464
 46 H s       :     0.646752  s :     0.646752
      pz      :     0.044918  p :     0.161663
      px      :     0.075737
      py      :     0.041008
 47 H s       :     0.595528  s :     0.595528
      pz      :     0.039219  p :     0.216193
      px      :     0.069649
      py      :     0.107325
 48 O s       :     3.477654  s :     3.477654
      pz      :     1.650717  p :     4.862014
      px      :     1.606369
      py      :     1.604928
      dz2     :     0.007839  d :     0.030352
      dxz     :     0.003471
      dyz     :     0.009294
      dx2y2   :     0.001660
      dxy     :     0.008088
      f0      :     0.000147  f :     0.002054
      f+1     :     0.000140
      f-1     :     0.000702
      f+2     :     0.000263
      f-2     :     0.000222
      f+3     :     0.000104
      f-3     :     0.000477
 49 H s       :     0.629479  s :     0.629479
      pz      :     0.039368  p :     0.182537
      px      :     0.080435
      py      :     0.062734
 50 H s       :     0.638037  s :     0.638037
      pz      :     0.083658  p :     0.174737
      px      :     0.034831
      py      :     0.056249
 51 O s       :     3.472892  s :     3.472892
      pz      :     1.444551  p :     4.880706
      px      :     1.626864
      py      :     1.809291
      dz2     :     0.007848  d :     0.028669
      dxz     :     0.009667
      dyz     :     0.003240
      dx2y2   :     0.004182
      dxy     :     0.003732
      f0      :     0.000463  f :     0.002083
      f+1     :     0.000376
      f-1     :     0.000399
      f+2     :     0.000295
      f-2     :     0.000242
      f+3     :     0.000133
      f-3     :     0.000174
 52 H s       :     0.646406  s :     0.646406
      pz      :     0.074427  p :     0.161050
      px      :     0.039576
      py      :     0.047047
 53 H s       :     0.606160  s :     0.606160
      pz      :     0.055089  p :     0.205068
      px      :     0.105035
      py      :     0.044945
 54 O s       :     3.453299  s :     3.453299
      pz      :     1.685139  p :     4.865487
      px      :     1.483323
      py      :     1.697026
      dz2     :     0.004628  d :     0.028886
      dxz     :     0.009193
      dyz     :     0.003008
      dx2y2   :     0.006843
      dxy     :     0.005213
      f0      :     0.000451  f :     0.002135
      f+1     :     0.000106
      f-1     :     0.000029
      f+2     :     0.000624
      f-2     :     0.000304
      f+3     :     0.000567
      f-3     :     0.000055
 55 H s       :     0.630207  s :     0.630207
      pz      :     0.051987  p :     0.176419
      px      :     0.089051
      py      :     0.035381
 56 H s       :     0.623654  s :     0.623654
      pz      :     0.044372  p :     0.185279
      px      :     0.054880
      py      :     0.086028
 57 O s       :     3.473458  s :     3.473458
      pz      :     1.792493  p :     4.892215
      px      :     1.692842
      py      :     1.406880
      dz2     :     0.004103  d :     0.028236
      dxz     :     0.002838
      dyz     :     0.005683
      dx2y2   :     0.002684
      dxy     :     0.012929
      f0      :     0.000268  f :     0.002096
      f+1     :     0.000126
      f-1     :     0.000231
      f+2     :     0.000077
      f-2     :     0.000534
      f+3     :     0.000832
      f-3     :     0.000027
 58 H s       :     0.594084  s :     0.594084
      pz      :     0.063050  p :     0.217274
      px      :     0.057035
      py      :     0.097189
 59 H s       :     0.646196  s :     0.646196
      pz      :     0.043469  p :     0.161410
      px      :     0.054297
      py      :     0.063644


                      *****************************
                      * MAYER POPULATION ANALYSIS *
                      *****************************

  NA   - Mulliken gross atomic population
  ZA   - Total nuclear charge
  QA   - Mulliken gross atomic charge
  VA   - Mayer's total valence
  BVA  - Mayer's bonded valence
  FA   - Mayer's free valence

  ATOM       NA         ZA         QA         VA         BVA        FA
  0 O      8.7441     8.0000    -0.7441     1.8396     1.8396    -0.0000
  1 H      0.5725     1.0000     0.4275     0.8385     0.8385    -0.0000
  2 H      0.6204     1.0000     0.3796     0.8930     0.8930     0.0000
  3 O      8.7744     8.0000    -0.7744     1.7216     1.7216     0.0000
  4 H      0.6599     1.0000     0.3401     0.9466     0.9466     0.0000
  5 H      0.5604     1.0000     0.4396     0.8419     0.8419     0.0000
  6 O      8.8580     8.0000    -0.8580     1.6311     1.6311    -0.0000
  7 H      0.5623     1.0000     0.4377     0.8486     0.8486     0.0000
  8 H      0.6359     1.0000     0.3641     0.8878     0.8878     0.0000
  9 O      8.8132     8.0000    -0.8132     1.7472     1.7472    -0.0000
 10 H      0.5671     1.0000     0.4329     0.8658     0.8658     0.0000
 11 H      0.5860     1.0000     0.4140     0.8563     0.8563     0.0000
 12 O      8.7521     8.0000    -0.7521     1.8473     1.8473     0.0000
 13 H      0.6041     1.0000     0.3959     0.8716     0.8716     0.0000
 14 H      0.6132     1.0000     0.3868     0.8831     0.8831     0.0000
 15 O      8.7914     8.0000    -0.7914     1.6987     1.6987     0.0000
 16 H      0.6370     1.0000     0.3630     0.8928     0.8928    -0.0000
 17 H      0.5847     1.0000     0.4153     0.8614     0.8614     0.0000
 18 O      8.7849     8.0000    -0.7849     1.8185     1.8185     0.0000
 19 H      0.6119     1.0000     0.3881     0.8732     0.8732    -0.0000
 20 H      0.5606     1.0000     0.4394     0.8510     0.8510    -0.0000
 21 O      8.7655     8.0000    -0.7655     1.7565     1.7565     0.0000
 22 H      0.5768     1.0000     0.4232     0.8695     0.8695    -0.0000
 23 H      0.6293     1.0000     0.3707     0.9151     0.9151    -0.0000
 24 O      8.7698     8.0000    -0.7698     1.8700     1.8700     0.0000
 25 H      0.5958     1.0000     0.4042     0.8749     0.8749     0.0000
 26 H      0.5881     1.0000     0.4119     0.8544     0.8544     0.0000
 27 O      8.8318     8.0000    -0.8318     1.6631     1.6631    -0.0000
 28 H      0.6353     1.0000     0.3647     0.8894     0.8894    -0.0000
 29 H      0.5786     1.0000     0.4214     0.8609     0.8609    -0.0000
 30 O      8.7922     8.0000    -0.7922     1.6928     1.6928     0.0000
 31 H      0.6091     1.0000     0.3909     0.8809     0.8809     0.0000
 32 H      0.6297     1.0000     0.3703     0.8810     0.8810     0.0000
 33 O      8.7720     8.0000    -0.7720     1.6265     1.6265    -0.0000
 34 H      0.6589     1.0000     0.3411     0.9574     0.9574    -0.0000
 35 H      0.6372     1.0000     0.3628     0.9305     0.9305    -0.0000
 36 O      8.7999     8.0000    -0.7999     1.7670     1.7670    -0.0000
 37 H      0.5773     1.0000     0.4227     0.8518     0.8518    -0.0000
 38 H      0.5733     1.0000     0.4267     0.8486     0.8486     0.0000
 39 O      8.7383     8.0000    -0.7383     1.8750     1.8750    -0.0000
 40 H      0.6092     1.0000     0.3908     0.8733     0.8733    -0.0000
 41 H      0.5973     1.0000     0.4027     0.8662     0.8662    -0.0000
 42 O      8.9075     8.0000    -0.9075     1.9296     1.9296    -0.0000
 43 H      0.5251     1.0000     0.4749     0.8140     0.8140     0.0000
 44 H      0.6288     1.0000     0.3712     0.8996     0.8996     0.0000
 45 O      8.8495     8.0000    -0.8495     1.6529     1.6529    -0.0000
 46 H      0.6349     1.0000     0.3651     0.8888     0.8888     0.0000
 47 H      0.5788     1.0000     0.4212     0.8680     0.8680     0.0000
 48 O      8.7567     8.0000    -0.7567     1.9382     1.9382    -0.0000
 49 H      0.5926     1.0000     0.4074     0.8632     0.8632    -0.0000
 50 H      0.6165     1.0000     0.3835     0.8716     0.8716    -0.0000
 51 O      8.8213     8.0000    -0.8213     1.7131     1.7131     0.0000
 52 H      0.6388     1.0000     0.3612     0.8865     0.8865    -0.0000
 53 H      0.5957     1.0000     0.4043     0.8732     0.8732    -0.0000
 54 O      8.7155     8.0000    -0.7155     1.7602     1.7602     0.0000
 55 H      0.6197     1.0000     0.3803     0.8791     0.8791    -0.0000
 56 H      0.6093     1.0000     0.3907     0.9004     0.9004     0.0000
 57 O      8.8442     8.0000    -0.8442     1.6124     1.6124     0.0000
 58 H      0.5685     1.0000     0.4315     0.8573     0.8573     0.0000
 59 H      0.6369     1.0000     0.3631     0.8882     0.8882     0.0000

  Mayer bond orders larger than 0.1
B(  0-O ,  1-H ) :   0.8425 B(  0-O ,  2-H ) :   0.8551 B(  0-O , 47-H ) :   0.1337 
B(  3-O ,  4-H ) :   0.8448 B(  3-O ,  5-H ) :   0.7944 B(  3-O , 33-O ) :  -0.1121 
B(  3-O , 35-H ) :   0.1903 B(  6-O ,  7-H ) :   0.7208 B(  6-O ,  8-H ) :   0.8762 
B(  7-H , 18-O ) :   0.1251 B(  9-O , 10-H ) :   0.7814 B(  9-O , 11-H ) :   0.8474 
B( 12-O , 13-H ) :   0.8633 B( 12-O , 14-H ) :   0.8630 B( 15-O , 16-H ) :   0.8799 
B( 15-O , 17-H ) :   0.7569 B( 17-H , 42-O ) :   0.1323 B( 18-O , 19-H ) :   0.8703 
B( 18-O , 20-H ) :   0.7791 B( 21-O , 22-H ) :   0.8191 B( 21-O , 23-H ) :   0.8164 
B( 24-O , 25-H ) :   0.8466 B( 24-O , 26-H ) :   0.8438 B( 24-O , 58-H ) :   0.1298 
B( 27-O , 28-H ) :   0.8754 B( 27-O , 29-H ) :   0.7443 B( 29-H , 54-O ) :   0.1206 
B( 30-O , 31-H ) :   0.8295 B( 30-O , 32-H ) :   0.8767 B( 33-O , 34-H ) :   0.7802 
B( 33-O , 35-H ) :   0.7823 B( 33-O , 36-O ) :  -0.1110 B( 34-H , 36-O ) :   0.2039 
B( 36-O , 37-H ) :   0.8106 B( 36-O , 38-H ) :   0.8101 B( 39-O , 40-H ) :   0.8658 
B( 39-O , 41-H ) :   0.8507 B( 39-O , 42-O ) :   0.1206 B( 42-O , 43-H ) :   0.7597 
B( 42-O , 44-H ) :   0.8490 B( 45-O , 46-H ) :   0.8728 B( 45-O , 47-H ) :   0.7344 
B( 48-O , 49-H ) :   0.8535 B( 48-O , 50-H ) :   0.8857 B( 51-O , 52-H ) :   0.8777 
B( 51-O , 53-H ) :   0.7763 B( 54-O , 55-H ) :   0.8665 B( 54-O , 56-H ) :   0.8224 
B( 57-O , 58-H ) :   0.7271 B( 57-O , 59-H ) :   0.8762 

-------
TIMINGS
-------

Total SCF time: 0 days 0 hours 45 min 55 sec 

Total time                  ....    2755.390 sec
Sum of individual times     ....    2381.286 sec  ( 86.4%)

Fock matrix formation       ....    2283.043 sec  ( 82.9%)
  Coulomb formation         ....    2119.506 sec  ( 92.8% of F)
  Split-RI-J                ....     103.669 sec  (  4.5% of F)
  Chain of spheres X        ....    2430.797 sec  (106.5% of F)
  COS-X 1 center corr.      ....       0.000 sec  (  0.0% of F)
  XC integration            ....     163.354 sec  (  7.2% of F)
    Basis function eval.    ....      63.200 sec  ( 38.7% of XC)
    Density eval.           ....      32.169 sec  ( 19.7% of XC)
    XC-Functional eval.     ....       9.080 sec  (  5.6% of XC)
    XC-Potential eval.      ....      57.076 sec  ( 34.9% of XC)
Diagonalization             ....       2.066 sec  (  0.1%)
Density matrix formation    ....       0.373 sec  (  0.0%)
Population analysis         ....       2.325 sec  (  0.1%)
Initial guess               ....      38.035 sec  (  1.4%)
Orbital Transformation      ....       0.000 sec  (  0.0%)
Orbital Orthonormalization  ....       0.000 sec  (  0.0%)
DIIS solution               ....       0.713 sec  (  0.0%)
SOSCF solution              ....       1.259 sec  (  0.0%)
Grid generation             ....      53.473 sec  (  1.9%)

Entering the calculation of the dispersion correction...

Checking the input atom types...

Done


-------------------------------------------------------------------------------
                          DFT DISPERSION CORRECTION                            
                                                                               
                                DFTD3 V2.1  Rev 6                               
                              USING zero damping                               
-------------------------------------------------------------------------------
The omegaB97X-D3 functional is recognized. Fit by Chai et al.
Active option DFTDOPT                   ...         3   

molecular C6(AA) [au] = 17790.437535 


            DFT-D V3
 parameters
 s6 scaling factor         :     1.0000 
 rs6 scaling factor        :     1.2810 
 s8 scaling factor         :     1.0000 
 rs8 scaling factor        :     1.0940 
 Damping factor alpha6     :    14.0000 
 Damping factor alpha8     :    16.0000 
 ad hoc parameters k1-k3   :    16.0000     1.3333    -4.0000 

 Edisp/kcal,au: -26.464660982650  -0.042174117290 
 E6   /kcal   : -15.453653578 
 E8   /kcal   : -11.011007405 
 % E8         :  41.606455537 

-------------------------   ----------------
Dispersion correction           -0.042174117
-------------------------   ----------------


-------------------------   --------------------
FINAL SINGLE POINT ENERGY     -1529.165009323467
-------------------------   --------------------


                            ***************************************
                            *     ORCA property calculations      *
                            ***************************************

                                    ---------------------
                                    Active property flags
                                    ---------------------
   (+) Dipole Moment


------------------------------------------------------------------------------
                       ORCA ELECTRIC PROPERTIES CALCULATION
------------------------------------------------------------------------------

Dipole Moment Calculation                       ... on
Quadrupole Moment Calculation                   ... off
Polarizability Calculation                      ... off
GBWName                                         ... 4_wb98x-ma-def2-TZVP-GasPhase_onB3LYP_20_waters.gbw
Electron density file                           ... 4_wb98x-ma-def2-TZVP-GasPhase_onB3LYP_20_waters.scfp.tmp

-------------
DIPOLE MOMENT
-------------
                                X             Y             Z
Electronic contribution:      0.04245       0.13126      -0.17992
Nuclear contribution   :     -0.53637      -0.36881       1.41258
                        -----------------------------------------
Total Dipole Moment    :     -0.49392      -0.23755       1.23267
                        -----------------------------------------
Magnitude (a.u.)       :      1.34902
Magnitude (Debye)      :      3.42894


Timings for individual modules:

Sum of individual times         ...     2795.171 sec (=  46.586 min)
GTO integral calculation        ...        1.352 sec (=   0.023 min)   0.0 %
SCF iterations                  ...     2793.818 sec (=  46.564 min) 100.0 %
                             ****ORCA TERMINATED NORMALLY****
TOTAL RUN TIME: 0 days 0 hours 46 minutes 35 seconds 875 msec
cp: cannot stat /scratch/slurm-2199327/*.{prop}: No such file or directory
