
                                 *****************
                                 * O   R   C   A *
                                 *****************

           --- An Ab Initio, DFT and Semiempirical electronic structure package ---

                  #######################################################
                  #                        -***-                        #
                  #  Department of molecular theory and spectroscopy    #
                  #              Directorship: Frank Neese              #
                  # Max Planck Institute for Chemical Energy Conversion #
                  #                  D-45470 Muelheim/Ruhr              #
                  #                       Germany                       #
                  #                                                     #
                  #                  All rights reserved                #
                  #                        -***-                        #
                  #######################################################


                         Program Version 3.0.3 - RELEASE   -


 With contributions from (in alphabetic order):
   Ute Becker             : Parallelization
   Dmytro Bykov           : SCF Hessian
   Dmitry Ganyushin       : Spin-Orbit,Spin-Spin,Magnetic field MRCI
   Andreas Hansen         : Spin unrestricted coupled pair/coupled cluster methods
   Dimitrios Liakos       : Extrapolation schemes; parallel MDCI
   Robert Izsak           : Overlap fitted RIJCOSX, COSX-SCS-MP3
   Christian Kollmar      : KDIIS, OOCD, Brueckner-CCSD(T), CCSD density
   Simone Kossmann        : Meta GGA functionals, TD-DFT gradient, OOMP2, MP2 Hessian
   Taras Petrenko         : DFT Hessian,TD-DFT gradient, ASA and ECA modules, normal mode analysis, Resonance Raman, ABS, FL, XAS/XES, NRVS
   Christoph Reimann      : Effective Core Potentials
   Michael Roemelt        : Restricted open shell CIS
   Christoph Riplinger    : Improved optimizer, TS searches, QM/MM, DLPNO-CCSD
   Barbara Sandhoefer     : DKH picture change effects
   Igor Schapiro          : Molecular dynamics
   Kantharuban Sivalingam : CASSCF convergence, NEVPT2
   Boris Wezisla          : Elementary symmetry handling
   Frank Wennmohs         : Technical directorship


 We gratefully acknowledge several colleagues who have allowed us to
 interface, adapt or use parts of their codes:
   Stefan Grimme, W. Hujo, H. Kruse, T. Risthaus : VdW corrections, initial TS optimization,
                                                   DFT functionals, gCP
   Ed Valeev                                     : LibInt (2-el integral package), F12 methods
   Garnet Chan, S. Sharma, R. Olivares           : DMRG
   Ulf Ekstrom                                   : XCFun DFT Library
   Mihaly Kallay                                 : mrcc  (arbitrary order and MRCC methods)
   Andreas Klamt, Michael Diedenhofen            : otool_cosmo (COSMO solvation model)
   Frank Weinhold                                : gennbo (NPA and NBO analysis)
   Christopher J. Cramer and Donald G. Truhlar   : smd solvation model


 Your calculation uses the libint2 library for the computation of 2-el integrals
 For citations please refer to: http://libint.valeyev.net

 This ORCA versions uses:
   CBLAS   interface :  Fast vector & matrix operations
   LAPACKE interface :  Fast linear algebra routines
   SCALAPACK package :  Parallel linear algebra routines


Your calculation utilizes the basis: Ahlrichs-TZV
Cite in your paper:
H - Kr: A. Schaefer, H. Horn and R. Ahlrichs, J. Chem. Phys. 97, 2571 (1992).

The def2-TZV basis will be loaded
Cite in your paper:
 	F. Weigend, R. Ahlrichs, Phys. Chem. Chem. Phys. 2005, 7, 3297.

Your calculation utilizes the atom-pairwise dispersion correction
with the Becke-Johnson damping scheme (D3BJ)
Cite in your paper:
S.Grimme, S.Ehrlich, L.Goerigk, J Comput Chem, (2011), 32, 1456–1465 
S.Grimme, J.Antony, S.Ehrlich and H.Krieg, J.Chem.Phys., 132, (2010), 154104 
   

================================================================================
                                        WARNINGS
                       Please study these warnings very carefully!
================================================================================
Now building the actual basis set


INFO   : the flag for use of LIBINT has been found!

================================================================================
                                       INPUT FILE
================================================================================
NAME = 0_B3LYP_GasPhase_onB3LYP_16_waters.inp
|  1> ! B3LYP Def2-TZVP def2-TZVP/J RIJCOSX TightSCF Grid4 D3BJ
|  2> 
|  3> %pal nprocs 12 end
|  4> 
|  5> %scf
|  6>         maxiter 400
|  7> end
|  8> 
|  9> * xyz  0  1
| 10> O  3.108883	0.699081	-3.260634
| 11> H  3.625333	0.155265	-2.577598
| 12> H  3.753523	1.219737	-3.756929
| 13> O  -2.440673	-0.101930	-0.439589
| 14> H  -2.084205	-0.681150	0.284166
| 15> H  -3.186978	0.366854	-0.003321
| 16> O  -0.488260	-0.676745	-2.300455
| 17> H  -1.376037	-0.453470	-1.950902
| 18> H  0.091847	0.076993	-2.016196
| 19> O  1.533809	-1.436277	-4.037914
| 20> H  0.650151	-1.183865	-3.696878
| 21> H  2.073977	-0.619415	-3.959887
| 22> O  2.486096	-2.908251	-2.101959
| 23> H  2.102955	-2.398789	-2.889896
| 24> H  2.778197	-3.757159	-2.461252
| 25> O  -3.919023	1.310298	1.340665
| 26> H  -4.824414	1.649301	1.313651
| 27> H  -3.343026	2.096960	1.619577
| 28> O  0.385328	0.566417	2.200360
| 29> H  -0.007439	0.907541	3.036306
| 30> H  -0.009876	1.145548	1.495535
| 31> O  -3.133806	-0.393408	3.367855
| 32> H  -2.608956	-1.050352	2.865920
| 33> H  -3.581440	0.126139	2.662823
| 34> O  -1.377063	1.428523	4.059110
| 35> H  -2.062850	0.704105	3.893071
| 36> H  -1.379634	1.596100	5.010680
| 37> O  1.199549	1.212750	-1.429869
| 38> H  1.871037	1.290524	-2.147011
| 39> H  1.655512	0.702360	-0.706138
| 40> O  -2.272820	3.198645	2.080499
| 41> H  -1.623436	3.025336	1.365307
| 42> H  -1.887614	2.756058	2.867742
| 43> O  -1.275380	-1.474135	1.590992
| 44> H  -0.617597	-0.786868	1.877606
| 45> H  -0.726700	-2.111786	1.088806
| 46> O  -0.777373	1.933678	0.197297
| 47> H  -0.075747	1.978733	-0.491101
| 48> H  -1.406429	1.235867	-0.124677
| 49> O  4.161275	-0.811064	-1.439981
| 50> H  3.725573	-0.567165	-0.595222
| 51> H  3.745591	-1.676664	-1.652836
| 52> O  2.240463	-0.352772	0.477742
| 53> H  1.865735	0.007678	1.311586
| 54> H  1.636227	-1.111582	0.257904
| 55> O  0.527459	-2.273482	-0.333623
| 56> H  1.196568	-2.793591	-0.832971
| 57> H  0.075057	-1.772114	-1.061635
| 58> **                         ****END OF INPUT****
================================================================================

                       ****************************
                       * Single Point Calculation *
                       ****************************

---------------------------------
CARTESIAN COORDINATES (ANGSTROEM)
---------------------------------
  O      3.108883    0.699081   -3.260634
  H      3.625333    0.155265   -2.577598
  H      3.753523    1.219737   -3.756929
  O     -2.440673   -0.101930   -0.439589
  H     -2.084205   -0.681150    0.284166
  H     -3.186978    0.366854   -0.003321
  O     -0.488260   -0.676745   -2.300455
  H     -1.376037   -0.453470   -1.950902
  H      0.091847    0.076993   -2.016196
  O      1.533809   -1.436277   -4.037914
  H      0.650151   -1.183865   -3.696878
  H      2.073977   -0.619415   -3.959887
  O      2.486096   -2.908251   -2.101959
  H      2.102955   -2.398789   -2.889896
  H      2.778197   -3.757159   -2.461252
  O     -3.919023    1.310298    1.340665
  H     -4.824414    1.649301    1.313651
  H     -3.343026    2.096960    1.619577
  O      0.385328    0.566417    2.200360
  H     -0.007439    0.907541    3.036306
  H     -0.009876    1.145548    1.495535
  O     -3.133806   -0.393408    3.367855
  H     -2.608956   -1.050352    2.865920
  H     -3.581440    0.126139    2.662823
  O     -1.377063    1.428523    4.059110
  H     -2.062850    0.704105    3.893071
  H     -1.379634    1.596100    5.010680
  O      1.199549    1.212750   -1.429869
  H      1.871037    1.290524   -2.147011
  H      1.655512    0.702360   -0.706138
  O     -2.272820    3.198645    2.080499
  H     -1.623436    3.025336    1.365307
  H     -1.887614    2.756058    2.867742
  O     -1.275380   -1.474135    1.590992
  H     -0.617597   -0.786868    1.877606
  H     -0.726700   -2.111786    1.088806
  O     -0.777373    1.933678    0.197297
  H     -0.075747    1.978733   -0.491101
  H     -1.406429    1.235867   -0.124677
  O      4.161275   -0.811064   -1.439981
  H      3.725573   -0.567165   -0.595222
  H      3.745591   -1.676664   -1.652836
  O      2.240463   -0.352772    0.477742
  H      1.865735    0.007678    1.311586
  H      1.636227   -1.111582    0.257904
  O      0.527459   -2.273482   -0.333623
  H      1.196568   -2.793591   -0.832971
  H      0.075057   -1.772114   -1.061635

----------------------------
CARTESIAN COORDINATES (A.U.)
----------------------------
  NO LB      ZA    FRAG    MASS        X           Y           Z
   0 O     8.0000    0    15.999          5.874937452403503          1.321071635427802         -6.161705282952187
   1 H     1.0000    0     1.008          6.850886514267133          0.293408328183283         -4.870954303343151
   2 H     1.0000    0     1.008          7.093130507374498          2.304968885410706         -7.099566914586634
   3 O     8.0000    0    15.999         -4.612203552455983         -0.192619784830593         -0.830702821484309
   4 H     1.0000    0     1.008         -3.938576656949342         -1.287186956120461          0.536995916571866
   5 H     1.0000    0     1.008         -6.022515614832082          0.693253591133547         -0.006275780490752
   6 O     8.0000    0    15.999         -0.922677682148390         -1.278862712500538         -4.347229933409813
   7 H     1.0000    0     1.008         -2.600333080142597         -0.856934109949270         -3.686670494119237
   8 H     1.0000    0     1.008          0.173565676222265          0.145495684228999         -3.810058272307492
   9 O     8.0000    0    15.999          2.898478951743621         -2.714170182450014         -7.630551612326497
  10 H     1.0000    0     1.008          1.228607335695036         -2.237180629534683         -6.986086970518529
  11 H     1.0000    0     1.008          3.919248538051596         -1.170524713242832         -7.483101951275024
  12 O     8.0000    0    15.999          4.698040582637088         -5.495797918702614         -3.972126854730980
  13 H     1.0000    0     1.008          3.974009021960366         -4.533054263062825         -5.461111995514489
  14 H     1.0000    0     1.008          5.250031476081619         -7.100001551597436         -4.651092226565948
  15 O     8.0000    0    15.999         -7.405880182538466          2.476104373824748          2.533489687333535
  16 H     1.0000    0     1.008         -9.116821216655561          3.116727202402454          2.482440625551786
  17 H     1.0000    0     1.008         -6.317403598578227          3.962680113787508          3.060556982797779
  18 O     8.0000    0    15.999          0.728164391731608          1.070373007597273          4.158077796034965
  19 H     1.0000    0     1.008         -0.014057672710240          1.715003945305027          5.737786798781900
  20 H     1.0000    0     1.008         -0.018662935298606          2.164771993261222          2.826151573693919
  21 O     8.0000    0    15.999         -5.922035096839222         -0.743433378893692          6.364323608757357
  22 H     1.0000    0     1.008         -4.930212335450653         -1.984877624216455          5.415803921727593
  23 H     1.0000    0     1.008         -6.767940765070928          0.238368164806693          5.032006213106589
  24 O     8.0000    0    15.999         -2.602271939156001          2.699517246007588          7.670606247461093
  25 H     1.0000    0     1.008         -3.898221555359454          1.330565619524623          7.356838009910941
  26 H     1.0000    0     1.008         -2.607130425046312          3.016191882351710          9.468812944716538
  27 O     8.0000    0    15.999          2.266819094219104          2.291765368912998         -2.702060817383846
  28 H     1.0000    0     1.008          3.535747516433617          2.438736929252590         -4.057262796516400
  29 H     1.0000    0     1.008          3.128464291420239          1.327268047420930         -1.334407432754885
  30 O     8.0000    0    15.999         -4.295007351698898          6.044563049636542          3.931573331897031
  31 H     1.0000    0     1.008         -3.067849435948582          5.717056503092784          2.580056318725622
  32 H     1.0000    0     1.008         -3.567073506555629          5.208194829202736          5.419247002743598
  33 O     8.0000    0    15.999         -2.410118916680486         -2.785711434428004          3.006539161259640
  34 H     1.0000    0     1.008         -1.167089191131363         -1.486965023546347          3.548161127407346
  35 H     1.0000    0     1.008         -1.373263981520574         -3.990697193449024          2.057545152970262
  36 O     8.0000    0    15.999         -1.469022073904765          3.654121851188578          0.372837297044261
  37 H     1.0000    0     1.008         -0.143141085466133          3.739263462152400         -0.928046394094861
  38 H     1.0000    0     1.008         -2.657765636804732          2.335450167950856         -0.235605385198900
  39 O     8.0000    0    15.999          7.863670117933157         -1.532688837082706         -2.721169728050058
  40 H     1.0000    0     1.008          7.040312661931399         -1.071786522745447         -1.124806568884875
  41 H     1.0000    0     1.008          7.078141199680235         -3.168435778604942         -3.123407384285866
  42 O     8.0000    0    15.999          4.233861483183610         -0.666642467715668          0.902801542671807
  43 H     1.0000    0     1.008          3.525728188471566          0.014509317256247          2.478538341085239
  44 H     1.0000    0     1.008          3.092020922927568         -2.100585555396453          0.487367928842827
  45 O     8.0000    0    15.999          0.996753056871969         -4.296258350399556         -0.630456101977210
  46 H     1.0000    0     1.008          2.261185820613884         -5.279121920187204         -1.574087067498519
  47 H     1.0000    0     1.008          0.141837174433727         -3.348810138087725         -2.006199404185488

--------------------------------
INTERNAL COORDINATES (ANGSTROEM)
--------------------------------
 O      0   0   0   0.000000     0.000     0.000
 H      1   0   0   1.014394     0.000     0.000
 H      1   2   0   0.965894   107.168     0.000
 O      1   2   3   6.276742    94.536   196.517
 H      4   1   2   0.993170    94.854   358.139
 H      4   1   2   0.983392   144.051   118.494
 O      4   1   2   2.757744    25.494   262.829
 H      7   4   1   0.979891    21.623   234.024
 H      7   4   1   0.992697    93.568   356.305
 O      1   2   3   2.764919    93.743   134.759
 H     10   1   2   0.980239   102.525   110.968
 H     10   1   2   0.982412    12.120   212.763
 O     10   1   2   2.611796    91.099     7.936
 H     13  10   1   1.013505     4.133   205.905
 H     13  10   1   0.966985   109.238   230.216
 O      6   4   1   1.797853   152.975   290.204
 H     16   6   4   0.967153   122.972   176.153
 H     16   6   4   1.014101   112.420    48.377
 O      5   4   1   3.365534   117.522    57.155
 H     19   5   4   0.984600   108.610    98.623
 H     19   5   4   0.994162    61.353     2.512
 O     16   6   4   2.762006    96.270   308.551
 H     22  16   6   0.979276   100.951     3.421
 H     22  16   6   0.983552    11.087   259.805
 O     20  19   5   1.787014   153.212   345.391
 H     25  20  19   1.011264   102.529    45.068
 H     25  20  19   0.966216   128.045   167.991
 O      9   7   4   1.691368   172.676   102.736
 H     28   9   7   0.985514   104.298    92.210
 H     28   9   7   0.996086   101.981   343.216
 O     18  16   6   1.603590   172.328   307.042
 H     31  18  16   0.981445    96.362    57.441
 H     31  18  16   0.981844   100.522   311.685
 O      5   4   1   1.729398   170.384    53.590
 H     34   5   4   0.993560   102.148     3.093
 H     34   5   4   0.979714    99.964   257.197
 O     21  19   5   1.701653   171.885   343.929
 H     37  21  19   0.983972   103.494   266.574
 H     37  21  19   0.993136   101.982    15.305
 O      2   1   3   1.585938   169.022   182.921
 H     40   2   1   0.981295   108.422   299.834
 H     40   2   1   0.983547   103.779    48.353
 O     30  28   9   1.690279   170.811   351.892
 H     43  30  28   0.982670   103.497   261.245
 H     43  30  28   0.994597    96.384     6.957
 O     45  43  30   1.711515   171.076     8.843
 H     46  45  43   0.983651    95.379    93.622
 H     46  45  43   0.992995   101.874   350.331

---------------------------
INTERNAL COORDINATES (A.U.)
---------------------------
 O      0   0   0   0.000000     0.000     0.000
 H      1   0   0   1.916926     0.000     0.000
 H      1   2   0   1.825276   107.168     0.000
 O      1   2   3  11.861323    94.536   196.517
 H      4   1   2   1.876819    94.854   358.139
 H      4   1   2   1.858341   144.051   118.494
 O      4   1   2   5.211381    25.494   262.829
 H      7   4   1   1.851726    21.623   234.024
 H      7   4   1   1.875926    93.568   356.305
 O      1   2   3   5.224939    93.743   134.759
 H     10   1   2   1.852384   102.525   110.968
 H     10   1   2   1.856490    12.120   212.763
 O     10   1   2   4.935580    91.099     7.936
 H     13  10   1   1.915248     4.133   205.905
 H     13  10   1   1.827336   109.238   230.216
 O      6   4   1   3.397449   152.975   290.204
 H     16   6   4   1.827655   122.972   176.153
 H     16   6   4   1.916374   112.420    48.377
 O      5   4   1   6.359937   117.522    57.155
 H     19   5   4   1.860624   108.610    98.623
 H     19   5   4   1.878693    61.353     2.512
 O     16   6   4   5.219436    96.270   308.551
 H     22  16   6   1.850564   100.951     3.421
 H     22  16   6   1.858645    11.087   259.805
 O     20  19   5   3.376968   153.212   345.391
 H     25  20  19   1.911011   102.529    45.068
 H     25  20  19   1.825884   128.045   167.991
 O      9   7   4   3.196223   172.676   102.736
 H     28   9   7   1.862351   104.298    92.210
 H     28   9   7   1.882329   101.981   343.216
 O     18  16   6   3.030345   172.328   307.042
 H     31  18  16   1.854663    96.362    57.441
 H     31  18  16   1.855417   100.522   311.685
 O      5   4   1   3.268089   170.384    53.590
 H     34   5   4   1.877557   102.148     3.093
 H     34   5   4   1.851391    99.964   257.197
 O     21  19   5   3.215658   171.885   343.929
 H     37  21  19   1.859438   103.494   266.574
 H     37  21  19   1.876755   101.982    15.305
 O      2   1   3   2.996988   169.022   182.921
 H     40   2   1   1.854380   108.422   299.834
 H     40   2   1   1.858634   103.779    48.353
 O     30  28   9   3.194164   170.811   351.892
 H     43  30  28   1.856978   103.497   261.245
 H     43  30  28   1.879515    96.384     6.957
 O     45  43  30   3.234294   171.076     8.843
 H     46  45  43   1.858830    95.379    93.622
 H     46  45  43   1.876488   101.874   350.331

---------------------
BASIS SET INFORMATION
---------------------
There are 2 groups of distinct atoms

 Group   1 Type O   : 11s6p2d1f contracted to 5s3p2d1f pattern {62111/411/11/1}
 Group   2 Type H   : 5s1p contracted to 3s1p pattern {311/1}

Atom   0O    basis set group =>   1
Atom   1H    basis set group =>   2
Atom   2H    basis set group =>   2
Atom   3O    basis set group =>   1
Atom   4H    basis set group =>   2
Atom   5H    basis set group =>   2
Atom   6O    basis set group =>   1
Atom   7H    basis set group =>   2
Atom   8H    basis set group =>   2
Atom   9O    basis set group =>   1
Atom  10H    basis set group =>   2
Atom  11H    basis set group =>   2
Atom  12O    basis set group =>   1
Atom  13H    basis set group =>   2
Atom  14H    basis set group =>   2
Atom  15O    basis set group =>   1
Atom  16H    basis set group =>   2
Atom  17H    basis set group =>   2
Atom  18O    basis set group =>   1
Atom  19H    basis set group =>   2
Atom  20H    basis set group =>   2
Atom  21O    basis set group =>   1
Atom  22H    basis set group =>   2
Atom  23H    basis set group =>   2
Atom  24O    basis set group =>   1
Atom  25H    basis set group =>   2
Atom  26H    basis set group =>   2
Atom  27O    basis set group =>   1
Atom  28H    basis set group =>   2
Atom  29H    basis set group =>   2
Atom  30O    basis set group =>   1
Atom  31H    basis set group =>   2
Atom  32H    basis set group =>   2
Atom  33O    basis set group =>   1
Atom  34H    basis set group =>   2
Atom  35H    basis set group =>   2
Atom  36O    basis set group =>   1
Atom  37H    basis set group =>   2
Atom  38H    basis set group =>   2
Atom  39O    basis set group =>   1
Atom  40H    basis set group =>   2
Atom  41H    basis set group =>   2
Atom  42O    basis set group =>   1
Atom  43H    basis set group =>   2
Atom  44H    basis set group =>   2
Atom  45O    basis set group =>   1
Atom  46H    basis set group =>   2
Atom  47H    basis set group =>   2
-------------------------------
AUXILIARY BASIS SET INFORMATION
-------------------------------
There are 2 groups of distinct atoms

 Group   1 Type O   : 12s5p4d2f1g contracted to 6s4p3d1f1g pattern {711111/2111/211/2/1}
 Group   2 Type H   : 5s2p1d contracted to 3s1p1d pattern {311/2/1}

Atom   0O    basis set group =>   1
Atom   1H    basis set group =>   2
Atom   2H    basis set group =>   2
Atom   3O    basis set group =>   1
Atom   4H    basis set group =>   2
Atom   5H    basis set group =>   2
Atom   6O    basis set group =>   1
Atom   7H    basis set group =>   2
Atom   8H    basis set group =>   2
Atom   9O    basis set group =>   1
Atom  10H    basis set group =>   2
Atom  11H    basis set group =>   2
Atom  12O    basis set group =>   1
Atom  13H    basis set group =>   2
Atom  14H    basis set group =>   2
Atom  15O    basis set group =>   1
Atom  16H    basis set group =>   2
Atom  17H    basis set group =>   2
Atom  18O    basis set group =>   1
Atom  19H    basis set group =>   2
Atom  20H    basis set group =>   2
Atom  21O    basis set group =>   1
Atom  22H    basis set group =>   2
Atom  23H    basis set group =>   2
Atom  24O    basis set group =>   1
Atom  25H    basis set group =>   2
Atom  26H    basis set group =>   2
Atom  27O    basis set group =>   1
Atom  28H    basis set group =>   2
Atom  29H    basis set group =>   2
Atom  30O    basis set group =>   1
Atom  31H    basis set group =>   2
Atom  32H    basis set group =>   2
Atom  33O    basis set group =>   1
Atom  34H    basis set group =>   2
Atom  35H    basis set group =>   2
Atom  36O    basis set group =>   1
Atom  37H    basis set group =>   2
Atom  38H    basis set group =>   2
Atom  39O    basis set group =>   1
Atom  40H    basis set group =>   2
Atom  41H    basis set group =>   2
Atom  42O    basis set group =>   1
Atom  43H    basis set group =>   2
Atom  44H    basis set group =>   2
Atom  45O    basis set group =>   1
Atom  46H    basis set group =>   2
Atom  47H    basis set group =>   2
smp-n52.crc.pitt.edu.109335hfi_wait_for_device: The /dev/hfi1_0 device failed to appear after 15.0 seconds: Connection timed out
smp-n52.crc.pitt.edu.109337hfi_wait_for_device: The /dev/hfi1_0 device failed to appear after 15.0 seconds: Connection timed out
smp-n52.crc.pitt.edu.109342hfi_wait_for_device: The /dev/hfi1_0 device failed to appear after 15.0 seconds: Connection timed out
smp-n52.crc.pitt.edu.109346hfi_wait_for_device: The /dev/hfi1_0 device failed to appear after 15.0 seconds: Connection timed out
smp-n52.crc.pitt.edu.109339hfi_wait_for_device: The /dev/hfi1_0 device failed to appear after 15.0 seconds: Connection timed out
smp-n52.crc.pitt.edu.109340hfi_wait_for_device: The /dev/hfi1_0 device failed to appear after 15.0 seconds: Connection timed out
smp-n52.crc.pitt.edu.109344hfi_wait_for_device: The /dev/hfi1_0 device failed to appear after 15.0 seconds: Connection timed out
smp-n52.crc.pitt.edu.109348hfi_wait_for_device: The /dev/hfi1_0 device failed to appear after 15.0 seconds: Connection timed out
smp-n52.crc.pitt.edu.109350hfi_wait_for_device: The /dev/hfi1_0 device failed to appear after 15.0 seconds: Connection timed out
smp-n52.crc.pitt.edu.109352hfi_wait_for_device: The /dev/hfi1_0 device failed to appear after 15.0 seconds: Connection timed out
smp-n52.crc.pitt.edu.109336hfi_wait_for_device: The /dev/hfi1_0 device failed to appear after 15.0 seconds: Connection timed out
smp-n52.crc.pitt.edu.109338hfi_wait_for_device: The /dev/hfi1_0 device failed to appear after 15.0 seconds: Connection timed out


           ************************************************************
           *        Program running with 12 parallel MPI-processes    *
           *              working on a common directory               *
           ************************************************************
------------------------------------------------------------------------------
                           ORCA GTO INTEGRAL CALCULATION
                           -- RI-GTO INTEGRALS CHOSEN --
------------------------------------------------------------------------------

                         BASIS SET STATISTICS AND STARTUP INFO

Gaussian basis set:
 # of primitive gaussian shells          ...  512
 # of primitive gaussian functions       ...  992
 # of contracted shells                  ...  304
 # of contracted basis functions         ...  688
 Highest angular momentum                ...    3
 Maximum contraction depth               ...    6
Auxiliary gaussian basis set:
 # of primitive gaussian shells          ...  640
 # of primitive gaussian functions       ... 1632
 # of contracted shells                  ...  400
 # of contracted aux-basis functions     ... 1136
 Highest angular momentum                ...    4
 Maximum contraction depth               ...    7
Ratio of auxiliary to basis functions    ...  1.65
Integral package used                  ... LIBINT
 One Electron integrals                  ... done
 Ordering auxiliary basis shells         ... done
 Integral threshhold             Thresh  ...  2.500e-11
 Primitive cut-off               TCut    ...  2.500e-12
 Pre-screening matrix                    ... done
 Shell pair data                         ... 
 Ordering of the shell pairs             ... done (   0.005 sec) 30497 of 46360 pairs
 Determination of significant pairs      ... done (   0.000 sec)
 Creation of shell pair data             ... done (   0.003 sec)
 Storage of shell pair data              ... done (   0.004 sec)
 Shell pair data done in (   0.012 sec)
 Computing two index integrals           ... done
 Cholesky decomposition of the V-matrix  ... done


Timings:
 Total evaluation time                   ...   0.620 sec (  0.010 min)
 One electron matrix time                ...   0.206 sec (  0.003 min) = 33.2%
 Schwartz matrix evaluation time         ...   0.313 sec (  0.005 min) = 50.6%
 Two index repulsion integral time       ...   0.029 sec (  0.000 min) =  4.7%
 Cholesky decomposition of V             ...   0.044 sec (  0.001 min) =  7.1%
 Three index repulsion integral time     ...   0.000 sec (  0.000 min) =  0.0%

           ************************************************************
           *              Shut down parallel processing               *
           ************************************************************
smp-n52.crc.pitt.edu.109361hfi_wait_for_device: The /dev/hfi1_0 device failed to appear after 15.0 seconds: Connection timed out
smp-n52.crc.pitt.edu.109362hfi_wait_for_device: The /dev/hfi1_0 device failed to appear after 15.0 seconds: Connection timed out
smp-n52.crc.pitt.edu.109363hfi_wait_for_device: The /dev/hfi1_0 device failed to appear after 15.0 seconds: Connection timed out
smp-n52.crc.pitt.edu.109365hfi_wait_for_device: The /dev/hfi1_0 device failed to appear after 15.0 seconds: Connection timed out
smp-n52.crc.pitt.edu.109366hfi_wait_for_device: The /dev/hfi1_0 device failed to appear after 15.0 seconds: Connection timed out
smp-n52.crc.pitt.edu.109368hfi_wait_for_device: The /dev/hfi1_0 device failed to appear after 15.0 seconds: Connection timed out
smp-n52.crc.pitt.edu.109372hfi_wait_for_device: The /dev/hfi1_0 device failed to appear after 15.0 seconds: Connection timed out
smp-n52.crc.pitt.edu.109364hfi_wait_for_device: The /dev/hfi1_0 device failed to appear after 15.0 seconds: Connection timed out
smp-n52.crc.pitt.edu.109370hfi_wait_for_device: The /dev/hfi1_0 device failed to appear after 15.0 seconds: Connection timed out
smp-n52.crc.pitt.edu.109374hfi_wait_for_device: The /dev/hfi1_0 device failed to appear after 15.0 seconds: Connection timed out
smp-n52.crc.pitt.edu.109376hfi_wait_for_device: The /dev/hfi1_0 device failed to appear after 15.0 seconds: Connection timed out
smp-n52.crc.pitt.edu.109378hfi_wait_for_device: The /dev/hfi1_0 device failed to appear after 15.0 seconds: Connection timed out


           ************************************************************
           *        Program running with 12 parallel MPI-processes    *
           *              working on a common directory               *
           ************************************************************
-------------------------------------------------------------------------------
                                 ORCA SCF
-------------------------------------------------------------------------------

------------
SCF SETTINGS
------------
Hamiltonian:
 Density Functional     Method          .... DFT(GTOs)
 Exchange Functional    Exchange        .... B88
   X-Alpha parameter    XAlpha          ....  0.666667
   Becke's b parameter  XBeta           ....  0.004200
 Correlation Functional Correlation     .... LYP
 LDA part of GGA corr.  LDAOpt          .... VWN-5
 Gradients option       PostSCFGGA      .... off
 Hybrid DFT is turned on
   Fraction HF Exchange ScalHFX         ....  0.200000
   Scaling of DF-GGA-X  ScalDFX         ....  0.720000
   Scaling of DF-GGA-C  ScalDFC         ....  0.810000
   Scaling of DF-LDA-C  ScalLDAC        ....  1.000000
   Perturbative correction              ....  0.000000
   NL short-range parameter             ....  4.800000
 RI-approximation to the Coulomb term is turned on
   Number of auxiliary basis functions  .... 1136
   RIJ-COSX (HFX calculated with COS-X)).... on


General Settings:
 Integral files         IntName         .... 0_B3LYP_GasPhase_onB3LYP_16_waters
 Hartree-Fock type      HFTyp           .... RHF
 Total Charge           Charge          ....    0
 Multiplicity           Mult            ....    1
 Number of Electrons    NEL             ....  160
 Basis Dimension        Dim             ....  688
 Nuclear Repulsion      ENuc            ....   1663.2417123085 Eh

Convergence Acceleration:
 DIIS                   CNVDIIS         .... on
   Start iteration      DIISMaxIt       ....    12
   Startup error        DIISStart       ....  0.200000
   # of expansion vecs  DIISMaxEq       ....     5
   Bias factor          DIISBfac        ....   1.050
   Max. coefficient     DIISMaxC        ....  10.000
 Newton-Raphson         CNVNR           .... off
 SOSCF                  CNVSOSCF        .... on
   Start iteration      SOSCFMaxIt      ....   150
   Startup grad/error   SOSCFStart      ....  0.003300
 Level Shifting         CNVShift        .... on
   Level shift para.    LevelShift      ....    0.2500
   Turn off err/grad.   ShiftErr        ....    0.0010
 Zerner damping         CNVZerner       .... off
 Static damping         CNVDamp         .... on
   Fraction old density DampFac         ....    0.7000
   Max. Damping (<1)    DampMax         ....    0.9800
   Min. Damping (>=0)   DampMin         ....    0.0000
   Turn off err/grad.   DampErr         ....    0.1000
 Fernandez-Rico         CNVRico         .... off

SCF Procedure:
 Maximum # iterations   MaxIter         ....   400
 SCF integral mode      SCFMode         .... Direct
   Integral package                     .... LIBINT
 Reset frequeny         DirectResetFreq ....    20
 Integral Threshold     Thresh          ....  2.500e-11 Eh
 Primitive CutOff       TCut            ....  2.500e-12 Eh

Convergence Tolerance:
 Convergence Check Mode ConvCheckMode   .... Total+1el-Energy
 Energy Change          TolE            ....  1.000e-08 Eh
 1-El. energy change                    ....  1.000e-05 Eh
 Orbital Gradient       TolG            ....  1.000e-05
 Orbital Rotation angle TolX            ....  1.000e-05
 DIIS Error             TolErr          ....  5.000e-07


Diagonalization of the overlap matrix:
Smallest eigenvalue                        ... 2.138e-03
Time for diagonalization                   ...    0.098 sec
Threshold for overlap eigenvalues          ... 1.000e-08
Number of eigenvalues below threshold      ... 0
Time for construction of square roots      ...    0.045 sec
Total time needed                          ...    0.144 sec

-------------------
DFT GRID GENERATION
-------------------

General Integration Accuracy     IntAcc      ...  4.670
Radial Grid Type                 RadialGrid  ... Gauss-Chebyshev
Angular Grid (max. acc.)         AngularGrid ... Lebedev-302
Angular grid pruning method      GridPruning ... 3 (G Style)
Weight generation scheme         WeightScheme... Becke
Basis function cutoff            BFCut       ...    1.0000e-11
Integration weight cutoff        WCut        ...    1.0000e-14
Grids for H and He will be reduced by one unit

# of grid points (after initial pruning)     ... 208000 (   0.0 sec)
# of grid points (after weights+screening)   ... 181648 (   0.8 sec)
nearest neighbour list constructed           ...    0.0 sec
Grid point re-assignment to atoms done       ...    0.0 sec
Grid point division into batches done        ...    0.4 sec
Reduced shell lists constructed in    0.6 sec

Total number of grid points                  ...   181648
Total number of batches                      ...     2864
Average number of points per batch           ...       63
Average number of grid points per atom       ...     3784
Average number of shells per batch           ...    99.50 (32.73%)
Average number of basis functions per batch  ...   189.29 (27.51%)
Average number of large shells per batch     ...    60.88 (61.18%)
Average number of large basis fcns per batch ...   113.65 (60.04%)
Maximum spatial batch extension              ...  12.59, 13.02, 12.76 au
Average spatial batch extension              ...   0.17,  0.17,  0.17 au

Time for grid setup =    1.671 sec

------------------------------
INITIAL GUESS: MODEL POTENTIAL
------------------------------
Loading Hartree-Fock densities                     ... done
Calculating cut-offs                               ... done
Setting up the integral package                    ... done
Initializing the effective Hamiltonian             ... done
Starting the Coulomb interaction                   ... done (   0.2 sec)
Reading the grid                                   ... done
Mapping shells                                     ... done
Starting the XC term evaluation                    ... done (   0.4 sec)
  promolecular density results
     # of electrons  =    159.985294223
     EX              =   -140.715282841
     EC              =     -5.562449944
     EX+EC           =   -146.277732785
Transforming the Hamiltonian                       ... done (   0.0 sec)
Diagonalizing the Hamiltonian                      ... done (   0.1 sec)
Back transforming the eigenvectors                 ... done (   0.0 sec)
Now organizing SCF variables                       ... done
                      ------------------
                      INITIAL GUESS DONE (   2.5 sec)
                      ------------------
--------------------
COSX GRID GENERATION
--------------------

General Integration Accuracy     IntAcc      ...  3.340
Radial Grid Type                 RadialGrid  ... Gauss-Chebyshev
Angular Grid (max. acc.)         AngularGrid ... Lebedev-50
Angular grid pruning method      GridPruning ... 3 (G Style)
Weight generation scheme         WeightScheme... Becke
Basis function cutoff            BFCut       ...    1.0000e-11
Integration weight cutoff        WCut        ...    1.0000e-14
Grids for H and He will be reduced by one unit

# of grid points (after initial pruning)     ...  19520 (   0.0 sec)
# of grid points (after weights+screening)   ...  17331 (   0.1 sec)
nearest neighbour list constructed           ...    0.0 sec
Grid point re-assignment to atoms done       ...    0.0 sec
Grid point division into batches done        ...    0.0 sec
Reduced shell lists constructed in    0.0 sec

Total number of grid points                  ...    17331
Total number of batches                      ...      290
Average number of points per batch           ...       59
Average number of grid points per atom       ...      361
Average number of shells per batch           ...   116.50 (38.32%)
Average number of basis functions per batch  ...   230.19 (33.46%)
Average number of large shells per batch     ...    71.81 (61.64%)
Average number of large basis fcns per batch ...   136.96 (59.50%)
Maximum spatial batch extension              ...  15.76, 14.42, 15.19 au
Average spatial batch extension              ...   0.36,  0.34,  0.34 au

Overlap Fitting                  UseSFitting ... on
Constructing numerical overlap ... done (      0.0 sec)
Inverting numerical overlap    ... done (      0.0 sec)
Obtaining analytic overlap     ... done (      0.0 sec)
Final contraction and storage  ... done (      0.0 sec)


General Integration Accuracy     IntAcc      ...  3.670
Radial Grid Type                 RadialGrid  ... Gauss-Chebyshev
Angular Grid (max. acc.)         AngularGrid ... Lebedev-50
Angular grid pruning method      GridPruning ... 3 (G Style)
Weight generation scheme         WeightScheme... Becke
Basis function cutoff            BFCut       ...    1.0000e-11
Integration weight cutoff        WCut        ...    1.0000e-14
Grids for H and He will be reduced by one unit

# of grid points (after initial pruning)     ...  25632 (   0.0 sec)
# of grid points (after weights+screening)   ...  22736 (   0.0 sec)
nearest neighbour list constructed           ...    0.0 sec
Grid point re-assignment to atoms done       ...    0.0 sec
Grid point division into batches done        ...    0.0 sec
Reduced shell lists constructed in    0.0 sec

Total number of grid points                  ...    22736
Total number of batches                      ...      380
Average number of points per batch           ...       59
Average number of grid points per atom       ...      474
Average number of shells per batch           ...   113.97 (37.49%)
Average number of basis functions per batch  ...   224.09 (32.57%)
Average number of large shells per batch     ...    69.73 (61.18%)
Average number of large basis fcns per batch ...   132.09 (58.95%)
Maximum spatial batch extension              ...  15.35, 15.32, 16.16 au
Average spatial batch extension              ...   0.35,  0.32,  0.32 au

Overlap Fitting                  UseSFitting ... on
Constructing numerical overlap ... done (      0.0 sec)
Inverting numerical overlap    ... done (      0.0 sec)
Obtaining analytic overlap     ... done (      0.0 sec)
Final contraction and storage  ... done (      0.0 sec)


General Integration Accuracy     IntAcc      ...  4.010
Radial Grid Type                 RadialGrid  ... Gauss-Chebyshev
Angular Grid (max. acc.)         AngularGrid ... Lebedev-110
Angular grid pruning method      GridPruning ... 3 (G Style)
Weight generation scheme         WeightScheme... Becke
Basis function cutoff            BFCut       ...    1.0000e-11
Integration weight cutoff        WCut        ...    1.0000e-14
Grids for H and He will be reduced by one unit

# of grid points (after initial pruning)     ...  44128 (   0.0 sec)
# of grid points (after weights+screening)   ...  39406 (   0.1 sec)
nearest neighbour list constructed           ...    0.0 sec
Grid point re-assignment to atoms done       ...    0.0 sec
Grid point division into batches done        ...    0.0 sec
Reduced shell lists constructed in    0.1 sec

Total number of grid points                  ...    39406
Total number of batches                      ...      639
Average number of points per batch           ...       61
Average number of grid points per atom       ...      821
Average number of shells per batch           ...   110.75 (36.43%)
Average number of basis functions per batch  ...   215.73 (31.36%)
Average number of large shells per batch     ...    68.35 (61.71%)
Average number of large basis fcns per batch ...   129.36 (59.97%)
Maximum spatial batch extension              ...  16.46, 14.30, 17.59 au
Average spatial batch extension              ...   0.28,  0.28,  0.28 au

Overlap Fitting                  UseSFitting ... on
Constructing numerical overlap ... done (      0.0 sec)
Inverting numerical overlap    ... done (      0.0 sec)
Obtaining analytic overlap     ... done (      0.0 sec)
Final contraction and storage  ... done (      0.0 sec)

Time for X-Grid setup             =    0.666 sec
--------------
SCF ITERATIONS
--------------
ITER       Energy         Delta-E        Max-DP      RMS-DP      [F,P]     Damp
               ***  Starting incremental Fock matrix formation  ***
  0  -1221.8435923191   0.000000000000 0.05234830  0.00090304  0.3084427 0.7000
  1  -1222.4525413536  -0.608949034520 0.03147445  0.00055976  0.1303718 0.7000
                               ***Turning on DIIS***
  2  -1222.6556519689  -0.203110615271 0.03222204  0.00069249  0.0330601 0.0000
  3  -1223.0039794790  -0.348327510049 0.02110067  0.00035236  0.0754110 0.0000
  4  -1223.0734022043  -0.069422725369 0.00504991  0.00010536  0.0156483 0.0000
                      *** Initiating the SOSCF procedure ***
                           *** Shutting down DIIS ***
                      *** Re-Reading the Fockian *** 
                      *** Removing any level shift *** 
ITER      Energy       Delta-E        Grad      Rot      Max-DP    RMS-DP
  5  -1223.07612910  -0.0027269000  0.000630  0.000630  0.001961  0.000035
               *** Restarting incremental Fock matrix formation ***
  6  -1223.07626564  -0.0001365385  0.000319  0.000770  0.001286  0.000022
  7  -1223.07626025   0.0000053889  0.000322  0.000178  0.000747  0.000007
  8  -1223.07628428  -0.0000240300  0.000015  0.000035  0.000094  0.000002
  9  -1223.07628429  -0.0000000014  0.000028  0.000017  0.000060  0.000001
 10  -1223.07628449  -0.0000001999  0.000003  0.000006  0.000017  0.000000
 11  -1223.07628454  -0.0000000578  0.000003  0.000002  0.000007  0.000000
                  ***Gradient check signals convergence***
              ***Rediagonalizing the Fockian in SOSCF/NRSCF***

               *****************************************************
               *                     SUCCESS                       *
               *           SCF CONVERGED AFTER  12 CYCLES          *
               *****************************************************

Setting up the final grid:

General Integration Accuracy     IntAcc      ...  5.010
Radial Grid Type                 RadialGrid  ... Gauss-Chebyshev
Angular Grid (max. acc.)         AngularGrid ... Lebedev-434
Angular grid pruning method      GridPruning ... 3 (G Style)
Weight generation scheme         WeightScheme... Becke
Basis function cutoff            BFCut       ...    1.0000e-11
Integration weight cutoff        WCut        ...    1.0000e-14
Grids for H and He will be reduced by one unit

# of grid points (after initial pruning)     ... 387616 (   0.0 sec)
# of grid points (after weights+screening)   ... 337345 (   1.5 sec)
nearest neighbour list constructed           ...    0.0 sec
Grid point re-assignment to atoms done       ...    0.0 sec
Grid point division into batches done        ...    1.5 sec
Reduced shell lists constructed in    1.9 sec

Total number of grid points                  ...   337345
Total number of batches                      ...     5298
Average number of points per batch           ...       63
Average number of grid points per atom       ...     7028
Average number of shells per batch           ...    95.91 (31.55%)
Average number of basis functions per batch  ...   180.72 (26.27%)
Average number of large shells per batch     ...    58.89 (61.41%)
Average number of large basis fcns per batch ...   109.59 (60.64%)
Maximum spatial batch extension              ...  19.50, 15.24, 14.68 au
Average spatial batch extension              ...   0.14,  0.14,  0.14 au

Final grid set up in    3.8 sec
Final integration                            ... done (   0.8 sec)
Change in XC energy                          ...     0.000074681
Integrated number of electrons               ...   160.000443257
Previous integrated no of electrons          ...   160.001100926
Old exchange energy                            =    -28.585732700 Eh
New exchange energy                            =    -28.584545336 Eh
Exchange energy change after final integration =      0.001187364 Eh
Total energy after final integration           =  -1223.075022397 Eh
Final COS-X integration done in                =     7.030 sec

----------------
TOTAL SCF ENERGY
----------------

Total Energy       :        -1223.07502240 Eh          -33281.56336 eV

Components:
Nuclear Repulsion  :         1663.24171231 Eh           45259.10792 eV
Electronic Energy  :        -2886.31673471 Eh          -78540.67128 eV

One Electron Energy:        -5000.62243351 Eh         -136073.85428 eV
Two Electron Energy:         2114.30569881 Eh           57533.18300 eV

Virial components:
Potential Energy   :        -2441.58042804 Eh          -66438.78113 eV
Kinetic Energy     :         1218.50540564 Eh           33157.21777 eV
Virial Ratio       :            2.00375018


DFT components:
N(Alpha)           :       80.000221628417 electrons
N(Beta)            :       80.000221628417 electrons
N(Total)           :      160.000443256834 electrons
E(X)               :     -113.926649518742 Eh       
E(C)               :       -6.568355042637 Eh       
E(XC)              :     -120.495004561379 Eh       

---------------
SCF CONVERGENCE
---------------

  Last Energy change         ...    1.0052e-07  Tolerance :   1.0000e-08
  Last MAX-Density change    ...    1.3933e-14  Tolerance :   1.0000e-07
  Last RMS-Density change    ...    1.9205e-16  Tolerance :   5.0000e-09
  Last Orbital Gradient      ...    6.0523e-07  Tolerance :   1.0000e-05
  Last Orbital Rotation      ...    6.4739e-07  Tolerance :   1.0000e-05

             **** THE GBW FILE WAS UPDATED (0_B3LYP_GasPhase_onB3LYP_16_waters.gbw) ****
             **** DENSITY FILE WAS UPDATED (0_B3LYP_GasPhase_onB3LYP_16_waters.scfp.tmp) ****
             **** ENERGY FILE WAS UPDATED (0_B3LYP_GasPhase_onB3LYP_16_waters.en.tmp) ****
----------------
ORBITAL ENERGIES
----------------

  NO   OCC          E(Eh)            E(eV) 
   0   2.0000     -19.145031      -520.9628 
   1   2.0000     -19.144526      -520.9490 
   2   2.0000     -19.143892      -520.9318 
   3   2.0000     -19.143306      -520.9158 
   4   2.0000     -19.132140      -520.6120 
   5   2.0000     -19.132034      -520.6091 
   6   2.0000     -19.130506      -520.5675 
   7   2.0000     -19.130055      -520.5553 
   8   2.0000     -19.129952      -520.5525 
   9   2.0000     -19.129050      -520.5279 
  10   2.0000     -19.128731      -520.5192 
  11   2.0000     -19.127713      -520.4915 
  12   2.0000     -19.124825      -520.4129 
  13   2.0000     -19.124293      -520.3985 
  14   2.0000     -19.124221      -520.3965 
  15   2.0000     -19.123082      -520.3655 
  16   2.0000      -1.044209       -28.4144 
  17   2.0000      -1.038954       -28.2714 
  18   2.0000      -1.030516       -28.0418 
  19   2.0000      -1.029554       -28.0156 
  20   2.0000      -1.028888       -27.9975 
  21   2.0000      -1.021088       -27.7852 
  22   2.0000      -1.020245       -27.7623 
  23   2.0000      -1.019298       -27.7365 
  24   2.0000      -1.009590       -27.4723 
  25   2.0000      -1.009259       -27.4633 
  26   2.0000      -1.006270       -27.3820 
  27   2.0000      -1.002208       -27.2715 
  28   2.0000      -1.001782       -27.2599 
  29   2.0000      -1.001369       -27.2486 
  30   2.0000      -0.994029       -27.0489 
  31   2.0000      -0.986593       -26.8465 
  32   2.0000      -0.561436       -15.2774 
  33   2.0000      -0.556457       -15.1420 
  34   2.0000      -0.553177       -15.0527 
  35   2.0000      -0.550939       -14.9918 
  36   2.0000      -0.548245       -14.9185 
  37   2.0000      -0.546026       -14.8581 
  38   2.0000      -0.543803       -14.7976 
  39   2.0000      -0.542242       -14.7551 
  40   2.0000      -0.535103       -14.5609 
  41   2.0000      -0.532101       -14.4792 
  42   2.0000      -0.530330       -14.4310 
  43   2.0000      -0.527170       -14.3450 
  44   2.0000      -0.526833       -14.3359 
  45   2.0000      -0.524176       -14.2635 
  46   2.0000      -0.520597       -14.1662 
  47   2.0000      -0.518847       -14.1185 
  48   2.0000      -0.477918       -13.0048 
  49   2.0000      -0.459160       -12.4944 
  50   2.0000      -0.445091       -12.1116 
  51   2.0000      -0.442341       -12.0367 
  52   2.0000      -0.434011       -11.8100 
  53   2.0000      -0.428395       -11.6572 
  54   2.0000      -0.421716       -11.4755 
  55   2.0000      -0.416364       -11.3299 
  56   2.0000      -0.406033       -11.0487 
  57   2.0000      -0.403888       -10.9904 
  58   2.0000      -0.400611       -10.9012 
  59   2.0000      -0.396946       -10.8015 
  60   2.0000      -0.382966       -10.4210 
  61   2.0000      -0.379461       -10.3256 
  62   2.0000      -0.371488       -10.1087 
  63   2.0000      -0.355355        -9.6697 
  64   2.0000      -0.340785        -9.2732 
  65   2.0000      -0.339663        -9.2427 
  66   2.0000      -0.338507        -9.2112 
  67   2.0000      -0.336813        -9.1651 
  68   2.0000      -0.332435        -9.0460 
  69   2.0000      -0.331959        -9.0331 
  70   2.0000      -0.330208        -8.9854 
  71   2.0000      -0.327461        -8.9107 
  72   2.0000      -0.326928        -8.8962 
  73   2.0000      -0.325706        -8.8629 
  74   2.0000      -0.321906        -8.7595 
  75   2.0000      -0.320801        -8.7294 
  76   2.0000      -0.319258        -8.6875 
  77   2.0000      -0.318636        -8.6705 
  78   2.0000      -0.318451        -8.6655 
  79   2.0000      -0.317306        -8.6343 
  80   0.0000      -0.002100        -0.0571 
  81   0.0000       0.009906         0.2696 
  82   0.0000       0.029132         0.7927 
  83   0.0000       0.029236         0.7955 
  84   0.0000       0.046305         1.2600 
  85   0.0000       0.074084         2.0159 
  86   0.0000       0.074693         2.0325 
  87   0.0000       0.087834         2.3901 
  88   0.0000       0.110199         2.9987 
  89   0.0000       0.111980         3.0471 
  90   0.0000       0.116602         3.1729 
  91   0.0000       0.120437         3.2772 
  92   0.0000       0.143539         3.9059 
  93   0.0000       0.154200         4.1960 
  94   0.0000       0.155224         4.2239 
  95   0.0000       0.163425         4.4470 
  96   0.0000       0.175898         4.7864 
  97   0.0000       0.184345         5.0163 
  98   0.0000       0.188877         5.1396 
  99   0.0000       0.192081         5.2268 
 100   0.0000       0.195498         5.3198 
 101   0.0000       0.199999         5.4422 
 102   0.0000       0.201286         5.4773 
 103   0.0000       0.204614         5.5678 
 104   0.0000       0.210842         5.7373 
 105   0.0000       0.214197         5.8286 
 106   0.0000       0.217274         5.9123 
 107   0.0000       0.219358         5.9690 
 108   0.0000       0.227310         6.1854 
 109   0.0000       0.229375         6.2416 
 110   0.0000       0.237347         6.4585 
 111   0.0000       0.238003         6.4764 
 112   0.0000       0.264085         7.1861 
 113   0.0000       0.277394         7.5483 
 114   0.0000       0.279245         7.5987 
 115   0.0000       0.288244         7.8435 
 116   0.0000       0.290286         7.8991 
 117   0.0000       0.298462         8.1216 
 118   0.0000       0.315972         8.5980 
 119   0.0000       0.319423         8.6919 
 120   0.0000       0.323044         8.7905 
 121   0.0000       0.325461         8.8562 
 122   0.0000       0.326144         8.8748 
 123   0.0000       0.329126         8.9560 
 124   0.0000       0.332827         9.0567 
 125   0.0000       0.335490         9.1291 
 126   0.0000       0.338873         9.2212 
 127   0.0000       0.343966         9.3598 
 128   0.0000       0.349227         9.5029 
 129   0.0000       0.358320         9.7504 
 130   0.0000       0.364259         9.9120 
 131   0.0000       0.368616        10.0305 
 132   0.0000       0.371184        10.1004 
 133   0.0000       0.374745        10.1973 
 134   0.0000       0.381830        10.3901 
 135   0.0000       0.383495        10.4354 
 136   0.0000       0.391262        10.6468 
 137   0.0000       0.396076        10.7778 
 138   0.0000       0.406759        11.0685 
 139   0.0000       0.417217        11.3531 
 140   0.0000       0.421147        11.4600 
 141   0.0000       0.429433        11.6855 
 142   0.0000       0.453517        12.3408 
 143   0.0000       0.456368        12.4184 
 144   0.0000       0.475095        12.9280 
 145   0.0000       0.476171        12.9573 
 146   0.0000       0.479484        13.0474 
 147   0.0000       0.482199        13.1213 
 148   0.0000       0.495341        13.4789 
 149   0.0000       0.498236        13.5577 
 150   0.0000       0.511670        13.9232 
 151   0.0000       0.516184        14.0461 
 152   0.0000       0.533389        14.5142 
 153   0.0000       0.535910        14.5828 
 154   0.0000       0.546328        14.8663 
 155   0.0000       0.548578        14.9276 
 156   0.0000       0.557392        15.1674 
 157   0.0000       0.566895        15.4260 
 158   0.0000       0.577064        15.7027 
 159   0.0000       0.584365        15.9014 
 160   0.0000       0.588416        16.0116 
 161   0.0000       0.595081        16.1930 
 162   0.0000       0.602775        16.4024 
 163   0.0000       0.613215        16.6864 
 164   0.0000       0.616332        16.7712 
 165   0.0000       0.626201        17.0398 
 166   0.0000       0.630103        17.1460 
 167   0.0000       0.636874        17.3302 
 168   0.0000       0.645789        17.5728 
 169   0.0000       0.653562        17.7843 
 170   0.0000       0.656697        17.8696 
 171   0.0000       0.658192        17.9103 
 172   0.0000       0.660938        17.9850 
 173   0.0000       0.665747        18.1159 
 174   0.0000       0.670123        18.2350 
 175   0.0000       0.675917        18.3926 
 176   0.0000       0.678497        18.4628 
 177   0.0000       0.702323        19.1112 
 178   0.0000       0.709629        19.3100 
 179   0.0000       0.721031        19.6202 
 180   0.0000       0.725953        19.7542 
 181   0.0000       0.737665        20.0729 
 182   0.0000       0.746291        20.3076 
 183   0.0000       0.754929        20.5427 
 184   0.0000       0.760010        20.6809 
 185   0.0000       0.777534        21.1578 
 186   0.0000       0.790538        21.5116 
 187   0.0000       0.806028        21.9331 
 188   0.0000       0.811848        22.0915 
 189   0.0000       0.823106        22.3979 
 190   0.0000       0.829586        22.5742 
 191   0.0000       0.833126        22.6705 
 192   0.0000       0.843082        22.9414 
 193   0.0000       0.858886        23.3715 
 194   0.0000       0.865672        23.5561 
 195   0.0000       0.873518        23.7696 
 196   0.0000       0.885797        24.1038 
 197   0.0000       0.890664        24.2362 
 198   0.0000       0.896202        24.3869 
 199   0.0000       0.903664        24.5900 
 200   0.0000       0.922651        25.1066 
 201   0.0000       0.957428        26.0530 
 202   0.0000       0.974418        26.5153 
 203   0.0000       0.981521        26.7086 
 204   0.0000       0.984155        26.7802 
 205   0.0000       1.015897        27.6440 
 206   0.0000       1.066763        29.0281 
 207   0.0000       1.081153        29.4197 
 208   0.0000       1.103878        30.0380 
 209   0.0000       1.126975        30.6666 
 210   0.0000       1.130506        30.7626 
 211   0.0000       1.141000        31.0482 
 212   0.0000       1.143395        31.1134 
 213   0.0000       1.150581        31.3089 
 214   0.0000       1.155000        31.4291 
 215   0.0000       1.157751        31.5040 
 216   0.0000       1.168375        31.7931 
 217   0.0000       1.170367        31.8473 
 218   0.0000       1.174061        31.9478 
 219   0.0000       1.178406        32.0660 
 220   0.0000       1.182945        32.1896 
 221   0.0000       1.184423        32.2298 
 222   0.0000       1.193605        32.4797 
 223   0.0000       1.195303        32.5259 
 224   0.0000       1.207106        32.8470 
 225   0.0000       1.210288        32.9336 
 226   0.0000       1.219504        33.1844 
 227   0.0000       1.228008        33.4158 
 228   0.0000       1.258846        34.2549 
 229   0.0000       1.267182        34.4818 
 230   0.0000       1.275349        34.7040 
 231   0.0000       1.276822        34.7441 
 232   0.0000       1.282017        34.8855 
 233   0.0000       1.295586        35.2547 
 234   0.0000       1.303739        35.4765 
 235   0.0000       1.304568        35.4991 
 236   0.0000       1.307363        35.5752 
 237   0.0000       1.313517        35.7426 
 238   0.0000       1.318398        35.8754 
 239   0.0000       1.324231        36.0342 
 240   0.0000       1.332074        36.2476 
 241   0.0000       1.337783        36.4029 
 242   0.0000       1.341308        36.4989 
 243   0.0000       1.350123        36.7387 
 244   0.0000       1.353583        36.8329 
 245   0.0000       1.354607        36.8607 
 246   0.0000       1.364059        37.1179 
 247   0.0000       1.367315        37.2065 
 248   0.0000       1.374286        37.3962 
 249   0.0000       1.378249        37.5040 
 250   0.0000       1.382904        37.6307 
 251   0.0000       1.389975        37.8231 
 252   0.0000       1.397160        38.0187 
 253   0.0000       1.401423        38.1346 
 254   0.0000       1.405425        38.2436 
 255   0.0000       1.427992        38.8576 
 256   0.0000       1.549878        42.1743 
 257   0.0000       1.578015        42.9400 
 258   0.0000       1.604420        43.6585 
 259   0.0000       1.632586        44.4249 
 260   0.0000       1.639338        44.6087 
 261   0.0000       1.645016        44.7632 
 262   0.0000       1.646773        44.8110 
 263   0.0000       1.649769        44.8925 
 264   0.0000       1.656519        45.0762 
 265   0.0000       1.661390        45.2087 
 266   0.0000       1.666192        45.3394 
 267   0.0000       1.671332        45.4793 
 268   0.0000       1.682237        45.7760 
 269   0.0000       1.691355        46.0241 
 270   0.0000       1.697232        46.1840 
 271   0.0000       1.707383        46.4602 
 272   0.0000       1.708915        46.5020 
 273   0.0000       1.713784        46.6344 
 274   0.0000       1.714424        46.6519 
 275   0.0000       1.720581        46.8194 
 276   0.0000       1.733256        47.1643 
 277   0.0000       1.736682        47.2575 
 278   0.0000       1.743269        47.4368 
 279   0.0000       1.752752        47.6948 
 280   0.0000       1.758308        47.8460 
 281   0.0000       1.770979        48.1908 
 282   0.0000       1.776981        48.3541 
 283   0.0000       1.784643        48.5626 
 284   0.0000       1.786828        48.6221 
 285   0.0000       1.796322        48.8804 
 286   0.0000       1.805371        49.1266 
 287   0.0000       1.820288        49.5326 
 288   0.0000       1.832472        49.8641 
 289   0.0000       1.863412        50.7060 
 290   0.0000       1.864714        50.7414 
 291   0.0000       1.878459        51.1155 
 292   0.0000       1.886400        51.3316 
 293   0.0000       1.887780        51.3691 
 294   0.0000       1.893243        51.5178 
 295   0.0000       1.902038        51.7571 
 296   0.0000       1.905994        51.8647 
 297   0.0000       1.907514        51.9061 
 298   0.0000       1.927644        52.4539 
 299   0.0000       1.939801        52.7847 
 300   0.0000       1.948546        53.0226 
 301   0.0000       1.949126        53.0384 
 302   0.0000       1.954437        53.1829 
 303   0.0000       1.971584        53.6495 
 304   0.0000       1.972680        53.6794 
 305   0.0000       1.979201        53.8568 
 306   0.0000       1.985271        54.0220 
 307   0.0000       1.993073        54.2343 
 308   0.0000       1.999173        54.4003 
 309   0.0000       2.011070        54.7240 
 310   0.0000       2.014035        54.8047 
 311   0.0000       2.021741        55.0144 
 312   0.0000       2.025894        55.1274 
 313   0.0000       2.031295        55.2743 
 314   0.0000       2.037773        55.4506 
 315   0.0000       2.054940        55.9178 
 316   0.0000       2.070158        56.3319 
 317   0.0000       2.074118        56.4396 
 318   0.0000       2.080831        56.6223 
 319   0.0000       2.084463        56.7211 
 320   0.0000       2.091503        56.9127 
 321   0.0000       2.100544        57.1587 
 322   0.0000       2.107710        57.3537 
 323   0.0000       2.110028        57.4168 
 324   0.0000       2.125825        57.8466 
 325   0.0000       2.137793        58.1723 
 326   0.0000       2.144906        58.3659 
 327   0.0000       2.149465        58.4899 
 328   0.0000       2.166141        58.9437 
 329   0.0000       2.176716        59.2315 
 330   0.0000       2.186139        59.4879 
 331   0.0000       2.193682        59.6931 
 332   0.0000       2.203906        59.9713 
 333   0.0000       2.209806        60.1319 
 334   0.0000       2.215479        60.2862 
 335   0.0000       2.230370        60.6915 
 336   0.0000       2.232618        60.7526 
 337   0.0000       2.246260        61.1239 
 338   0.0000       2.250295        61.2336 
 339   0.0000       2.274016        61.8791 
 340   0.0000       2.276543        61.9479 
 341   0.0000       2.286906        62.2299 
 342   0.0000       2.293506        62.4095 
 343   0.0000       2.298156        62.5360 
 344   0.0000       2.301238        62.6199 
 345   0.0000       2.305228        62.7285 
 346   0.0000       2.310717        62.8778 
 347   0.0000       2.313536        62.9545 
 348   0.0000       2.318958        63.1021 
 349   0.0000       2.324752        63.2597 
 350   0.0000       2.326751        63.3141 
 351   0.0000       2.339907        63.6721 
 352   0.0000       2.341296        63.7099 
 353   0.0000       2.349072        63.9215 
 354   0.0000       2.350613        63.9634 
 355   0.0000       2.356976        64.1366 
 356   0.0000       2.361262        64.2532 
 357   0.0000       2.365825        64.3774 
 358   0.0000       2.369586        64.4797 
 359   0.0000       2.376552        64.6693 
 360   0.0000       2.382517        64.8316 
 361   0.0000       2.389805        65.0299 
 362   0.0000       2.394913        65.1689 
 363   0.0000       2.398155        65.2571 
 364   0.0000       2.402817        65.3840 
 365   0.0000       2.405753        65.4639 
 366   0.0000       2.424522        65.9746 
 367   0.0000       2.430677        66.1421 
 368   0.0000       2.434748        66.2528 
 369   0.0000       2.440669        66.4140 
 370   0.0000       2.453012        66.7498 
 371   0.0000       2.458340        66.8948 
 372   0.0000       2.468119        67.1609 
 373   0.0000       2.479513        67.4710 
 374   0.0000       2.486534        67.6620 
 375   0.0000       2.488128        67.7054 
 376   0.0000       2.507683        68.2375 
 377   0.0000       2.515171        68.4413 
 378   0.0000       2.522937        68.6526 
 379   0.0000       2.525704        68.7279 
 380   0.0000       2.543873        69.2223 
 381   0.0000       2.544856        69.2490 
 382   0.0000       2.564325        69.7788 
 383   0.0000       2.583176        70.2918 
 384   0.0000       2.589260        70.4574 
 385   0.0000       2.596463        70.6533 
 386   0.0000       2.604271        70.8658 
 387   0.0000       2.618900        71.2639 
 388   0.0000       2.622561        71.3635 
 389   0.0000       2.623914        71.4003 
 390   0.0000       2.626498        71.4706 
 391   0.0000       2.641835        71.8880 
 392   0.0000       2.648768        72.0766 
 393   0.0000       2.654051        72.2204 
 394   0.0000       2.660282        72.3900 
 395   0.0000       2.667049        72.5741 
 396   0.0000       2.674501        72.7769 
 397   0.0000       2.686596        73.1060 
 398   0.0000       2.693161        73.2846 
 399   0.0000       2.701258        73.5050 
 400   0.0000       2.708611        73.7051 
 401   0.0000       2.718474        73.9734 
 402   0.0000       2.723712        74.1160 
 403   0.0000       2.733915        74.3936 
 404   0.0000       2.747348        74.7592 
 405   0.0000       2.755564        74.9827 
 406   0.0000       2.762387        75.1684 
 407   0.0000       2.776304        75.5471 
 408   0.0000       2.779543        75.6352 
 409   0.0000       2.790405        75.9308 
 410   0.0000       2.795279        76.0634 
 411   0.0000       2.809617        76.4536 
 412   0.0000       2.826627        76.9164 
 413   0.0000       2.832570        77.0782 
 414   0.0000       2.844220        77.3952 
 415   0.0000       2.862240        77.8855 
 416   0.0000       2.874964        78.2317 
 417   0.0000       2.894235        78.7561 
 418   0.0000       2.909128        79.1614 
 419   0.0000       2.911548        79.2272 
 420   0.0000       2.940022        80.0021 
 421   0.0000       2.953036        80.3562 
 422   0.0000       2.954823        80.4048 
 423   0.0000       2.964543        80.6693 
 424   0.0000       2.969750        80.8110 
 425   0.0000       2.975612        80.9705 
 426   0.0000       2.985623        81.2429 
 427   0.0000       2.990683        81.3806 
 428   0.0000       2.996589        81.5413 
 429   0.0000       3.005959        81.7963 
 430   0.0000       3.009208        81.8847 
 431   0.0000       3.013959        82.0140 
 432   0.0000       3.024229        82.2935 
 433   0.0000       3.030757        82.4711 
 434   0.0000       3.056008        83.1582 
 435   0.0000       3.063139        83.3522 
 436   0.0000       3.078316        83.7652 
 437   0.0000       3.099451        84.3403 
 438   0.0000       3.099868        84.3517 
 439   0.0000       3.123674        84.9995 
 440   0.0000       3.143802        85.5472 
 441   0.0000       3.151431        85.7548 
 442   0.0000       3.163720        86.0892 
 443   0.0000       3.187739        86.7428 
 444   0.0000       3.193339        86.8952 
 445   0.0000       3.231578        87.9357 
 446   0.0000       3.245704        88.3201 
 447   0.0000       3.270282        88.9889 
 448   0.0000       3.703731       100.7836 
 449   0.0000       3.715313       101.0988 
 450   0.0000       3.726628       101.4067 
 451   0.0000       3.731166       101.5302 
 452   0.0000       3.737553       101.7040 
 453   0.0000       3.750645       102.0602 
 454   0.0000       3.754287       102.1593 
 455   0.0000       3.758384       102.2708 
 456   0.0000       3.765595       102.4670 
 457   0.0000       3.782689       102.9322 
 458   0.0000       3.804390       103.5227 
 459   0.0000       3.826867       104.1343 
 460   0.0000       3.834132       104.3320 
 461   0.0000       3.847755       104.7027 
 462   0.0000       3.859890       105.0329 
 463   0.0000       3.871412       105.3465 
 464   0.0000       3.904482       106.2464 
 465   0.0000       3.917429       106.5987 
 466   0.0000       3.924485       106.7907 
 467   0.0000       3.925736       106.8247 
 468   0.0000       3.933893       107.0467 
 469   0.0000       3.937649       107.1489 
 470   0.0000       3.948607       107.4471 
 471   0.0000       3.958760       107.7233 
 472   0.0000       3.975495       108.1787 
 473   0.0000       3.980401       108.3122 
 474   0.0000       3.991122       108.6039 
 475   0.0000       3.996998       108.7639 
 476   0.0000       4.013244       109.2059 
 477   0.0000       4.019167       109.3671 
 478   0.0000       4.043426       110.0272 
 479   0.0000       4.067670       110.6869 
 480   0.0000       5.080369       138.2439 
 481   0.0000       5.083289       138.3233 
 482   0.0000       5.084663       138.3607 
 483   0.0000       5.085834       138.3926 
 484   0.0000       5.087674       138.4427 
 485   0.0000       5.088689       138.4703 
 486   0.0000       5.088801       138.4733 
 487   0.0000       5.089373       138.4889 
 488   0.0000       5.090237       138.5124 
 489   0.0000       5.090678       138.5244 
 490   0.0000       5.091108       138.5361 
 491   0.0000       5.092432       138.5721 
 492   0.0000       5.094785       138.6362 
 493   0.0000       5.096182       138.6742 
 494   0.0000       5.097693       138.7153 
 495   0.0000       5.100654       138.7958 
 496   0.0000       5.172021       140.7379 
 497   0.0000       5.174196       140.7970 
 498   0.0000       5.184764       141.0846 
 499   0.0000       5.185291       141.0990 
 500   0.0000       5.196766       141.4112 
 501   0.0000       5.206882       141.6865 
 502   0.0000       5.209827       141.7666 
 503   0.0000       5.216122       141.9379 
 504   0.0000       5.226296       142.2147 
 505   0.0000       5.233390       142.4078 
 506   0.0000       5.237869       142.5297 
 507   0.0000       5.243837       142.6921 
 508   0.0000       5.245616       142.7405 
 509   0.0000       5.247332       142.7872 
 510   0.0000       5.252786       142.9356 
 511   0.0000       5.265654       143.2857 
 512   0.0000       5.315380       144.6389 
 513   0.0000       5.321292       144.7997 
 514   0.0000       5.322659       144.8369 
 515   0.0000       5.326715       144.9473 
 516   0.0000       5.330695       145.0556 
 517   0.0000       5.337146       145.2311 
 518   0.0000       5.341099       145.3387 
 519   0.0000       5.343046       145.3917 
 520   0.0000       5.344172       145.4223 
 521   0.0000       5.345301       145.4530 
 522   0.0000       5.355063       145.7187 
 523   0.0000       5.360791       145.8745 
 524   0.0000       5.362790       145.9289 
 525   0.0000       5.367134       146.0472 
 526   0.0000       5.371657       146.1702 
 527   0.0000       5.375075       146.2632 
 528   0.0000       5.379613       146.3867 
 529   0.0000       5.384282       146.5138 
 530   0.0000       5.386610       146.5771 
 531   0.0000       5.395725       146.8251 
 532   0.0000       5.402275       147.0034 
 533   0.0000       5.407509       147.1458 
 534   0.0000       5.411163       147.2452 
 535   0.0000       5.411966       147.2671 
 536   0.0000       5.413284       147.3029 
 537   0.0000       5.414803       147.3443 
 538   0.0000       5.417878       147.4279 
 539   0.0000       5.419667       147.4766 
 540   0.0000       5.423661       147.5853 
 541   0.0000       5.426476       147.6619 
 542   0.0000       5.428899       147.7279 
 543   0.0000       5.433531       147.8539 
 544   0.0000       5.434302       147.8749 
 545   0.0000       5.435761       147.9146 
 546   0.0000       5.438258       147.9825 
 547   0.0000       5.439616       148.0195 
 548   0.0000       5.442268       148.0916 
 549   0.0000       5.443455       148.1239 
 550   0.0000       5.446326       148.2021 
 551   0.0000       5.451157       148.3335 
 552   0.0000       5.452056       148.3580 
 553   0.0000       5.457386       148.5030 
 554   0.0000       5.458820       148.5420 
 555   0.0000       5.462097       148.6312 
 556   0.0000       5.467080       148.7668 
 557   0.0000       5.479648       149.1088 
 558   0.0000       5.494224       149.5054 
 559   0.0000       5.511380       149.9723 
 560   0.0000       5.919037       161.0652 
 561   0.0000       5.926479       161.2677 
 562   0.0000       5.931551       161.4057 
 563   0.0000       5.948135       161.8570 
 564   0.0000       5.951435       161.9468 
 565   0.0000       5.954664       162.0347 
 566   0.0000       5.955751       162.0642 
 567   0.0000       5.961565       162.2224 
 568   0.0000       5.963115       162.2646 
 569   0.0000       5.965986       162.3427 
 570   0.0000       5.968574       162.4132 
 571   0.0000       5.972096       162.5090 
 572   0.0000       5.980178       162.7289 
 573   0.0000       5.989046       162.9702 
 574   0.0000       5.995180       163.1371 
 575   0.0000       5.997572       163.2022 
 576   0.0000       6.091779       165.7657 
 577   0.0000       6.108002       166.2072 
 578   0.0000       6.140636       167.0952 
 579   0.0000       6.151695       167.3961 
 580   0.0000       6.169006       167.8672 
 581   0.0000       6.177746       168.1050 
 582   0.0000       6.193841       168.5430 
 583   0.0000       6.206370       168.8839 
 584   0.0000       6.212956       169.0631 
 585   0.0000       6.233479       169.6216 
 586   0.0000       6.241081       169.8284 
 587   0.0000       6.253749       170.1732 
 588   0.0000       6.273561       170.7123 
 589   0.0000       6.275638       170.7688 
 590   0.0000       6.277425       170.8174 
 591   0.0000       6.281963       170.9409 
 592   0.0000       6.299813       171.4266 
 593   0.0000       6.307988       171.6491 
 594   0.0000       6.324693       172.1037 
 595   0.0000       6.329184       172.2258 
 596   0.0000       6.340901       172.5447 
 597   0.0000       6.343956       172.6278 
 598   0.0000       6.345468       172.6690 
 599   0.0000       6.353809       172.8959 
 600   0.0000       6.360626       173.0814 
 601   0.0000       6.363608       173.1626 
 602   0.0000       6.370092       173.3390 
 603   0.0000       6.370765       173.3573 
 604   0.0000       6.381352       173.6454 
 605   0.0000       6.383591       173.7063 
 606   0.0000       6.388649       173.8440 
 607   0.0000       6.389692       173.8724 
 608   0.0000       6.396776       174.0651 
 609   0.0000       6.399847       174.1487 
 610   0.0000       6.403117       174.2377 
 611   0.0000       6.413077       174.5087 
 612   0.0000       6.415618       174.5778 
 613   0.0000       6.424671       174.8242 
 614   0.0000       6.427863       174.9110 
 615   0.0000       6.429774       174.9631 
 616   0.0000       6.434992       175.1050 
 617   0.0000       6.444979       175.3768 
 618   0.0000       6.457829       175.7265 
 619   0.0000       6.460185       175.7906 
 620   0.0000       6.465554       175.9367 
 621   0.0000       6.473407       176.1504 
 622   0.0000       6.479069       176.3044 
 623   0.0000       6.485773       176.4869 
 624   0.0000       6.496774       176.7862 
 625   0.0000       6.505705       177.0292 
 626   0.0000       6.517028       177.3373 
 627   0.0000       6.529158       177.6674 
 628   0.0000       6.548474       178.1930 
 629   0.0000       6.555228       178.3768 
 630   0.0000       6.574263       178.8948 
 631   0.0000       6.596287       179.4941 
 632   0.0000       6.617793       180.0793 
 633   0.0000       6.624900       180.2727 
 634   0.0000       6.640782       180.7049 
 635   0.0000       6.665543       181.3787 
 636   0.0000       6.682781       181.8477 
 637   0.0000       6.697186       182.2397 
 638   0.0000       6.710452       182.6007 
 639   0.0000       6.738969       183.3767 
 640   0.0000       6.846891       186.3134 
 641   0.0000       6.865934       186.8316 
 642   0.0000       6.892695       187.5598 
 643   0.0000       6.909427       188.0151 
 644   0.0000       6.938199       188.7980 
 645   0.0000       6.942227       188.9076 
 646   0.0000       6.970683       189.6819 
 647   0.0000       6.976672       189.8449 
 648   0.0000       6.988848       190.1762 
 649   0.0000       6.992917       190.2870 
 650   0.0000       7.002182       190.5391 
 651   0.0000       7.005150       190.6198 
 652   0.0000       7.010759       190.7724 
 653   0.0000       7.012365       190.8162 
 654   0.0000       7.044574       191.6926 
 655   0.0000       7.055538       191.9910 
 656   0.0000       7.057920       192.0558 
 657   0.0000       7.062010       192.1671 
 658   0.0000       7.081290       192.6917 
 659   0.0000       7.083559       192.7534 
 660   0.0000       7.093598       193.0266 
 661   0.0000       7.100231       193.2071 
 662   0.0000       7.108262       193.4256 
 663   0.0000       7.112888       193.5515 
 664   0.0000       7.119279       193.7254 
 665   0.0000       7.124257       193.8609 
 666   0.0000       7.132372       194.0817 
 667   0.0000       7.142284       194.3514 
 668   0.0000       7.168945       195.0769 
 669   0.0000       7.185609       195.5304 
 670   0.0000       7.203927       196.0288 
 671   0.0000       7.220202       196.4717 
 672   0.0000      43.407615      1181.1812 
 673   0.0000      43.409398      1181.2298 
 674   0.0000      43.436796      1181.9753 
 675   0.0000      43.442180      1182.1218 
 676   0.0000      43.472963      1182.9595 
 677   0.0000      43.474058      1182.9893 
 678   0.0000      43.495934      1183.5845 
 679   0.0000      43.524601      1184.3646 
 680   0.0000      43.550990      1185.0827 
 681   0.0000      43.558449      1185.2856 
 682   0.0000      43.563226      1185.4156 
 683   0.0000      43.606080      1186.5818 
 684   0.0000      43.666642      1188.2297 
 685   0.0000      43.672590      1188.3916 
 686   0.0000      43.733148      1190.0395 
 687   0.0000      43.865094      1193.6299 

                    ********************************
                    * MULLIKEN POPULATION ANALYSIS *
                    ********************************

-----------------------
MULLIKEN ATOMIC CHARGES
-----------------------
   0 O :   -0.727449
   1 H :    0.374004
   2 H :    0.332375
   3 O :   -0.723638
   4 H :    0.358252
   5 H :    0.362667
   6 O :   -0.728608
   7 H :    0.375183
   8 H :    0.348688
   9 O :   -0.679620
  10 H :    0.370304
  11 H :    0.355738
  12 O :   -0.726645
  13 H :    0.366605
  14 H :    0.333622
  15 O :   -0.728305
  16 H :    0.335492
  17 H :    0.361874
  18 O :   -0.732771
  19 H :    0.366487
  20 H :    0.349909
  21 O :   -0.677373
  22 H :    0.369066
  23 H :    0.348602
  24 O :   -0.726970
  25 H :    0.367002
  26 H :    0.334017
  27 O :   -0.743222
  28 H :    0.370867
  29 H :    0.351021
  30 O :   -0.670841
  31 H :    0.371907
  32 H :    0.350177
  33 O :   -0.728284
  34 H :    0.350262
  35 H :    0.370849
  36 O :   -0.740501
  37 H :    0.385328
  38 H :    0.341684
  39 O :   -0.681117
  40 H :    0.373346
  41 H :    0.349841
  42 O :   -0.731298
  43 H :    0.378330
  44 H :    0.355541
  45 O :   -0.726590
  46 H :    0.362824
  47 H :    0.351367
Sum of atomic charges:   -0.0000000

--------------------------------
MULLIKEN REDUCED ORBITAL CHARGES
--------------------------------
  0 O s       :     3.801857  s :     3.801857
      pz      :     1.624044  p :     4.907839
      px      :     1.608626
      py      :     1.675169
      dz2     :     0.000733  d :     0.016645
      dxz     :     0.006357
[...]
      py      :     1.680760
      dz2     :     0.003280  d :     0.028924
      dxz     :     0.009354
      dyz     :     0.010208
      dx2y2   :     0.001098
      dxy     :     0.004985
      f0      :     0.000091  f :     0.001987
      f+1     :     0.000469
      f-1     :     0.000514
      f+2     :     0.000066
      f-2     :     0.000712
      f+3     :     0.000113
      f-3     :     0.000023
 19 H s       :     0.674545  s :     0.674545
      pz      :     0.080943  p :     0.182613
      px      :     0.056163
      py      :     0.045507
 20 H s       :     0.671832  s :     0.671832
      pz      :     0.077831  p :     0.196798
      px      :     0.053328
      py      :     0.065638
 21 O s       :     3.451796  s :     3.451796
      pz      :     1.619597  p :     4.789927
      px      :     1.637252
      py      :     1.533078
      dz2     :     0.002468  d :     0.029655
      dxz     :     0.008442
      dyz     :     0.012064
      dx2y2   :     0.000280
      dxy     :     0.006401
      f0      :     0.000207  f :     0.002124
      f+1     :     0.000239
      f-1     :     0.000299
      f+2     :     0.000037
      f-2     :     0.000899
      f+3     :     0.000342
      f-3     :     0.000101
 22 H s       :     0.676337  s :     0.676337
      pz      :     0.053822  p :     0.172490
      px      :     0.056927
      py      :     0.061741
 23 H s       :     0.678934  s :     0.678934
      pz      :     0.075723  p :     0.182540
      px      :     0.050407
      py      :     0.056410
 24 O s       :     3.458278  s :     3.458278
      pz      :     1.447176  p :     4.810235
      px      :     1.698260
      py      :     1.664800
      dz2     :     0.015818  d :     0.028406
      dxz     :     0.001618
      dyz     :     0.001970
      dx2y2   :     0.000644
      dxy     :     0.008355
      f0      :     0.001068  f :     0.002131
      f+1     :     0.000116
      f-1     :     0.000290
      f+2     :     0.000025
      f-2     :     0.000096
      f+3     :     0.000309
      f-3     :     0.000228
 25 H s       :     0.652844  s :     0.652844
      pz      :     0.030270  p :     0.205780
      px      :     0.084982
      py      :     0.090528
 26 H s       :     0.680114  s :     0.680114
      pz      :     0.083100  p :     0.161469
      px      :     0.039059
      py      :     0.039310
 27 O s       :     3.449371  s :     3.449371
      pz      :     1.442651  p :     4.805353
      px      :     1.611123
      py      :     1.751579
      dz2     :     0.001404  d :     0.028890
      dxz     :     0.014989
      dyz     :     0.005163
      dx2y2   :     0.002790
      dxy     :     0.004545
      f0      :     0.000053  f :     0.001999
      f+1     :     0.000566
      f-1     :     0.000279
      f+2     :     0.000421
      f-2     :     0.000472
      f+3     :     0.000140
      f-3     :     0.000067
 28 H s       :     0.672815  s :     0.672815
      pz      :     0.071399  p :     0.185208
      px      :     0.075105
      py      :     0.038704
 29 H s       :     0.668838  s :     0.668838
      pz      :     0.081549  p :     0.198617
      px      :     0.050753
      py      :     0.066315
 30 O s       :     3.452228  s :     3.452228
      pz      :     1.375052  p :     4.785042
      px      :     1.624942
      py      :     1.785048
      dz2     :     0.002115  d :     0.030173
      dxz     :     0.013607
      dyz     :     0.007179
      dx2y2   :     0.002230
      dxy     :     0.005042
      f0      :     0.000037  f :     0.002092
      f+1     :     0.000637
      f-1     :     0.000392
      f+2     :     0.000329
      f-2     :     0.000527
      f+3     :     0.000099
      f-3     :     0.000071
 31 H s       :     0.675039  s :     0.675039
      pz      :     0.067405  p :     0.180084
      px      :     0.067231
      py      :     0.045447
 32 H s       :     0.681331  s :     0.681331
      pz      :     0.074494  p :     0.178065
      px      :     0.045117
      py      :     0.058454
 33 O s       :     3.454518  s :     3.454518
      pz      :     1.704469  p :     4.806404
      px      :     1.608879
      py      :     1.493056
      dz2     :     0.002364  d :     0.028520
      dxz     :     0.006568
      dyz     :     0.004827
      dx2y2   :     0.000377
      dxy     :     0.014384
      f0      :     0.000393  f :     0.002030
      f+1     :     0.000100
      f-1     :     0.000075
      f+2     :     0.000024
      f-2     :     0.000743
      f+3     :     0.000375
      f-3     :     0.000321
 34 H s       :     0.672062  s :     0.672062
      pz      :     0.043176  p :     0.194281
      px      :     0.072494
      py      :     0.078612
 35 H s       :     0.675062  s :     0.675062
      pz      :     0.058160  p :     0.171892
      px      :     0.057491
      py      :     0.056241
 36 O s       :     3.448525  s :     3.448525
      pz      :     1.628311  p :     4.803267
      px      :     1.495656
      py      :     1.679300
      dz2     :     0.002858  d :     0.028285
      dxz     :     0.011930
      dyz     :     0.004046
      dx2y2   :     0.002513
      dxy     :     0.006937
      f0      :     0.000160  f :     0.002022
      f+1     :     0.000436
      f-1     :     0.000065
      f+2     :     0.000506
      f-2     :     0.000357
      f+3     :     0.000329
      f-3     :     0.000170
 37 H s       :     0.669398  s :     0.669398
      pz      :     0.073990  p :     0.184388
      px      :     0.073693
      py      :     0.036705
 38 H s       :     0.671902  s :     0.671902
      pz      :     0.041530  p :     0.195607
      px      :     0.068053
      py      :     0.086024
 39 O s       :     3.449162  s :     3.449162
      pz      :     1.512214  p :     4.788557
      px      :     1.775061
      py      :     1.501282
      dz2     :     0.007334  d :     0.029632
      dxz     :     0.007654
      dyz     :     0.003573
      dx2y2   :     0.003500
      dxy     :     0.007570
      f0      :     0.000164  f :     0.002167
      f+1     :     0.000698
      f-1     :     0.000355
      f+2     :     0.000122
      f-2     :     0.000219
      f+3     :     0.000571
      f-3     :     0.000037
 40 H s       :     0.674341  s :     0.674341
      pz      :     0.084715  p :     0.175507
      px      :     0.057538
      py      :     0.033255
 41 H s       :     0.677809  s :     0.677809
      pz      :     0.033888  p :     0.180786
      px      :     0.056006
      py      :     0.090892
 42 O s       :     3.452210  s :     3.452210
      pz      :     1.539510  p :     4.802407
      px      :     1.699403
      py      :     1.563495
      dz2     :     0.006559  d :     0.028562
      dxz     :     0.006973
      dyz     :     0.004354
      dx2y2   :     0.000936
      dxy     :     0.009739
      f0      :     0.000143  f :     0.002014
      f+1     :     0.000538
      f-1     :     0.000432
      f+2     :     0.000034
      f-2     :     0.000315
      f+3     :     0.000433
      f-3     :     0.000119
 43 H s       :     0.671739  s :     0.671739
      pz      :     0.084032  p :     0.178215
      px      :     0.052482
      py      :     0.041701
 44 H s       :     0.670153  s :     0.670153
      pz      :     0.036290  p :     0.195002
      px      :     0.072359
      py      :     0.086353
 45 O s       :     3.457527  s :     3.457527
      pz      :     1.601519  p :     4.806111
      px      :     1.576335
      py      :     1.628257
      dz2     :     0.002402  d :     0.028818
      dxz     :     0.010555
      dyz     :     0.009210
      dx2y2   :     0.000754
      dxy     :     0.005897
      f0      :     0.000192  f :     0.002015
      f+1     :     0.000257
      f-1     :     0.000290
      f+2     :     0.000049
      f-2     :     0.000839
      f+3     :     0.000108
      f-3     :     0.000279
 46 H s       :     0.675813  s :     0.675813
      pz      :     0.057350  p :     0.180324
      px      :     0.070110
      py      :     0.052864
 47 H s       :     0.673013  s :     0.673013
      pz      :     0.081520  p :     0.190039
      px      :     0.049186
      py      :     0.059333


                      *****************************
                      * MAYER POPULATION ANALYSIS *
                      *****************************

  NA   - Mulliken gross atomic population
  ZA   - Total nuclear charge
  QA   - Mulliken gross atomic charge
  VA   - Mayer's total valence
  BVA  - Mayer's bonded valence
  FA   - Mayer's free valence

  ATOM       NA         ZA         QA         VA         BVA        FA
  0 O      8.7274     8.0000    -0.7274     1.7846     1.7846    -0.0000
  1 H      0.6260     1.0000     0.3740     0.9181     0.9181    -0.0000
  2 H      0.6676     1.0000     0.3324     0.9117     0.9117    -0.0000
  3 O      8.7236     8.0000    -0.7236     1.8042     1.8042    -0.0000
  4 H      0.6417     1.0000     0.3583     0.9326     0.9326    -0.0000
  5 H      0.6373     1.0000     0.3627     0.9276     0.9276    -0.0000
  6 O      8.7286     8.0000    -0.7286     1.8019     1.8019     0.0000
  7 H      0.6248     1.0000     0.3752     0.9045     0.9045     0.0000
  8 H      0.6513     1.0000     0.3487     0.9406     0.9406     0.0000
  9 O      8.6796     8.0000    -0.6796     1.8501     1.8501     0.0000
 10 H      0.6297     1.0000     0.3703     0.9064     0.9064     0.0000
 11 H      0.6443     1.0000     0.3557     0.9286     0.9286     0.0000
 12 O      8.7266     8.0000    -0.7266     1.7753     1.7753    -0.0000
 13 H      0.6334     1.0000     0.3666     0.9283     0.9283    -0.0000
 14 H      0.6664     1.0000     0.3336     0.9087     0.9087    -0.0000
 15 O      8.7283     8.0000    -0.7283     1.7684     1.7684     0.0000
 16 H      0.6645     1.0000     0.3355     0.9073     0.9073     0.0000
 17 H      0.6381     1.0000     0.3619     0.9377     0.9377     0.0000
 18 O      8.7328     8.0000    -0.7328     1.7861     1.7861     0.0000
 19 H      0.6335     1.0000     0.3665     0.9269     0.9269     0.0000
 20 H      0.6501     1.0000     0.3499     0.9385     0.9385     0.0000
 21 O      8.6774     8.0000    -0.6774     1.8480     1.8480    -0.0000
 22 H      0.6309     1.0000     0.3691     0.9059     0.9059     0.0000
 23 H      0.6514     1.0000     0.3486     0.9366     0.9366     0.0000
 24 O      8.7270     8.0000    -0.7270     1.7772     1.7772     0.0000
 25 H      0.6330     1.0000     0.3670     0.9284     0.9284     0.0000
 26 H      0.6660     1.0000     0.3340     0.9097     0.9097     0.0000
 27 O      8.7432     8.0000    -0.7432     1.7679     1.7679    -0.0000
 28 H      0.6291     1.0000     0.3709     0.9260     0.9260    -0.0000
 29 H      0.6490     1.0000     0.3510     0.9434     0.9434     0.0000
 30 O      8.6708     8.0000    -0.6708     1.8641     1.8641    -0.0000
 31 H      0.6281     1.0000     0.3719     0.9049     0.9049    -0.0000
 32 H      0.6498     1.0000     0.3502     0.9320     0.9320    -0.0000
 33 O      8.7283     8.0000    -0.7283     1.8017     1.8017    -0.0000
 34 H      0.6497     1.0000     0.3503     0.9408     0.9408    -0.0000
 35 H      0.6292     1.0000     0.3708     0.9085     0.9085    -0.0000
 36 O      8.7405     8.0000    -0.7405     1.7699     1.7699    -0.0000
 37 H      0.6147     1.0000     0.3853     0.9017     0.9017    -0.0000
 38 H      0.6583     1.0000     0.3417     0.9558     0.9558     0.0000
 39 O      8.6811     8.0000    -0.6811     1.8413     1.8413     0.0000
 40 H      0.6267     1.0000     0.3733     0.9035     0.9035    -0.0000
 41 H      0.6502     1.0000     0.3498     0.9366     0.9366     0.0000
 42 O      8.7313     8.0000    -0.7313     1.7978     1.7978     0.0000
 43 H      0.6217     1.0000     0.3783     0.9071     0.9071    -0.0000
 44 H      0.6445     1.0000     0.3555     0.9351     0.9351     0.0000
 45 O      8.7266     8.0000    -0.7266     1.7988     1.7988    -0.0000
 46 H      0.6372     1.0000     0.3628     0.9263     0.9263    -0.0000
 47 H      0.6486     1.0000     0.3514     0.9401     0.9401    -0.0000

  Mayer bond orders larger than 0.1
B(  0-O ,  1-H ) :   0.7298 B(  0-O ,  2-H ) :   0.8894 B(  0-O , 28-H ) :   0.1031 
B(  1-H , 39-O ) :   0.1768 B(  3-O ,  4-H ) :   0.7872 B(  3-O ,  5-H ) :   0.8247 
B(  3-O , 38-H ) :   0.1574 B(  4-H , 33-O ) :   0.1326 B(  6-O ,  7-H ) :   0.8325 
B(  6-O ,  8-H ) :   0.7805 B(  6-O , 47-H ) :   0.1354 B(  8-H , 27-O ) :   0.1372 
B(  9-O , 10-H ) :   0.8348 B(  9-O , 11-H ) :   0.8288 B(  9-O , 13-H ) :   0.1862 
B( 12-O , 13-H ) :   0.7294 B( 12-O , 14-H ) :   0.8905 B( 15-O , 16-H ) :   0.8891 
B( 15-O , 17-H ) :   0.7249 B( 17-H , 30-O ) :   0.1986 B( 18-O , 19-H ) :   0.8165 
B( 18-O , 20-H ) :   0.7792 B( 18-O , 34-H ) :   0.1406 B( 20-H , 36-O ) :   0.1392 
B( 21-O , 22-H ) :   0.8392 B( 21-O , 23-H ) :   0.8295 B( 21-O , 25-H ) :   0.1794 
B( 24-O , 25-H ) :   0.7359 B( 24-O , 26-H ) :   0.8895 B( 27-O , 28-H ) :   0.8065 
B( 27-O , 29-H ) :   0.7694 B( 29-H , 42-O ) :   0.1504 B( 30-O , 31-H ) :   0.8315 
B( 30-O , 32-H ) :   0.8382 B( 33-O , 34-H ) :   0.7812 B( 33-O , 35-H ) :   0.8344 
B( 36-O , 37-H ) :   0.8073 B( 36-O , 38-H ) :   0.7759 B( 39-O , 40-H ) :   0.8331 
B( 39-O , 41-H ) :   0.8297 B( 42-O , 43-H ) :   0.8196 B( 42-O , 44-H ) :   0.7790 
B( 44-H , 45-O ) :   0.1449 B( 45-O , 46-H ) :   0.8252 B( 45-O , 47-H ) :   0.7869 


-------
TIMINGS
-------

Total SCF time: 0 days 0 hours 1 min 5 sec 

Total time                  ....      65.297 sec
Sum of individual times     ....      61.507 sec  ( 94.2%)

Fock matrix formation       ....      49.068 sec  ( 75.1%)
  Coulomb formation         ....      43.566 sec  ( 88.8% of F)
  Split-RI-J                ....       5.270 sec  ( 10.7% of F)
  Chain of spheres X        ....      45.113 sec  ( 91.9% of F)
  COS-X 1 center corr.      ....       0.000 sec  (  0.0% of F)
  XC integration            ....       5.378 sec  ( 11.0% of F)
    Basis function eval.    ....       1.432 sec  ( 26.6% of XC)
    Density eval.           ....       1.301 sec  ( 24.2% of XC)
    XC-Functional eval.     ....       0.153 sec  (  2.9% of XC)
    XC-Potential eval.      ....       1.947 sec  ( 36.2% of XC)
Diagonalization             ....       0.980 sec  (  1.5%)
Density matrix formation    ....       0.105 sec  (  0.2%)
Population analysis         ....       0.932 sec  (  1.4%)
Initial guess               ....       2.527 sec  (  3.9%)
Orbital Transformation      ....       0.000 sec  (  0.0%)
Orbital Orthonormalization  ....       0.000 sec  (  0.0%)
DIIS solution               ....       0.348 sec  (  0.5%)
SOSCF solution              ....       1.364 sec  (  2.1%)
Grid generation             ....       6.183 sec  (  9.5%)
           ************************************************************
           *              Shut down parallel processing               *
           ************************************************************

Entering the calculation of the dispersion correction...

Checking the input atom types...

Done


-------------------------------------------------------------------------------
                          DFT DISPERSION CORRECTION                            
                                                                               
                                DFTD3 V2.1  Rev 6                               
                          USING Becke-Johnson damping                          
-------------------------------------------------------------------------------
The B3LYP functional is recognized
Active option DFTDOPT                   ...         4   

molecular C6(AA) [au] = 11390.095615 


            DFT-D V3
 parameters
 s6 scaling factor         :     1.0000 
 a1 scaling factor         :     0.3981 
 s8 scaling factor         :     1.9889 
 a2 scaling factor         :     4.4211 
 ad hoc parameters k1-k3   :    16.0000     1.3333    -4.0000 

 Edisp/kcal,au: -38.276611219794  -0.060997656161 
 E6   /kcal   : -21.185755527 
 E8   /kcal   : -17.090855693 
 % E8         :  44.650911218 

-------------------------   ----------------
Dispersion correction           -0.060997656
-------------------------   ----------------


-------------------------   --------------------
FINAL SINGLE POINT ENERGY     -1223.136020053489
-------------------------   --------------------


                            ***************************************
                            *     ORCA property calculations      *
                            ***************************************

                                    ---------------------
                                    Active property flags
                                    ---------------------
   (+) Dipole Moment


------------------------------------------------------------------------------
                       ORCA ELECTRIC PROPERTIES CALCULATION
------------------------------------------------------------------------------

Dipole Moment Calculation                       ... on
Quadrupole Moment Calculation                   ... off
Polarizability Calculation                      ... off
GBWName                                         ... 0_B3LYP_GasPhase_onB3LYP_16_waters.gbw
Electron density file                           ... 0_B3LYP_GasPhase_onB3LYP_16_waters.scfp.tmp

-------------
DIPOLE MOMENT
-------------
                                X             Y             Z
Electronic contribution:      0.05137      -0.02063      -0.02445
Nuclear contribution   :      0.10652       0.19517       0.07095
                        -----------------------------------------
Total Dipole Moment    :      0.15789       0.17453       0.04650
                        -----------------------------------------
Magnitude (a.u.)       :      0.23990
Magnitude (Debye)      :      0.60978

smp-n52.crc.pitt.edu.109399hfi_wait_for_device: The /dev/hfi1_0 device failed to appear after 15.0 seconds: Connection timed out
smp-n52.crc.pitt.edu.109401hfi_wait_for_device: The /dev/hfi1_0 device failed to appear after 15.0 seconds: Connection timed out
smp-n52.crc.pitt.edu.109402hfi_wait_for_device: The /dev/hfi1_0 device failed to appear after 15.0 seconds: Connection timed out
smp-n52.crc.pitt.edu.109403hfi_wait_for_device: The /dev/hfi1_0 device failed to appear after 15.0 seconds: Connection timed out
smp-n52.crc.pitt.edu.109406hfi_wait_for_device: The /dev/hfi1_0 device failed to appear after 15.0 seconds: Connection timed out
smp-n52.crc.pitt.edu.109408hfi_wait_for_device: The /dev/hfi1_0 device failed to appear after 15.0 seconds: Connection timed out
smp-n52.crc.pitt.edu.109410hfi_wait_for_device: The /dev/hfi1_0 device failed to appear after 15.0 seconds: Connection timed out
smp-n52.crc.pitt.edu.109412hfi_wait_for_device: The /dev/hfi1_0 device failed to appear after 15.0 seconds: Connection timed out
smp-n52.crc.pitt.edu.109414hfi_wait_for_device: The /dev/hfi1_0 device failed to appear after 15.0 seconds: Connection timed out
smp-n52.crc.pitt.edu.109400hfi_wait_for_device: The /dev/hfi1_0 device failed to appear after 15.0 seconds: Connection timed out
smp-n52.crc.pitt.edu.109404hfi_wait_for_device: The /dev/hfi1_0 device failed to appear after 15.0 seconds: Connection timed out
smp-n52.crc.pitt.edu.109416hfi_wait_for_device: The /dev/hfi1_0 device failed to appear after 15.0 seconds: Connection timed out

Timings for individual modules:

Sum of individual times         ...       99.322 sec (=   1.655 min)
GTO integral calculation        ...       15.976 sec (=   0.266 min)  16.1 %
SCF iterations                  ...       83.346 sec (=   1.389 min)  83.9 %
                             ****ORCA TERMINATED NORMALLY****
TOTAL RUN TIME: 0 days 0 hours 1 minutes 54 seconds 897 msec
cp: cannot stat ‘/scratch/slurm-1328783/*.{prop}’: No such file or directory
