21
Energy:   -236.81127828
O   -1.91750999   0.74960385  -0.78905273
H   -2.80940869   0.87431703  -1.11339079
H   -1.48046843   0.24641850  -1.47609788
O    1.62862620   0.05497958  -1.10144014
H    1.62670035  -0.57335827  -0.37934618
H    1.30049703   0.86654779  -0.71424491
O    0.87012363   0.82941749   2.48117937
H    0.56752891   1.33030479   3.23866218
H    0.67381760   1.38876367   1.72962922
O    1.19097500  -1.51469622   1.14839450
H    1.78522957  -2.09817714   1.62024550
H    1.10398346  -0.74969003   1.71710344
O   -0.57572435  -0.89429037  -2.42452928
H   -0.80786511  -1.55910258  -1.77617194
H    0.29833868  -0.60194320  -2.16611334
O    0.24010216   2.13925849   0.13931502
H   -0.57284583   1.72803397  -0.15435453
H    0.24623250   2.99376041  -0.29198619
O   -1.31084076  -1.94269278   0.02958549
H   -0.46724223  -1.89885971   0.47975439
H   -1.65891795  -1.05274245   0.08492560
