
                                 *****************
                                 * O   R   C   A *
                                 *****************

           --- An Ab Initio, DFT and Semiempirical electronic structure package ---

                  #######################################################
                  #                        -***-                        #
                  #          Department of theory and spectroscopy      #
                  #               Directorship: Frank Neese             #
                  #        Max Planck Institute fuer Kohlenforschung    #
                  #                Kaiser Wilhelm Platz 1               #
                  #                 D-45470 Muelheim/Ruhr               #
                  #                      Germany                        #
                  #                                                     #
                  #                  All rights reserved                #
                  #                        -***-                        #
                  #######################################################


                         Program Version 4.2.0 -  RELEASE  -


 With contributions from (in alphabetic order):
   Daniel Aravena         : Magnetic Suceptibility
   Michael Atanasov       : Ab Initio Ligand Field Theory (pilot matlab implementation)
   Alexander A. Auer      : GIAO ZORA, VPT2
   Ute Becker             : Parallelization
   Giovanni Bistoni       : ED, misc. LED, open-shell LED, HFLED
   Martin Brehm           : Molecular dynamics
   Dmytro Bykov           : SCF Hessian
   Vijay G. Chilkuri      : MRCI spin determinant printing, contributions to CSF-ICE
   Dipayan Datta          : RHF DLPNO-CCSD density
   Achintya Kumar Dutta   : EOM-CC, STEOM-CC
   Dmitry Ganyushin       : Spin-Orbit,Spin-Spin,Magnetic field MRCI
   Miquel Garcia          : C-PCM Hessian, Gaussian charge scheme
   Yang Guo               : DLPNO-NEVPT2, CIM, IAO-localization
   Andreas Hansen         : Spin unrestricted coupled pair/coupled cluster methods
   Benjamin Helmich-Paris : CASSCF linear response (MC-RPA)
   Lee Huntington         : MR-EOM, pCC
   Robert Izsak           : Overlap fitted RIJCOSX, COSX-SCS-MP3, EOM
   Christian Kollmar      : KDIIS, OOCD, Brueckner-CCSD(T), CCSD density
   Simone Kossmann        : Meta GGA functionals, TD-DFT gradient, OOMP2, MP2 Hessian
   Martin Krupicka        : AUTO-CI
   Lucas Lang             : DCDCAS
   Dagmar Lenk            : GEPOL surface, SMD
   Dimitrios Liakos       : Extrapolation schemes; Compound Job, initial MDCI parallelization
   Dimitrios Manganas     : Further ROCIS development; embedding schemes
   Dimitrios Pantazis     : SARC Basis sets
   Taras Petrenko         : DFT Hessian,TD-DFT gradient, ASA, ECA, R-Raman, ABS, FL, XAS/XES, NRVS
   Peter Pinski           : DLPNO-MP2, DLPNO-MP2 Gradient
   Christoph Reimann      : Effective Core Potentials
   Marius Retegan         : Local ZFS, SOC
   Christoph Riplinger    : Optimizer, TS searches, QM/MM, DLPNO-CCSD(T), (RO)-DLPNO pert. Triples
   Tobias Risthaus        : Range-separated hybrids, TD-DFT gradient, RPA, STAB
   Michael Roemelt        : Original ROCIS implementation
   Masaaki Saitow         : Open-shell DLPNO-CCSD energy and density
   Barbara Sandhoefer     : DKH picture change effects
   Avijit Sen             : IP-ROCIS
   Kantharuban Sivalingam : CASSCF convergence, NEVPT2, FIC-MRCI
   Bernardo de Souza      : ESD, SOC TD-DFT
   Georgi Stoychev        : AutoAux, RI-MP2 NMR
   Willem Van den Heuvel  : Paramagnetic NMR
   Boris Wezisla          : Elementary symmetry handling
   Frank Wennmohs         : Technical directorship


 We gratefully acknowledge several colleagues who have allowed us to
 interface, adapt or use parts of their codes:
   Stefan Grimme, W. Hujo, H. Kruse,             : VdW corrections, initial TS optimization,
                  C. Bannwarth                     DFT functionals, gCP, sTDA/sTD-DF
   Ed Valeev, F. Pavosevic, A. Kumar             : LibInt (2-el integral package), F12 methods
   Garnet Chan, S. Sharma, J. Yang, R. Olivares  : DMRG
   Ulf Ekstrom                                   : XCFun DFT Library
   Mihaly Kallay                                 : mrcc  (arbitrary order and MRCC methods)
   Andreas Klamt, Michael Diedenhofen            : otool_cosmo (COSMO solvation model)
   Jiri Pittner, Ondrej Demel                    : Mk-CCSD
   Frank Weinhold                                : gennbo (NPA and NBO analysis)
   Christopher J. Cramer and Donald G. Truhlar   : smd solvation model
   Lars Goerigk                                  : TD-DFT with DH, B97 family of functionals
   V. Asgeirsson, H. Jonsson                     : NEB implementation
   FAccTs GmbH                                   : IRC, NEB, NEB-TS, Multilevel, MM, QM/MM, CI optimization
   S Lehtola, MJT Oliveira, MAL Marques          : LibXC Library


 Your calculation uses the libint2 library for the computation of 2-el integrals
 For citations please refer to: http://libint.valeyev.net

 Your ORCA version has been built with support for libXC version: 4.2.3
 For citations please refer to: https://tddft.org/programs/libxc/

 This ORCA versions uses:
   CBLAS   interface :  Fast vector & matrix operations
   LAPACKE interface :  Fast linear algebra routines
   SCALAPACK package :  Parallel linear algebra routines


----- Orbital basis set information -----
Your calculation utilizes the basis: def2-TZVP
   F. Weigend and R. Ahlrichs, Phys. Chem. Chem. Phys. 7, 3297 (2005).

================================================================================
                                        WARNINGS
                       Please study these warnings very carefully!
================================================================================


WARNING: The frozen-core approximation for MP2-gradient calculations is turned on by default.

INFO   : the flag for use of LIBINT has been found!

================================================================================
                                       INPUT FILE
================================================================================
NAME = 12h2o.su.etal.mol1,2,4,7-orca.engrad-mp2.def2tzvp.frozencore.inp
|  1> # 12h2o.su.etal.mol1,2,4,7
|  2> ! MP2 def2-TZVP EnGrad TightSCF
|  3> 
|  4> %pal
|  5>     nprocs 6
|  6> end
|  7> 
|  8> %maxcore 8000
|  9> 
| 10> %scf
| 11>     ConvForced true
| 12> end
| 13> 
| 14> *xyz 0 1
| 15> O  -1.794470000  -0.923410000   2.768350000
| 16> H  -2.338250000  -1.359750000   3.430940000
| 17> H  -0.879480000  -1.303000000   2.865760000
| 18> O   0.923410000  -1.794470000  -2.768350000
| 19> H   1.359750000  -2.338250000  -3.430940000
| 20> H   1.303000000  -0.879480000  -2.865760000
| 21> O  -0.885520000   1.737840000   0.052730000
| 22> H  -1.032320000   2.090180000  -0.841890000
| 23> H  -1.284090000   0.839590000   0.017130000
| 24> O  -1.737840000  -0.885520000  -0.052730000
| 25> H  -2.090180000  -1.032320000   0.841890000
| 26> H  -0.839590000  -1.284090000  -0.017130000
| 27> *
| 28> 
| 29>                          ****END OF INPUT****
================================================================================

                     *******************************
                     * Energy+Gradient Calculation *
                     *******************************

---------------------------------
CARTESIAN COORDINATES (ANGSTROEM)
---------------------------------
  O     -1.794470   -0.923410    2.768350
  H     -2.338250   -1.359750    3.430940
  H     -0.879480   -1.303000    2.865760
  O      0.923410   -1.794470   -2.768350
  H      1.359750   -2.338250   -3.430940
  H      1.303000   -0.879480   -2.865760
  O     -0.885520    1.737840    0.052730
  H     -1.032320    2.090180   -0.841890
  H     -1.284090    0.839590    0.017130
  O     -1.737840   -0.885520   -0.052730
  H     -2.090180   -1.032320    0.841890
  H     -0.839590   -1.284090   -0.017130

----------------------------
CARTESIAN COORDINATES (A.U.)
----------------------------
  NO LB      ZA    FRAG     MASS         X           Y           Z
   0 O     8.0000    0    15.999   -3.391057   -1.744992    5.231423
   1 H     1.0000    0     1.008   -4.418652   -2.569555    6.483537
   2 H     1.0000    0     1.008   -1.661976   -2.462313    5.415502
   3 O     8.0000    0    15.999    1.744992   -3.391057   -5.231423
   4 H     1.0000    0     1.008    2.569555   -4.418652   -6.483537
   5 H     1.0000    0     1.008    2.462313   -1.661976   -5.415502
   6 O     8.0000    0    15.999   -1.673390    3.284042    0.099645
   7 H     1.0000    0     1.008   -1.950802    3.949868   -1.590942
   8 H     1.0000    0     1.008   -2.426578    1.586595    0.032371
   9 O     8.0000    0    15.999   -3.284042   -1.673390   -0.099645
  10 H     1.0000    0     1.008   -3.949868   -1.950802    1.590942
  11 H     1.0000    0     1.008   -1.586595   -2.426578   -0.032371

--------------------------------
INTERNAL COORDINATES (ANGSTROEM)
--------------------------------
 O      0   0   0     0.000000000000     0.00000000     0.00000000
 H      1   0   0     0.961828878803     0.00000000     0.00000000
 H      1   2   0     0.995381322057   106.21731035     0.00000000
 O      3   1   2     5.935920367146   102.58474291   140.89009172
 H      4   3   1     0.961828878803   146.97742434   224.01286022
 H      4   3   1     0.995381322057    97.62005672    87.72090689
 O      1   2   3     3.909352075396   156.75189195   192.19368952
 H      7   1   2     0.972645187106   148.25827701   289.33301105
 H      7   1   2     0.983350632989    46.29716176   266.74328444
 O      9   7   1     1.785153773264   170.81379649   273.82543867
 H     10   9   7     0.972645187106   101.65007623   109.44492584
 H     10   9   7     0.983350632989    99.09581498     3.33484705

---------------------------
INTERNAL COORDINATES (A.U.)
---------------------------
 O      0   0   0     0.000000000000     0.00000000     0.00000000
 H      1   0   0     1.817593168635     0.00000000     0.00000000
 H      1   2   0     1.880998097508   106.21731035     0.00000000
 O      3   1   2    11.217263846671   102.58474291   140.89009172
 H      4   3   1     1.817593168635   146.97742434   224.01286022
 H      4   3   1     1.880998097508    97.62005672    87.72090689
 O      1   2   3     7.387604783574   156.75189195   192.19368952
 H      7   1   2     1.838033029106   148.25827701   289.33301105
 H      7   1   2     1.858263389967    46.29716176   266.74328444
 O      9   7   1     3.373451738406   170.81379649   273.82543867
 H     10   9   7     1.838033029106   101.65007623   109.44492584
 H     10   9   7     1.858263389967    99.09581498     3.33484705

---------------------
BASIS SET INFORMATION
---------------------
There are 2 groups of distinct atoms

 Group   1 Type O   : 11s6p2d1f contracted to 5s3p2d1f pattern {62111/411/11/1}
 Group   2 Type H   : 5s1p contracted to 3s1p pattern {311/1}

Atom   0O    basis set group =>   1
Atom   1H    basis set group =>   2
Atom   2H    basis set group =>   2
Atom   3O    basis set group =>   1
Atom   4H    basis set group =>   2
Atom   5H    basis set group =>   2
Atom   6O    basis set group =>   1
Atom   7H    basis set group =>   2
Atom   8H    basis set group =>   2
Atom   9O    basis set group =>   1
Atom  10H    basis set group =>   2
Atom  11H    basis set group =>   2


           ************************************************************
           *        Program running with 6 parallel MPI-processes     *
           *              working on a common directory               *
           ************************************************************
------------------------------------------------------------------------------
                           ORCA GTO INTEGRAL CALCULATION
------------------------------------------------------------------------------

                         BASIS SET STATISTICS AND STARTUP INFO

 # of primitive gaussian shells          ...  128
 # of primitive gaussian functions       ...  248
 # of contracted shells                  ...   76
 # of contracted basis functions         ...  172
 Highest angular momentum                ...    3
 Maximum contraction depth               ...    6
 Integral package used                   ... LIBINT
 Integral threshhold            Thresh   ...  2.500e-11
 Primitive cut-off              TCut     ...  2.500e-12


------------------------------ INTEGRAL EVALUATION ----------------------------


 * One electron integrals 
 Pre-screening matrix                    ... done
 Shell pair data                         ... done (   0.001 sec)



           ************************************************************
           *        Program running with 6 parallel MPI-processes     *
           *              working on a common directory               *
           ************************************************************
-------------------------------------------------------------------------------
                                 ORCA SCF
-------------------------------------------------------------------------------

------------
SCF SETTINGS
------------
Hamiltonian:
 Ab initio Hamiltonian  Method          .... Hartree-Fock(GTOs)


General Settings:
 Integral files         IntName         .... 12h2o.su.etal.mol1,2,4,7-orca.engrad-mp2.def2tzvp.frozencore
 Hartree-Fock type      HFTyp           .... RHF
 Total Charge           Charge          ....    0
 Multiplicity           Mult            ....    1
 Number of Electrons    NEL             ....   40
 Basis Dimension        Dim             ....  172
 Nuclear Repulsion      ENuc            ....    120.0573571324 Eh

Convergence Acceleration:
 DIIS                   CNVDIIS         .... on
   Start iteration      DIISMaxIt       ....    12
   Startup error        DIISStart       ....  0.200000
   # of expansion vecs  DIISMaxEq       ....     5
   Bias factor          DIISBfac        ....   1.050
   Max. coefficient     DIISMaxC        ....  10.000
 Newton-Raphson         CNVNR           .... off
 SOSCF                  CNVSOSCF        .... on
   Start iteration      SOSCFMaxIt      ....   150
   Startup grad/error   SOSCFStart      ....  0.003300
 Level Shifting         CNVShift        .... on
   Level shift para.    LevelShift      ....    0.2500
   Turn off err/grad.   ShiftErr        ....    0.0010
 Zerner damping         CNVZerner       .... off
 Static damping         CNVDamp         .... on
   Fraction old density DampFac         ....    0.7000
   Max. Damping (<1)    DampMax         ....    0.9800
   Min. Damping (>=0)   DampMin         ....    0.0000
   Turn off err/grad.   DampErr         ....    0.1000
 Fernandez-Rico         CNVRico         .... off

SCF Procedure:
 Maximum # iterations   MaxIter         ....   125
 SCF integral mode      SCFMode         .... Direct
   Integral package                     .... LIBINT
 Reset frequency        DirectResetFreq ....    20
 Integral Threshold     Thresh          ....  2.500e-11 Eh
 Primitive CutOff       TCut            ....  2.500e-12 Eh

Convergence Tolerance:
 Convergence Check Mode ConvCheckMode   .... Total+1el-Energy
 Convergence forced     ConvForced      .... 1
 Energy Change          TolE            ....  1.000e-08 Eh
 1-El. energy change                    ....  1.000e-05 Eh
 Orbital Gradient       TolG            ....  1.000e-05
 Orbital Rotation angle TolX            ....  1.000e-05
 DIIS Error             TolErr          ....  5.000e-07


Diagonalization of the overlap matrix:
Smallest eigenvalue                        ... 4.980e-03
Time for diagonalization                   ...    0.006 sec
Threshold for overlap eigenvalues          ... 1.000e-08
Number of eigenvalues below threshold      ... 0
Time for construction of square roots      ...    0.002 sec
Total time needed                          ...    0.008 sec

-------------------
DFT GRID GENERATION
-------------------

General Integration Accuracy     IntAcc      ...  4.340
Radial Grid Type                 RadialGrid  ... Gauss-Chebyshev
Angular Grid (max. acc.)         AngularGrid ... Lebedev-110
Angular grid pruning method      GridPruning ... 3 (G Style)
Weight generation scheme         WeightScheme... Becke
Basis function cutoff            BFCut       ...    1.0000e-11
Integration weight cutoff        WCut        ...    1.0000e-14
Grids for H and He will be reduced by one unit

# of grid points (after initial pruning)     ...  13216 (   0.0 sec)
# of grid points (after weights+screening)   ...  12811 (   0.0 sec)
nearest neighbour list constructed           ...    0.0 sec
Grid point re-assignment to atoms done       ...    0.0 sec
Grid point division into batches done        ...    0.0 sec
Reduced shell lists constructed in    0.0 sec

Total number of grid points                  ...    12811
Total number of batches                      ...      207
Average number of points per batch           ...       61
Average number of grid points per atom       ...     1068
Average number of shells per batch           ...    38.69 (50.91%)
Average number of basis functions per batch  ...    79.97 (46.50%)
Average number of large shells per batch     ...    28.89 (74.66%)
Average number of large basis fcns per batch ...    59.56 (74.47%)
Maximum spatial batch extension              ...  14.53, 20.15, 12.98 au
Average spatial batch extension              ...   0.69,  0.76,  0.65 au

Time for grid setup =    0.031 sec

------------------------------
INITIAL GUESS: MODEL POTENTIAL
------------------------------
Loading Hartree-Fock densities                     ... done
Calculating cut-offs                               ... done
Setting up the integral package                    ... done
Initializing the effective Hamiltonian             ... done
Starting the Coulomb interaction                   ... done (   0.0 sec)
Reading the grid                                   ... done
Mapping shells                                     ... done
Starting the XC term evaluation                    ... done (   0.0 sec)
Transforming the Hamiltonian                       ... done (   0.0 sec)
Diagonalizing the Hamiltonian                      ... done (   0.0 sec)
Back transforming the eigenvectors                 ... done (   0.0 sec)
Now organizing SCF variables                       ... done
                      ------------------
                      INITIAL GUESS DONE (   0.1 sec)
                      ------------------
--------------
SCF ITERATIONS
--------------
ITER       Energy         Delta-E        Max-DP      RMS-DP      [F,P]     Damp
               ***  Starting incremental Fock matrix formation  ***
  0   -303.8594879789   0.000000000000 0.04370284  0.00120590  0.3533362 0.7000
  1   -304.0087757718  -0.149287792943 0.02921168  0.00083104  0.2162883 0.7000
                               ***Turning on DIIS***
  2   -304.0871019301  -0.078326158264 0.01681900  0.00045815  0.1638201 0.7000
  3   -304.7838842101  -0.696782280014 0.00761930  0.00020375  0.1218778 0.7000
  4   -304.6416071130   0.142277097086 0.01710099  0.00047074  0.0862012 0.0000
  5   -304.2683053687   0.373301744317 0.00211103  0.00007696  0.0055121 0.0000
                      *** Initiating the SOSCF procedure ***
                           *** Shutting down DIIS ***
                      *** Re-Reading the Fockian *** 
                      *** Removing any level shift *** 
ITER      Energy       Delta-E        Grad      Rot      Max-DP    RMS-DP
  6   -304.24525768   0.0230476915  0.001098  0.001098  0.001381  0.000047
               *** Restarting incremental Fock matrix formation ***
  7   -304.23753868   0.0077190006  0.000347  0.000497  0.000688  0.000020
  8   -304.23754479  -0.0000061153  0.000228  0.000356  0.000517  0.000017
  9   -304.23754625  -0.0000014607  0.000095  0.000070  0.000101  0.000003
 10   -304.23754637  -0.0000001220  0.000012  0.000008  0.000019  0.000000
                  ***Gradient check signals convergence***
              ***Rediagonalizing the Fockian in SOSCF/NRSCF***

               *****************************************************
               *                     SUCCESS                       *
               *           SCF CONVERGED AFTER  11 CYCLES          *
               *****************************************************


----------------
TOTAL SCF ENERGY
----------------

Total Energy       :         -304.23754638 Eh           -8278.72452 eV

Components:
Nuclear Repulsion  :          120.05735713 Eh            3266.92677 eV
Electronic Energy  :         -424.29490351 Eh          -11545.65129 eV
One Electron Energy:         -659.27022667 Eh          -17939.65490 eV
Two Electron Energy:          234.97532316 Eh            6394.00361 eV

Virial components:
Potential Energy   :         -607.99914189 Eh          -16544.49776 eV
Kinetic Energy     :          303.76159552 Eh            8265.77324 eV
Virial Ratio       :            2.00156686


---------------
SCF CONVERGENCE
---------------

  Last Energy change         ...   -2.3369e-09  Tolerance :   1.0000e-08
  Last MAX-Density change    ...    5.6810e-06  Tolerance :   1.0000e-07
  Last RMS-Density change    ...    1.7163e-07  Tolerance :   5.0000e-09
  Last Orbital Gradient      ...    2.0379e-06  Tolerance :   1.0000e-05
  Last Orbital Rotation      ...    2.5328e-06  Tolerance :   1.0000e-05

             **** THE GBW FILE WAS UPDATED (12h2o.su.etal.mol1,2,4,7-orca.engrad-mp2.def2tzvp.frozencore.gbw) ****
             **** DENSITY FILE WAS UPDATED (12h2o.su.etal.mol1,2,4,7-orca.engrad-mp2.def2tzvp.frozencore.scfp) ****
             **** ENERGY FILE WAS UPDATED (12h2o.su.etal.mol1,2,4,7-orca.engrad-mp2.def2tzvp.frozencore.en.tmp) ****
             **** THE GBW FILE WAS UPDATED (12h2o.su.etal.mol1,2,4,7-orca.engrad-mp2.def2tzvp.frozencore.gbw) ****
             **** DENSITY FILE WAS UPDATED (12h2o.su.etal.mol1,2,4,7-orca.engrad-mp2.def2tzvp.frozencore.scfp) ****
----------------
ORBITAL ENERGIES
----------------

  NO   OCC          E(Eh)            E(eV) 
   0   2.0000     -20.591664      -560.3277 
   1   2.0000     -20.565683      -559.6207 
   2   2.0000     -20.553484      -559.2887 
   3   2.0000     -20.509358      -558.0880 
   4   2.0000      -1.369829       -37.2749 
   5   2.0000      -1.340964       -36.4895 
   6   2.0000      -1.336932       -36.3798 
   7   2.0000      -1.290156       -35.1069 
   8   2.0000      -0.736424       -20.0391 
   9   2.0000      -0.709406       -19.3039 
  10   2.0000      -0.700454       -19.0603 
  11   2.0000      -0.664747       -18.0887 
  12   2.0000      -0.610944       -16.6246 
  13   2.0000      -0.577888       -15.7251 
  14   2.0000      -0.577315       -15.7095 
  15   2.0000      -0.541792       -14.7429 
  16   2.0000      -0.527652       -14.3581 
  17   2.0000      -0.508874       -13.8472 
  18   2.0000      -0.488406       -13.2902 
  19   2.0000      -0.457883       -12.4596 
  20   0.0000       0.102347         2.7850 
  21   0.0000       0.120495         3.2788 
  22   0.0000       0.165474         4.5028 
  23   0.0000       0.175452         4.7743 
  24   0.0000       0.204211         5.5569 
  25   0.0000       0.207399         5.6436 
  26   0.0000       0.269197         7.3252 
  27   0.0000       0.332921         9.0593 
  28   0.0000       0.467087        12.7101 
  29   0.0000       0.492025        13.3887 
  30   0.0000       0.526580        14.3290 
  31   0.0000       0.532874        14.5002 
  32   0.0000       0.555941        15.1279 
  33   0.0000       0.574679        15.6378 
  34   0.0000       0.584302        15.8997 
  35   0.0000       0.594349        16.1731 
  36   0.0000       0.608867        16.5681 
  37   0.0000       0.613334        16.6897 
  38   0.0000       0.643361        17.5067 
  39   0.0000       0.656646        17.8683 
  40   0.0000       0.673390        18.3239 
  41   0.0000       0.685036        18.6408 
  42   0.0000       0.709428        19.3045 
  43   0.0000       0.739294        20.1172 
  44   0.0000       0.764483        20.8026 
  45   0.0000       0.770047        20.9540 
  46   0.0000       0.804979        21.9046 
  47   0.0000       0.820725        22.3331 
  48   0.0000       0.850311        23.1381 
  49   0.0000       0.863496        23.4969 
  50   0.0000       1.020382        27.7660 
  51   0.0000       1.054282        28.6885 
  52   0.0000       1.384800        37.6823 
  53   0.0000       1.395693        37.9787 
  54   0.0000       1.411847        38.4183 
  55   0.0000       1.428292        38.8658 
  56   0.0000       1.430254        38.9192 
  57   0.0000       1.446386        39.3582 
  58   0.0000       1.483067        40.3563 
  59   0.0000       1.509643        41.0795 
  60   0.0000       1.551677        42.2233 
  61   0.0000       1.553945        42.2850 
  62   0.0000       1.591481        43.3064 
  63   0.0000       1.641247        44.6606 
  64   0.0000       1.789437        48.6931 
  65   0.0000       1.810676        49.2710 
  66   0.0000       1.854576        50.4656 
  67   0.0000       1.871671        50.9308 
  68   0.0000       1.892665        51.5020 
  69   0.0000       1.899087        51.6768 
  70   0.0000       1.947890        53.0048 
  71   0.0000       1.979403        53.8623 
  72   0.0000       2.002189        54.4823 
  73   0.0000       2.069722        56.3200 
  74   0.0000       2.100774        57.1650 
  75   0.0000       2.158637        58.7395 
  76   0.0000       2.261863        61.5484 
  77   0.0000       2.292593        62.3846 
  78   0.0000       2.315211        63.0001 
  79   0.0000       2.320999        63.1576 
  80   0.0000       2.325106        63.2694 
  81   0.0000       2.353143        64.0323 
  82   0.0000       2.372885        64.5695 
  83   0.0000       2.387380        64.9639 
  84   0.0000       2.390512        65.0491 
  85   0.0000       2.407058        65.4994 
  86   0.0000       2.516307        68.4722 
  87   0.0000       2.559586        69.6499 
  88   0.0000       2.564098        69.7727 
  89   0.0000       2.588121        70.4264 
  90   0.0000       2.628662        71.5295 
  91   0.0000       2.645969        72.0005 
  92   0.0000       2.688685        73.1628 
  93   0.0000       2.706309        73.6424 
  94   0.0000       2.726477        74.1912 
  95   0.0000       2.760763        75.1242 
  96   0.0000       2.883834        78.4731 
  97   0.0000       2.902876        78.9913 
  98   0.0000       2.949475        80.2593 
  99   0.0000       2.961494        80.5864 
 100   0.0000       2.972232        80.8785 
 101   0.0000       2.991492        81.4026 
 102   0.0000       3.011133        81.9371 
 103   0.0000       3.026717        82.3611 
 104   0.0000       3.049157        82.9718 
 105   0.0000       3.068476        83.4975 
 106   0.0000       3.109957        84.6262 
 107   0.0000       3.161494        86.0286 
 108   0.0000       3.241130        88.1956 
 109   0.0000       3.251562        88.4795 
 110   0.0000       3.289636        89.5156 
 111   0.0000       3.448349        93.8343 
 112   0.0000       3.968533       107.9893 
 113   0.0000       3.978798       108.2686 
 114   0.0000       4.071557       110.7927 
 115   0.0000       4.106441       111.7419 
 116   0.0000       4.283066       116.5482 
 117   0.0000       4.306611       117.1888 
 118   0.0000       4.317480       117.4846 
 119   0.0000       4.385378       119.3322 
 120   0.0000       5.525589       150.3589 
 121   0.0000       5.548311       150.9772 
 122   0.0000       5.550816       151.0454 
 123   0.0000       5.595919       152.2727 
 124   0.0000       5.611350       152.6926 
 125   0.0000       5.638674       153.4361 
 126   0.0000       5.681223       154.5939 
 127   0.0000       5.701786       155.1535 
 128   0.0000       5.786163       157.4495 
 129   0.0000       5.810767       158.1190 
 130   0.0000       5.819402       158.3540 
 131   0.0000       5.827331       158.5697 
 132   0.0000       5.846555       159.0929 
 133   0.0000       5.866312       159.6305 
 134   0.0000       5.871709       159.7773 
 135   0.0000       5.891252       160.3091 
 136   0.0000       5.900576       160.5628 
 137   0.0000       5.907744       160.7579 
 138   0.0000       5.915903       160.9799 
 139   0.0000       5.944063       161.7462 
 140   0.0000       6.403155       174.2387 
 141   0.0000       6.428407       174.9259 
 142   0.0000       6.473638       176.1567 
 143   0.0000       6.519287       177.3988 
 144   0.0000       6.673720       181.6011 
 145   0.0000       6.693582       182.1416 
 146   0.0000       6.696620       182.2243 
 147   0.0000       6.768130       184.1702 
 148   0.0000       6.819418       185.5658 
 149   0.0000       6.851241       186.4317 
 150   0.0000       6.860366       186.6801 
 151   0.0000       6.885992       187.3774 
 152   0.0000       6.886681       187.3961 
 153   0.0000       6.889170       187.4638 
 154   0.0000       6.907116       187.9522 
 155   0.0000       6.921152       188.3341 
 156   0.0000       6.922982       188.3839 
 157   0.0000       6.965928       189.5525 
 158   0.0000       7.010265       190.7590 
 159   0.0000       7.039850       191.5641 
 160   0.0000       7.354579       200.1283 
 161   0.0000       7.371981       200.6018 
 162   0.0000       7.396581       201.2712 
 163   0.0000       7.465020       203.1335 
 164   0.0000       7.484137       203.6537 
 165   0.0000       7.487475       203.7445 
 166   0.0000       7.569338       205.9722 
 167   0.0000       7.602563       206.8763 
 168   0.0000      44.817451      1219.5448 
 169   0.0000      44.841428      1220.1973 
 170   0.0000      44.973111      1223.7806 
 171   0.0000      44.992391      1224.3052 

                    ********************************
                    * MULLIKEN POPULATION ANALYSIS *
                    ********************************

-----------------------
MULLIKEN ATOMIC CHARGES
-----------------------
   0 O :   -0.711855
   1 H :    0.361104
   2 H :    0.361798
   3 O :   -0.702543
   4 H :    0.348287
   5 H :    0.355294
   6 O :   -0.742935
   7 H :    0.327339
   8 H :    0.386061
   9 O :   -0.728185
  10 H :    0.392057
  11 H :    0.353579
Sum of atomic charges:   -0.0000000

--------------------------------
MULLIKEN REDUCED ORBITAL CHARGES
--------------------------------
  0 O s       :     3.810405  s :     3.810405
      pz      :     1.717096  p :     4.875100
      px      :     1.355130
      py      :     1.802875
      dz2     :     0.003967  d :     0.024829
      dxz     :     0.004289
      dyz     :     0.005871
      dx2y2   :     0.002500
      dxy     :     0.008203
      f0      :     0.000083  f :     0.001519
      f+1     :     0.000330
      f-1     :     0.000187
      f+2     :     0.000071
      f-2     :     0.000350
      f+3     :     0.000100
      f-3     :     0.000399
  1 H s       :     0.593407  s :     0.593407
      pz      :     0.017003  p :     0.045489
      px      :     0.013523
      py      :     0.014963
  2 H s       :     0.596391  s :     0.596391
      pz      :     0.010833  p :     0.041811
      px      :     0.017762
      py      :     0.013216
  3 O s       :     3.813247  s :     3.813247
      pz      :     1.720964  p :     4.862295
      px      :     1.794243
      py      :     1.347088
      dz2     :     0.004343  d :     0.025448
      dxz     :     0.005930
      dyz     :     0.004761
      dx2y2   :     0.002535
      dxy     :     0.007878
      f0      :     0.000091  f :     0.001553
      f+1     :     0.000194
      f-1     :     0.000345
      f+2     :     0.000071
      f-2     :     0.000361
      f+3     :     0.000393
      f-3     :     0.000098
  4 H s       :     0.605852  s :     0.605852
      pz      :     0.017155  p :     0.045861
      px      :     0.015101
      py      :     0.013605
  5 H s       :     0.602459  s :     0.602459
      pz      :     0.011353  p :     0.042247
      px      :     0.013137
      py      :     0.017757
  6 O s       :     3.811188  s :     3.811188
      pz      :     1.517045  p :     4.905299
      px      :     1.880217
      py      :     1.508037
      dz2     :     0.011535  d :     0.024998
      dxz     :     0.002582
      dyz     :     0.002953
      dx2y2   :     0.002960
      dxy     :     0.004968
      f0      :     0.000187  f :     0.001449
      f+1     :     0.000126
      f-1     :     0.000453
      f+2     :     0.000077
      f-2     :     0.000042
      f+3     :     0.000447
      f-3     :     0.000117
  7 H s       :     0.627714  s :     0.627714
      pz      :     0.018216  p :     0.044947
      px      :     0.014424
      py      :     0.012307
  8 H s       :     0.559969  s :     0.559969
      pz      :     0.009546  p :     0.053969
      px      :     0.015505
      py      :     0.028919
  9 O s       :     3.804204  s :     3.804204
      pz      :     1.596289  p :     4.897264
      px      :     1.456443
      py      :     1.844531
      dz2     :     0.011507  d :     0.025330
      dxz     :     0.002897
      dyz     :     0.002326
      dx2y2   :     0.003561
      dxy     :     0.005040
      f0      :     0.000149  f :     0.001387
      f+1     :     0.000457
      f-1     :     0.000114
      f+2     :     0.000068
      f-2     :     0.000040
      f+3     :     0.000108
      f-3     :     0.000451
 10 H s       :     0.559577  s :     0.559577
      pz      :     0.024870  p :     0.048366
      px      :     0.010876
      py      :     0.012620
 11 H s       :     0.603488  s :     0.603488
      pz      :     0.010175  p :     0.042934
      px      :     0.018451
      py      :     0.014308


                     *******************************
                     * LOEWDIN POPULATION ANALYSIS *
                     *******************************

----------------------
LOEWDIN ATOMIC CHARGES
----------------------
   0 O :   -0.312103
   1 H :    0.163071
   2 H :    0.185328
   3 O :   -0.338907
   4 H :    0.157895
   5 H :    0.182332
   6 O :   -0.366129
   7 H :    0.153824
   8 H :    0.151889
   9 O :   -0.307451
  10 H :    0.157741
  11 H :    0.172509

-------------------------------
LOEWDIN REDUCED ORBITAL CHARGES
-------------------------------
  0 O s       :     3.468903  s :     3.468903
      pz      :     1.681447  p :     4.808652
      px      :     1.353285
      py      :     1.773920
      dz2     :     0.005365  d :     0.032436
      dxz     :     0.006750
      dyz     :     0.005851
      dx2y2   :     0.003882
      dxy     :     0.010587
      f0      :     0.000088  f :     0.002112
      f+1     :     0.000451
      f-1     :     0.000274
      f+2     :     0.000036
      f-2     :     0.000607
      f+3     :     0.000093
      f-3     :     0.000564
  1 H s       :     0.673597  s :     0.673597
      pz      :     0.066350  p :     0.163331
      px      :     0.044133
      py      :     0.052848
  2 H s       :     0.666784  s :     0.666784
      pz      :     0.033411  p :     0.147888
      px      :     0.070878
      py      :     0.043599
  3 O s       :     3.475724  s :     3.475724
      pz      :     1.706868  p :     4.828380
      px      :     1.771831
      py      :     1.349682
      dz2     :     0.004991  d :     0.032662
      dxz     :     0.005996
      dyz     :     0.007187
      dx2y2   :     0.003997
      dxy     :     0.010491
      f0      :     0.000078  f :     0.002142
      f+1     :     0.000279
      f-1     :     0.000466
      f+2     :     0.000036
      f-2     :     0.000624
      f+3     :     0.000566
      f-3     :     0.000094
  4 H s       :     0.679343  s :     0.679343
      pz      :     0.066049  p :     0.162761
      px      :     0.052829
      py      :     0.043884
  5 H s       :     0.670391  s :     0.670391
      pz      :     0.033407  p :     0.147278
      px      :     0.043592
      py      :     0.070278
  6 O s       :     3.472739  s :     3.472739
      pz      :     1.533782  p :     4.860293
      px      :     1.840975
      py      :     1.485536
      dz2     :     0.015154  d :     0.031033
      dxz     :     0.001749
      dyz     :     0.004476
      dx2y2   :     0.003749
      dxy     :     0.005906
      f0      :     0.000400  f :     0.002065
      f+1     :     0.000196
      f-1     :     0.000761
      f+2     :     0.000049
      f-2     :     0.000047
      f+3     :     0.000547
      f-3     :     0.000065
  7 H s       :     0.687765  s :     0.687765
      pz      :     0.077921  p :     0.158411
      px      :     0.043729
      py      :     0.036761
  8 H s       :     0.663173  s :     0.663173
      pz      :     0.028909  p :     0.184938
      px      :     0.052589
      py      :     0.103441
  9 O s       :     3.464348  s :     3.464348
      pz      :     1.574491  p :     4.809165
      px      :     1.450866
      py      :     1.783807
      dz2     :     0.014515  d :     0.031898
      dxz     :     0.003838
      dyz     :     0.001397
      dx2y2   :     0.005457
      dxy     :     0.006691
      f0      :     0.000325  f :     0.002040
      f+1     :     0.000719
      f-1     :     0.000209
      f+2     :     0.000039
      f-2     :     0.000043
      f+3     :     0.000075
      f-3     :     0.000630
 10 H s       :     0.669700  s :     0.669700
      pz      :     0.093993  p :     0.172559
      px      :     0.035861
      py      :     0.042705
 11 H s       :     0.673471  s :     0.673471
      pz      :     0.030522  p :     0.154020
      px      :     0.074191
      py      :     0.049307


                      *****************************
                      * MAYER POPULATION ANALYSIS *
                      *****************************

  NA   - Mulliken gross atomic population
  ZA   - Total nuclear charge
  QA   - Mulliken gross atomic charge
  VA   - Mayer's total valence
  BVA  - Mayer's bonded valence
  FA   - Mayer's free valence

  ATOM       NA         ZA         QA         VA         BVA        FA
  0 O      8.7119     8.0000    -0.7119     1.7740     1.7740    -0.0000
  1 H      0.6389     1.0000     0.3611     0.8846     0.8846     0.0000
  2 H      0.6382     1.0000     0.3618     0.8833     0.8833    -0.0000
  3 O      8.7025     8.0000    -0.7025     1.7708     1.7708    -0.0000
  4 H      0.6517     1.0000     0.3483     0.8934     0.8934    -0.0000
  5 H      0.6447     1.0000     0.3553     0.8864     0.8864    -0.0000
  6 O      8.7429     8.0000    -0.7429     1.7142     1.7142    -0.0000
  7 H      0.6727     1.0000     0.3273     0.9064     0.9064     0.0000
  8 H      0.6139     1.0000     0.3861     0.8882     0.8882    -0.0000
  9 O      8.7282     8.0000    -0.7282     1.7576     1.7576    -0.0000
 10 H      0.6079     1.0000     0.3921     0.8739     0.8739     0.0000
 11 H      0.6464     1.0000     0.3536     0.8915     0.8915    -0.0000

  Mayer bond orders larger than 0.100000
B(  0-O ,  1-H ) :   0.8772 B(  0-O ,  2-H ) :   0.8738 B(  3-O ,  4-H ) :   0.8880 
B(  3-O ,  5-H ) :   0.8805 B(  6-O ,  7-H ) :   0.9027 B(  6-O ,  8-H ) :   0.8269 
B(  9-O , 10-H ) :   0.8390 B(  9-O , 11-H ) :   0.8798 

-------
TIMINGS
-------

Total SCF time: 0 days 0 hours 0 min 3 sec 

Total time                  ....       3.780 sec
Sum of individual times     ....       3.593 sec  ( 95.1%)

Fock matrix formation       ....       3.399 sec  ( 89.9%)
Diagonalization             ....       0.029 sec  (  0.8%)
Density matrix formation    ....       0.004 sec  (  0.1%)
Population analysis         ....       0.004 sec  (  0.1%)
Initial guess               ....       0.106 sec  (  2.8%)
Orbital Transformation      ....       0.000 sec  (  0.0%)
Orbital Orthonormalization  ....       0.000 sec  (  0.0%)
DIIS solution               ....       0.009 sec  (  0.2%)
SOSCF solution              ....       0.011 sec  (  0.3%)


           ************************************************************
           *        Program running with 6 parallel MPI-processes     *
           *              working on a common directory               *
           ************************************************************

------------------------------------------------------------------------------
                                ORCA  MP2 
------------------------------------------------------------------------------

Freezing NCore=8 chemical core electrons
MP2 will be done in the AO integral direct mode
The Q1-step will be done using symmetric double matrices
Dimension of the basis                    ...  172
Memory devoted for MP2                    ... 8000 MB   
Memory needed for all in one shot         ...   60 MB
Number of MOs that can be treated together...  408      
MP2 density construction                  ... relaxed
The MP2 gradient is requested => amplitudes will be stored on disk
Total number of MOs              ...   16
Number of MOs treated per batch  ...    3 
Number of batches necessary      ...    1 
OPERATORS   0/  0 PASS   0
-----------------------------------------------
 MP2 CORRELATION ENERGY   :     -1.028750315 Eh
-----------------------------------------------


---------------------
MP2 DENSITY FORMATION
---------------------

Completing the external part of the density      ... done
Storing the unrelaxed density                    ... done

Calculating G(D)                                 ... done
Completing the Lagrangian                        ... done
Solving the Z-vector equations                   ... 

------------------------------------------------------------------------------
                           ORCA CP-SCF CALCULATION
------------------------------------------------------------------------------

Input orbitals are from        ... 12h2o.su.etal.mol1,2,4,7-orca.engrad-mp2.def2tzvp.frozencore.gbw
Input Perturbation             ... 12h2o.su.etal.mol1,2,4,7-orca.engrad-mp2.def2tzvp.frozencore.pin.tmp
Wavefunction output            ... 12h2o.su.etal.mol1,2,4,7-orca.engrad-mp2.def2tzvp.frozencore.pout.tmp
Perturbation mode              ... Real perturbation (singlet)
Solver                         ... POPLE
Max. number of iterations      ... 128
Convergence tolerance          ... 1.000e-08
Integral handling              ... Direct
Number of perturbations        ... 1
Number of operators            ... 1
Orbital ranges used for CP-SCF:
 Operator 0:  Orbitals   0... 19  to  20...171
Variables per vector in CP-SCF ... 3040
Number of vectors sought       ... 1
     CP-SCF ITERATION   0: 
     CP-SCF ITERATION   1:      0.000492190410
     CP-SCF ITERATION   2:      0.000010996927
     CP-SCF ITERATION   3:      0.000000521438
     CP-SCF ITERATION   4:      0.000000044132
     CP-SCF ITERATION   5:      0.000000003119
                                                 ... done
Finalizing the relaxed density                   ... done
Transforming P to the AO basis                   ... done
Storing the relaxed density                      ... done

------------------------------------
ENERGY WEIGHTED DENSITY FINALIZATION
------------------------------------

Gathering the parts of the W-matrix              ...                                                      done
Forming the Z-density                            ... done
Transforming Z to the AO basis                   ... done
Calculating G(Z)                                 ... done
Finalizing the W-matrix                          ...                                                      done
Transforming W to the AO basis and storing       ... done

                *********************************************
                * UNRELAXED MP2 DENSITY POPULATION ANALYSIS *
                *********************************************

------------------------------------------------------------------------------
                           ORCA POPULATION ANALYSIS
------------------------------------------------------------------------------
Input electron density              ... 12h2o.su.etal.mol1,2,4,7-orca.engrad-mp2.def2tzvp.frozencore.pmp2ur
BaseName (.gbw .S,...)              ... 12h2o.su.etal.mol1,2,4,7-orca.engrad-mp2.def2tzvp.frozencore

                    ********************************
                    * MULLIKEN POPULATION ANALYSIS *
                    ********************************

-----------------------
MULLIKEN ATOMIC CHARGES
-----------------------
   0 O :   -0.706607
   1 H :    0.358931
   2 H :    0.359079
   3 O :   -0.697801
   4 H :    0.346160
   5 H :    0.352697
   6 O :   -0.737509
   7 H :    0.324913
   8 H :    0.381969
   9 O :   -0.721738
  10 H :    0.389040
  11 H :    0.350867
Sum of atomic charges:   -0.0000000

--------------------------------
MULLIKEN REDUCED ORBITAL CHARGES
--------------------------------
  0 O s       :     3.805569  s :     3.805569
      pz      :     1.706207  p :     4.845363
      px      :     1.347562
      py      :     1.791594
      dz2     :     0.009481  d :     0.051604
      dxz     :     0.009643
      dyz     :     0.011256
      dx2y2   :     0.007839
      dxy     :     0.013385
      f0      :     0.000454  f :     0.004071
      f+1     :     0.000690
      f-1     :     0.000552
      f+2     :     0.000438
      f-2     :     0.000714
      f+3     :     0.000468
      f-3     :     0.000756
  1 H s       :     0.594010  s :     0.594010
      pz      :     0.017471  p :     0.047059
      px      :     0.013907
      py      :     0.015681
  2 H s       :     0.597548  s :     0.597548
      pz      :     0.011667  p :     0.043373
      px      :     0.017707
      py      :     0.013999
  3 O s       :     3.808449  s :     3.808449
      pz      :     1.710548  p :     4.833465
      px      :     1.783137
      py      :     1.339780
      dz2     :     0.009691  d :     0.051796
      dxz     :     0.011209
      dyz     :     0.010000
      dx2y2   :     0.007844
      dxy     :     0.013053
      f0      :     0.000458  f :     0.004090
      f+1     :     0.000556
      f-1     :     0.000703
      f+2     :     0.000436
      f-2     :     0.000722
      f+3     :     0.000750
      f-3     :     0.000465
  4 H s       :     0.606351  s :     0.606351
      pz      :     0.017651  p :     0.047490
      px      :     0.015836
      py      :     0.014003
  5 H s       :     0.603459  s :     0.603459
      pz      :     0.012207  p :     0.043845
      px      :     0.013923
      py      :     0.017715
  6 O s       :     3.806189  s :     3.806189
      pz      :     1.508025  p :     4.875513
      px      :     1.868473
      py      :     1.499015
      dz2     :     0.016591  d :     0.051794
      dxz     :     0.008063
      dyz     :     0.008288
      dx2y2   :     0.008468
      dxy     :     0.010384
      f0      :     0.000565  f :     0.004012
      f+1     :     0.000494
      f-1     :     0.000818
      f+2     :     0.000439
      f-2     :     0.000407
      f+3     :     0.000805
      f-3     :     0.000484
  7 H s       :     0.628380  s :     0.628380
      pz      :     0.018390  p :     0.046707
      px      :     0.015330
      py      :     0.012987
  8 H s       :     0.562396  s :     0.562396
      pz      :     0.010360  p :     0.055635
      px      :     0.016212
      py      :     0.029063
  9 O s       :     3.799121  s :     3.799121
      pz      :     1.586374  p :     4.866138
      px      :     1.447823
      py      :     1.831941
      dz2     :     0.016718  d :     0.052507
      dxz     :     0.008244
      dyz     :     0.007945
      dx2y2   :     0.009098
      dxy     :     0.010502
      f0      :     0.000536  f :     0.003971
      f+1     :     0.000824
      f-1     :     0.000490
      f+2     :     0.000433
      f-2     :     0.000406
      f+3     :     0.000476
      f-3     :     0.000806
 10 H s       :     0.561096  s :     0.561096
      pz      :     0.024972  p :     0.049864
      px      :     0.011450
      py      :     0.013442
 11 H s       :     0.604574  s :     0.604574
      pz      :     0.011018  p :     0.044560
      px      :     0.018497
      py      :     0.015045


                     *******************************
                     * LOEWDIN POPULATION ANALYSIS *
                     *******************************

----------------------
LOEWDIN ATOMIC CHARGES
----------------------
   0 O :   -0.308453
   1 H :    0.161943
   2 H :    0.183608
   3 O :   -0.336131
   4 H :    0.156794
   5 H :    0.180720
   6 O :   -0.363654
   7 H :    0.152315
   8 H :    0.149464
   9 O :   -0.303162
  10 H :    0.155778
  11 H :    0.170778

-------------------------------
LOEWDIN REDUCED ORBITAL CHARGES
-------------------------------
  0 O s       :     3.465115  s :     3.465115
      pz      :     1.670104  p :     4.778198
      px      :     1.345237
      py      :     1.762857
      dz2     :     0.010970  d :     0.060282
      dxz     :     0.012311
      dyz     :     0.011519
      dx2y2   :     0.009343
      dxy     :     0.016138
      f0      :     0.000470  f :     0.004857
      f+1     :     0.000859
      f-1     :     0.000658
      f+2     :     0.000409
      f-2     :     0.001014
      f+3     :     0.000474
      f-3     :     0.000974
  1 H s       :     0.671725  s :     0.671725
      pz      :     0.067545  p :     0.166332
      px      :     0.044948
      py      :     0.053839
  2 H s       :     0.665375  s :     0.665375
      pz      :     0.034251  p :     0.151017
      px      :     0.072160
      py      :     0.044606
  3 O s       :     3.471964  s :     3.471964
      pz      :     1.696475  p :     4.799253
      px      :     1.760944
      py      :     1.341834
      dz2     :     0.010419  d :     0.060045
      dxz     :     0.011554
      dyz     :     0.012640
      dx2y2   :     0.009418
      dxy     :     0.016013
      f0      :     0.000454  f :     0.004870
      f+1     :     0.000660
      f-1     :     0.000871
      f+2     :     0.000408
      f-2     :     0.001029
      f+3     :     0.000975
      f-3     :     0.000474
  4 H s       :     0.677347  s :     0.677347
      pz      :     0.067290  p :     0.165859
      px      :     0.053839
      py      :     0.044731
  5 H s       :     0.668836  s :     0.668836
      pz      :     0.034242  p :     0.150444
      px      :     0.044601
      py      :     0.071602
  6 O s       :     3.469019  s :     3.469019
      pz      :     1.524359  p :     4.830867
      px      :     1.829821
      py      :     1.476687
      dz2     :     0.020868  d :     0.058946
      dxz     :     0.007165
      dyz     :     0.009826
      dx2y2   :     0.009438
      dxy     :     0.011650
      f0      :     0.000809  f :     0.004822
      f+1     :     0.000581
      f-1     :     0.001195
      f+2     :     0.000418
      f-2     :     0.000418
      f+3     :     0.000958
      f-3     :     0.000443
  7 H s       :     0.685831  s :     0.685831
      pz      :     0.079694  p :     0.161853
      px      :     0.044550
      py      :     0.037609
  8 H s       :     0.662882  s :     0.662882
      pz      :     0.029709  p :     0.187655
      px      :     0.053439
      py      :     0.104506
  9 O s       :     3.460521  s :     3.460521
      pz      :     1.564578  p :     4.777686
      px      :     1.441933
      py      :     1.771175
      dz2     :     0.020338  d :     0.060135
      dxz     :     0.009228
      dyz     :     0.006938
      dx2y2   :     0.011177
      dxy     :     0.012454
      f0      :     0.000742  f :     0.004820
      f+1     :     0.001155
      f-1     :     0.000601
      f+2     :     0.000411
      f-2     :     0.000416
      f+3     :     0.000454
      f-3     :     0.001042
 10 H s       :     0.668876  s :     0.668876
      pz      :     0.095278  p :     0.175346
      px      :     0.036591
      py      :     0.043477
 11 H s       :     0.671986  s :     0.671986
      pz      :     0.031351  p :     0.157236
      px      :     0.075623
      py      :     0.050263


                      *****************************
                      * MAYER POPULATION ANALYSIS *
                      *****************************

  NA   - Mulliken gross atomic population
  ZA   - Total nuclear charge
  QA   - Mulliken gross atomic charge
  VA   - Mayer's total valence
  BVA  - Mayer's bonded valence
  FA   - Mayer's free valence

  ATOM       NA         ZA         QA         VA         BVA        FA
  0 O      8.7066     8.0000    -0.7066     2.0813     1.6925     0.3888
  1 H      0.6411     1.0000     0.3589     0.8902     0.8449     0.0454
  2 H      0.6409     1.0000     0.3591     0.8893     0.8411     0.0482
  3 O      8.6978     8.0000    -0.6978     2.0755     1.6888     0.3866
  4 H      0.6538     1.0000     0.3462     0.8992     0.8531     0.0461
  5 H      0.6473     1.0000     0.3527     0.8924     0.8441     0.0483
  6 O      8.7375     8.0000    -0.7375     2.0241     1.6342     0.3899
  7 H      0.6751     1.0000     0.3249     0.9127     0.8633     0.0494
  8 H      0.6180     1.0000     0.3820     0.8954     0.8497     0.0457
  9 O      8.7217     8.0000    -0.7217     2.0672     1.6772     0.3900
 10 H      0.6110     1.0000     0.3890     0.8800     0.8361     0.0439
 11 H      0.6491     1.0000     0.3509     0.8978     0.8494     0.0484

  Mayer bond orders larger than 0.100000
B(  0-O ,  1-H ) :   0.8379 B(  0-O ,  2-H ) :   0.8323 B(  3-O ,  4-H ) :   0.8480 
B(  3-O ,  5-H ) :   0.8386 B(  6-O ,  7-H ) :   0.8600 B(  6-O ,  8-H ) :   0.7901 
B(  9-O , 10-H ) :   0.8021 B(  9-O , 11-H ) :   0.8384 


                *******************************************
                * RELAXED MP2 DENSITY POPULATION ANALYSIS *
                *******************************************

------------------------------------------------------------------------------
                           ORCA POPULATION ANALYSIS
------------------------------------------------------------------------------
Input electron density              ... 12h2o.su.etal.mol1,2,4,7-orca.engrad-mp2.def2tzvp.frozencore.pmp2re
BaseName (.gbw .S,...)              ... 12h2o.su.etal.mol1,2,4,7-orca.engrad-mp2.def2tzvp.frozencore

                    ********************************
                    * MULLIKEN POPULATION ANALYSIS *
                    ********************************

-----------------------
MULLIKEN ATOMIC CHARGES
-----------------------
   0 O :   -0.688876
   1 H :    0.352233
   2 H :    0.352703
   3 O :   -0.684703
   4 H :    0.339756
   5 H :    0.346623
   6 O :   -0.720494
   7 H :    0.319340
   8 H :    0.360312
   9 O :   -0.695016
  10 H :    0.374396
  11 H :    0.343726
Sum of atomic charges:   -0.0000000

--------------------------------
MULLIKEN REDUCED ORBITAL CHARGES
--------------------------------
  0 O s       :     3.809952  s :     3.809952
      pz      :     1.696044  p :     4.825581
      px      :     1.343776
      py      :     1.785760
      dz2     :     0.009231  d :     0.049345
      dxz     :     0.009055
      dyz     :     0.010977
      dx2y2   :     0.007599
      dxy     :     0.012482
      f0      :     0.000452  f :     0.003999
      f+1     :     0.000670
      f-1     :     0.000544
      f+2     :     0.000438
      f-2     :     0.000693
      f+3     :     0.000466
      f-3     :     0.000735
  1 H s       :     0.600015  s :     0.600015
      pz      :     0.017604  p :     0.047752
      px      :     0.013829
      py      :     0.016319
  2 H s       :     0.603295  s :     0.603295
      pz      :     0.012522  p :     0.044002
      px      :     0.016721
      py      :     0.014759
  3 O s       :     3.813288  s :     3.813288
      pz      :     1.704337  p :     4.817919
      px      :     1.777077
      py      :     1.336505
      dz2     :     0.009395  d :     0.049479
      dxz     :     0.010914
      dyz     :     0.009414
      dx2y2   :     0.007587
      dxy     :     0.012168
      f0      :     0.000456  f :     0.004018
      f+1     :     0.000548
      f-1     :     0.000684
      f+2     :     0.000436
      f-2     :     0.000702
      f+3     :     0.000729
      f-3     :     0.000464
  4 H s       :     0.612043  s :     0.612043
      pz      :     0.017759  p :     0.048202
      px      :     0.016500
      py      :     0.013943
  5 H s       :     0.608880  s :     0.608880
      pz      :     0.013099  p :     0.044497
      px      :     0.014679
      py      :     0.016718
  6 O s       :     3.806925  s :     3.806925
      pz      :     1.501598  p :     4.859853
      px      :     1.863029
      py      :     1.495226
      dz2     :     0.015388  d :     0.049770
      dxz     :     0.008098
      dyz     :     0.008028
      dx2y2   :     0.008279
      dxy     :     0.009977
      f0      :     0.000552  f :     0.003946
      f+1     :     0.000488
      f-1     :     0.000791
      f+2     :     0.000439
      f-2     :     0.000406
      f+3     :     0.000787
      f-3     :     0.000483
  7 H s       :     0.633139  s :     0.633139
      pz      :     0.017747  p :     0.047521
      px      :     0.016350
      py      :     0.013424
  8 H s       :     0.583718  s :     0.583718
      pz      :     0.011040  p :     0.055970
      px      :     0.016756
      py      :     0.028174
  9 O s       :     3.800155  s :     3.800155
      pz      :     1.582722  p :     4.840453
      px      :     1.441030
      py      :     1.816701
      dz2     :     0.015663  d :     0.050509
      dxz     :     0.008012
      dyz     :     0.008002
      dx2y2   :     0.008806
      dxy     :     0.010027
      f0      :     0.000523  f :     0.003899
      f+1     :     0.000796
      f-1     :     0.000485
      f+2     :     0.000433
      f-2     :     0.000404
      f+3     :     0.000474
      f-3     :     0.000784
 10 H s       :     0.575187  s :     0.575187
      pz      :     0.024318  p :     0.050417
      px      :     0.011771
      py      :     0.014328
 11 H s       :     0.610988  s :     0.610988
      pz      :     0.011802  p :     0.045286
      px      :     0.017664
      py      :     0.015820


                     *******************************
                     * LOEWDIN POPULATION ANALYSIS *
                     *******************************

----------------------
LOEWDIN ATOMIC CHARGES
----------------------
   0 O :   -0.307112
   1 H :    0.163622
   2 H :    0.185156
   3 O :   -0.339330
   4 H :    0.158507
   5 H :    0.182505
   6 O :   -0.366541
   7 H :    0.154150
   8 H :    0.142582
   9 O :   -0.297311
  10 H :    0.151760
  11 H :    0.172012

-------------------------------
LOEWDIN REDUCED ORBITAL CHARGES
-------------------------------
  0 O s       :     3.467088  s :     3.467088
      pz      :     1.664826  p :     4.776103
      px      :     1.350273
      py      :     1.761003
      dz2     :     0.010876  d :     0.059045
      dxz     :     0.011939
      dyz     :     0.011486
      dx2y2   :     0.009116
      dxy     :     0.015627
      f0      :     0.000473  f :     0.004876
      f+1     :     0.000865
      f-1     :     0.000658
      f+2     :     0.000410
      f-2     :     0.001014
      f+3     :     0.000477
      f-3     :     0.000980
  1 H s       :     0.670191  s :     0.670191
      pz      :     0.067551  p :     0.166188
      px      :     0.044135
      py      :     0.054502
  2 H s       :     0.663750  s :     0.663750
      pz      :     0.034945  p :     0.151094
      px      :     0.070753
      py      :     0.045396
  3 O s       :     3.474043  s :     3.474043
      pz      :     1.695682  p :     4.801743
      px      :     1.759107
      py      :     1.346954
      dz2     :     0.010228  d :     0.058654
      dxz     :     0.011489
      dyz     :     0.012244
      dx2y2   :     0.009182
      dxy     :     0.015511
      f0      :     0.000456  f :     0.004890
      f+1     :     0.000660
      f-1     :     0.000879
      f+2     :     0.000408
      f-2     :     0.001028
      f+3     :     0.000982
      f-3     :     0.000477
  4 H s       :     0.675624  s :     0.675624
      pz      :     0.067390  p :     0.165868
      px      :     0.054517
      py      :     0.043961
  5 H s       :     0.666932  s :     0.666932
      pz      :     0.034993  p :     0.150563
      px      :     0.045401
      py      :     0.070169
  6 O s       :     3.470689  s :     3.470689
      pz      :     1.525919  p :     4.833009
      px      :     1.827611
      py      :     1.479479
      dz2     :     0.020253  d :     0.057990
      dxz     :     0.007221
      dyz     :     0.009576
      dx2y2   :     0.009394
      dxy     :     0.011546
      f0      :     0.000807  f :     0.004853
      f+1     :     0.000581
      f-1     :     0.001209
      f+2     :     0.000420
      f-2     :     0.000416
      f+3     :     0.000974
      f-3     :     0.000446
  7 H s       :     0.683523  s :     0.683523
      pz      :     0.079145  p :     0.162327
      px      :     0.045482
      py      :     0.037700
  8 H s       :     0.669190  s :     0.669190
      pz      :     0.030129  p :     0.188228
      px      :     0.054154
      py      :     0.103944
  9 O s       :     3.461752  s :     3.461752
      pz      :     1.565647  p :     4.771514
      px      :     1.444817
      py      :     1.761049
      dz2     :     0.019881  d :     0.059205
      dxz     :     0.009030
      dyz     :     0.007015
      dx2y2   :     0.011043
      dxy     :     0.012236
      f0      :     0.000742  f :     0.004840
      f+1     :     0.001163
      f-1     :     0.000602
      f+2     :     0.000413
      f-2     :     0.000414
      f+3     :     0.000457
      f-3     :     0.001049
 10 H s       :     0.672609  s :     0.672609
      pz      :     0.094773  p :     0.175630
      px      :     0.036613
      py      :     0.044244
 11 H s       :     0.670552  s :     0.670552
      pz      :     0.031970  p :     0.157435
      px      :     0.074604
      py      :     0.050862


                      *****************************
                      * MAYER POPULATION ANALYSIS *
                      *****************************

  NA   - Mulliken gross atomic population
  ZA   - Total nuclear charge
  QA   - Mulliken gross atomic charge
  VA   - Mayer's total valence
  BVA  - Mayer's bonded valence
  FA   - Mayer's free valence

  ATOM       NA         ZA         QA         VA         BVA        FA
  0 O      8.6889     8.0000    -0.6889     2.1028     1.7196     0.3832
  1 H      0.6478     1.0000     0.3522     0.8952     0.8498     0.0454
  2 H      0.6473     1.0000     0.3527     0.8951     0.8468     0.0482
  3 O      8.6847     8.0000    -0.6847     2.0806     1.6988     0.3818
  4 H      0.6602     1.0000     0.3398     0.9037     0.8575     0.0462
  5 H      0.6534     1.0000     0.3466     0.8971     0.8487     0.0484
  6 O      8.7205     8.0000    -0.7205     2.0288     1.6436     0.3852
  7 H      0.6807     1.0000     0.3193     0.9158     0.8662     0.0495
  8 H      0.6397     1.0000     0.3603     0.9242     0.8793     0.0449
  9 O      8.6950     8.0000    -0.6950     2.1030     1.7190     0.3839
 10 H      0.6256     1.0000     0.3744     0.9003     0.8567     0.0435
 11 H      0.6563     1.0000     0.3437     0.9046     0.8563     0.0483

  Mayer bond orders larger than 0.100000
B(  0-O ,  1-H ) :   0.8417 B(  0-O ,  2-H ) :   0.8357 B(  3-O ,  4-H ) :   0.8523 
B(  3-O ,  5-H ) :   0.8426 B(  6-O ,  7-H ) :   0.8630 B(  6-O ,  8-H ) :   0.7925 
B(  9-O , 10-H ) :   0.8065 B(  9-O , 11-H ) :   0.8409 


----------------------------------
MP2 DERIVATIVE INTEGRAL GENERATION
----------------------------------


Input Wavefunction Amplitudes       ... 12h2o.su.etal.mol1,2,4,7-orca.engrad-mp2.def2tzvp.frozencore.mp2tsaa.tmp
Input Correlated Electron Density   ... 12h2o.su.etal.mol1,2,4,7-orca.engrad-mp2.def2tzvp.frozencore.pmp2re
Input Energy Weighted Density       ... 12h2o.su.etal.mol1,2,4,7-orca.engrad-mp2.def2tzvp.frozencore.wmp2.tmp
Input SCF Electron Density          ... 12h2o.su.etal.mol1,2,4,7-orca.engrad-mp2.def2tzvp.frozencore.scfp

One-Electron Terms    ...
                        ... One-Electron Terms done
Prescreening matrices              ... done

Batch handling in the gradient evaluation:
Memory available                      ... 8000.0 MB
Memory per occupied orbital in Q2     ...    3.6 MB
Memory per occupied orbital in Q3     ...    0.1 MB
Total memory requirement per |i>      ...    3.7 MB
Max. Number of orbitals possible      ...   2176
Number of orbitals treated per batch  ...     16
Number of batches to be done          ...      1
Batch   0: i=    4 ...    19

---------------------------------------
MP2 TOTAL ENERGY:     -305.266296692 Eh
---------------------------------------

The final MP2 gradient
  0:  -0.02545400   0.01103569   0.00144685
  1:  -0.00140791   0.00169770  -0.00251115
  2:   0.02770924  -0.01115367  -0.00119461
  3:  -0.00845762  -0.02695161  -0.00175289
  4:  -0.00169815  -0.00252299   0.00117101
  5:   0.01027302   0.02923230  -0.00061540
  6:   0.00295200   0.00070792   0.01109557
  7:  -0.00124817   0.00341497  -0.01040291
  8:  -0.00269302  -0.00786061   0.00052122
  9:  -0.01488458   0.01003447  -0.00207564
 10:  -0.00227627  -0.00194151   0.00006162
 11:   0.01718546  -0.00569266   0.00425634

-----------------------------------
NORM OF THE MP2 GRADIENT:  0.066731
-----------------------------------

-------------------------   --------------------
FINAL SINGLE POINT ENERGY      -305.266296691805
-------------------------   --------------------


                            ***************************************
                            *     ORCA property calculations      *
                            ***************************************

                                    ---------------------
                                    Active property flags
                                    ---------------------
   (+) Dipole Moment


------------------------------------------------------------------------------
                       ORCA ELECTRIC PROPERTIES CALCULATION
------------------------------------------------------------------------------

Dipole Moment Calculation                       ... on
Quadrupole Moment Calculation                   ... off
Polarizability Calculation                      ... off
GBWName                                         ... 12h2o.su.etal.mol1,2,4,7-orca.engrad-mp2.def2tzvp.frozencore.gbw
Electron density file                           ... 12h2o.su.etal.mol1,2,4,7-orca.engrad-mp2.def2tzvp.frozencore.scfp
The origin for moment calculation is the CENTER OF MASS  = (-1.619479, -0.921952 -0.000000)

-------------
DIPOLE MOMENT
-------------
                                X             Y             Z
Electronic contribution:     -0.24380      -0.08930       0.19667
Nuclear contribution   :      0.98858      -1.27851       0.00000
                        -----------------------------------------
Total Dipole Moment    :      0.74478      -1.36781       0.19667
                        -----------------------------------------
Magnitude (a.u.)       :      1.56980
Magnitude (Debye)      :      3.99011



--------------------
Rotational spectrum 
--------------------
 
Rotational constants in cm-1:     0.125167     0.043519     0.034627 
Rotational constants in MHz :  3752.424595  1304.677026  1038.088647 

 Dipole components along the rotational axes: 
x,y,z [a.u.] :    -0.442978     1.362258     0.642098 
x,y,z [Debye]:    -1.125962     3.462585     1.632083 

 

                         *** MP2 UNRELAXED DENSITY ***

------------------------------------------------------------------------------
                       ORCA ELECTRIC PROPERTIES CALCULATION
------------------------------------------------------------------------------

Dipole Moment Calculation                       ... on
Quadrupole Moment Calculation                   ... off
Polarizability Calculation                      ... off
GBWName                                         ... 12h2o.su.etal.mol1,2,4,7-orca.engrad-mp2.def2tzvp.frozencore.gbw
Electron density file                           ... 12h2o.su.etal.mol1,2,4,7-orca.engrad-mp2.def2tzvp.frozencore.pmp2ur
The origin for moment calculation is the CENTER OF MASS  = (-1.619479, -0.921952 -0.000000)

-------------
DIPOLE MOMENT
-------------
                                X             Y             Z
Electronic contribution:     -0.25555      -0.07962       0.19821
Nuclear contribution   :      0.98858      -1.27851       0.00000
                        -----------------------------------------
Total Dipole Moment    :      0.73303      -1.35812       0.19821
                        -----------------------------------------
Magnitude (a.u.)       :      1.55599
Magnitude (Debye)      :      3.95502



--------------------
Rotational spectrum 
--------------------
 
Rotational constants in cm-1:     0.125167     0.043519     0.034627 
Rotational constants in MHz :  3752.424595  1304.677026  1038.088647 

 Dipole components along the rotational axes: 
x,y,z [a.u.] :    -0.434341     1.353380     0.633107 
x,y,z [Debye]:    -1.104006     3.440019     1.609229 

 

                           *** MP2 RELAXED DENSITY ***

------------------------------------------------------------------------------
                       ORCA ELECTRIC PROPERTIES CALCULATION
------------------------------------------------------------------------------

Dipole Moment Calculation                       ... on
Quadrupole Moment Calculation                   ... off
Polarizability Calculation                      ... off
GBWName                                         ... 12h2o.su.etal.mol1,2,4,7-orca.engrad-mp2.def2tzvp.frozencore.gbw
Electron density file                           ... 12h2o.su.etal.mol1,2,4,7-orca.engrad-mp2.def2tzvp.frozencore.pmp2re
The origin for moment calculation is the CENTER OF MASS  = (-1.619479, -0.921952 -0.000000)

-------------
DIPOLE MOMENT
-------------
                                X             Y             Z
Electronic contribution:     -0.26545      -0.07608       0.20238
Nuclear contribution   :      0.98858      -1.27851       0.00000
                        -----------------------------------------
Total Dipole Moment    :      0.72313      -1.35459       0.20238
                        -----------------------------------------
Magnitude (a.u.)       :      1.54880
Magnitude (Debye)      :      3.93674



--------------------
Rotational spectrum 
--------------------
 
Rotational constants in cm-1:     0.125167     0.043519     0.034627 
Rotational constants in MHz :  3752.424595  1304.677026  1038.088647 

 Dipole components along the rotational axes: 
x,y,z [a.u.] :    -0.425506     1.351033     0.626453 
x,y,z [Debye]:    -1.081551     3.434054     1.592317 

 

Timings for individual modules:

Sum of individual times         ...       15.135 sec (=   0.252 min)
GTO integral calculation        ...        0.913 sec (=   0.015 min)   6.0 %
SCF iterations                  ...        4.426 sec (=   0.074 min)  29.2 %
MP2 module                      ...        9.796 sec (=   0.163 min)  64.7 %
                             ****ORCA TERMINATED NORMALLY****
TOTAL RUN TIME: 0 days 0 hours 0 minutes 16 seconds 49 msec
