73
Energy:   -664.91226974
C    4.50392840  -1.83580219   1.69266585
H    4.02500774  -2.44059866   0.95121024
H    3.81542438  -1.63220066   2.48601807
H    5.35380711  -2.35590507   2.08266363
C    4.96095802  -0.50981970   1.05666715
N    5.30123735   0.47743454   0.58313720
C    0.37231234   3.33969408  -2.28398778
H    0.74876385   3.80775553  -1.39849192
H   -0.61479694   3.69997474  -2.48576044
H    1.01229067   3.57149853  -3.10957456
C    0.33011258   1.81387279  -2.07980993
N    0.29869295   0.67782949  -1.92779024
C    2.53706578   2.87486737   1.47059097
H    2.14125015   3.26494366   2.38495996
H    2.21213073   3.48364686   0.65284784
H    3.60615074   2.87788338   1.51471968
C    2.03572393   1.43291834   1.26800924
N    1.66245213   0.35932175   1.11717793
C   -2.61113045   0.74264609   2.64100637
H   -1.91354766   1.41489466   3.09527532
H   -2.94580009   0.03155818   3.36712572
H   -3.44911361   1.29508227   2.27019972
C   -1.92738354   0.00344922   1.47581189
N   -1.41830289  -0.54691644   0.60827164
C   -3.06907469   4.69917037   0.79189810
H   -3.19525358   5.06671737  -0.20504135
H   -3.00534607   5.52385021   1.47067708
H   -3.90520086   4.08515732   1.05415771
C   -1.77579405   3.86697323   0.87235370
N   -0.81288782   3.24736464   0.93225655
C    0.50875910  -2.36405286   4.04709941
H   -0.53646414  -2.23163688   4.23384675
H    1.04122936  -1.49232433   4.36563337
H    0.86275766  -3.21607821   4.58898215
C    0.73724719  -2.58299111   2.53996331
N    0.90736695  -2.74600059   1.41783197
C    4.65536247  -0.28981380  -2.98051920
H    4.21800664   0.52522488  -3.51841510
H    5.05725000  -0.99950392  -3.67314135
H    5.43896482   0.07765171  -2.35136458
C    3.57860676  -0.97031386  -2.11500385
N    2.77691319  -1.47697708  -1.47058833
C   -2.21210213  -4.67596456   0.89815363
H   -1.24476059  -4.46685785   0.49142901
H   -2.94380827  -4.63225247   0.11867016
H   -2.21238672  -5.65353066   1.33319792
C   -2.55083197  -3.63286835   1.97926990
N   -2.80303174  -2.85623581   2.78421011
C    6.13227039   3.42660528  -1.13359058
H    6.47342760   2.79369900  -0.34116293
H    6.16291829   4.44709217  -0.81333083
H    6.76492789   3.30158909  -1.98741406
C    4.68659254   3.04870812  -1.50616176
N    3.61021967   2.76734651  -1.78355795
C   -2.44104939  -3.95206975  -3.34675848
H   -2.04030579  -4.87153242  -3.71944218
H   -2.70166502  -3.31769633  -4.16806778
H   -3.31367087  -4.15452747  -2.76157328
C   -1.38680443  -3.25036531  -2.47052881
N   -0.60187114  -2.72791445  -1.81813599
C   -5.58815226  -1.17156980   1.13416330
H   -6.61007842  -1.48823053   1.11704339
H   -5.54157362  -0.10993799   1.00899371
H   -5.14726793  -1.43988082   2.07146223
C   -4.81892342  -1.85760518  -0.01005803
N   -4.24619759  -2.36838971  -0.86198282
C   -3.08208997   0.29932968  -2.60790321
H   -3.88993548  -0.23870048  -3.05824682
H   -2.34027119  -0.39165937  -2.26564873
H   -2.64817498   0.96044781  -3.32869423
C   -3.61157501   1.11668416  -1.41493328
N   -4.00580068   1.72524172  -0.52671294
Na   0.63229562  -1.19940007  -0.44625855
