73
Energy:   -663.77136171
C   -0.37751826   6.87779669  -0.55333877
H   -0.18358087   7.42597332   0.34487660
H   -1.43315478   6.83085900  -0.72164652
H    0.09388321   7.36819253  -1.37928772
C    0.18421959   5.45058136  -0.41511082
N    0.60245896   4.38795467  -0.31219383
C    0.01276383  -3.20565610  -4.33824699
H   -0.98846775  -2.84865677  -4.46066833
H    0.14232758  -4.10503814  -4.90324635
H    0.70096658  -2.46377054  -4.68592770
C    0.27681685  -3.49279160  -2.84847211
N    0.47341633  -3.70657702  -1.73926699
C    0.50067619  -2.70504319   1.63329979
H   -0.23636365  -2.76032404   2.40700289
H    1.47712124  -2.77507279   2.06521414
H    0.35644527  -3.51150170   0.94502571
C    0.36369611  -1.36399001   0.88871075
N    0.26170822  -0.36551497   0.33433036
C    4.82881539   1.49643484   1.95707537
H    4.18464999   2.35041257   1.93113006
H    5.34941052   1.41394530   1.02590660
H    5.53594119   1.60710299   2.75245249
C    3.98893016   0.22678688   2.18985611
N    3.36359743  -0.71852373   2.36317194
C   -2.63933335  -5.04431109  -1.29614530
H   -2.72396030  -4.42111818  -2.16180635
H   -3.45432005  -5.73729526  -1.27449577
H   -1.71491365  -5.58191011  -1.33267759
C   -2.67503557  -4.17012156  -0.02881818
N   -2.70161750  -3.51924772   0.91476446
C   -3.50202738  -2.58718355   3.97140436
H   -2.90046523  -3.47003496   3.91143318
H   -4.33288964  -2.67564369   3.30301690
H   -3.86068153  -2.46728394   4.97234910
C   -2.65581124  -1.36178461   3.57908344
N   -2.02576487  -0.44941940   3.28698268
C    0.95007221   0.47678404   4.60395505
H    1.18903379  -0.52403462   4.31042559
H   -0.02300570   0.49537024   5.04855941
H    1.67285894   0.82271397   5.31304666
C    0.96637836   1.39258566   3.36595606
N    0.97851903   2.07444160   2.44420953
C    3.52544797   2.70403752  -3.10092230
H    3.33968674   1.93351224  -3.81972946
H    4.57388019   2.91511064  -3.06720128
H    2.99234332   3.58865159  -3.38048712
C    3.05111794   2.23604663  -1.71254355
N    2.69795767   1.88760613  -0.67883247
C    3.36796542  -1.81429641  -1.12788471
H    3.12015357  -1.22500901  -0.26984635
H    4.43192420  -1.88403174  -1.21748256
H    2.95419598  -2.79498944  -1.01863675
C    2.78884157  -1.15059694  -2.39110226
N    2.35765754  -0.65644251  -3.33162515
C   -0.63176849   0.62294069  -4.61633690
H   -0.90415666   1.38022893  -5.32147474
H   -1.40296023  -0.11748622  -4.57240074
H    0.28566693   0.16469145  -4.92165477
C   -0.45021438   1.25821043  -3.22526880
N   -0.31503909   1.73119762  -2.18955537
C   -3.27812589  -0.37273985  -0.24394448
H   -4.14495162  -0.88557070   0.11732807
H   -3.52479458   0.64964817  -0.44086170
H   -2.50416254  -0.41723856   0.49355108
C   -2.78945409  -1.04207757  -1.54193789
N   -2.42561573  -1.54042992  -2.50835298
C   -3.18723868   2.73369983   3.21616913
H   -4.11736581   2.21113939   3.13435045
H   -3.37535265   3.76623728   3.42444452
H   -2.60840409   2.30946079   4.00981316
C   -2.41089517   2.61030101   1.89190954
N   -1.83287214   2.51842498   0.90593807
Na   0.39073715   2.01367716   0.09268840
