73
Energy:   -663.33426478
C    1.54068135  -0.07170683   3.75580031
H    2.30163549  -0.33335075   4.46106014
H    1.41311168  -0.87087726   3.05583481
H    0.61958022   0.10041654   4.27237107
C    1.95477899   1.20734613   3.00470334
N    2.26309351   2.15965920   2.44547750
C    1.84587746   0.78389266  -4.73728978
H    1.83365099   1.05921292  -5.77118990
H    1.25033862  -0.09356119  -4.59478602
H    2.85226500   0.58519886  -4.43298076
C    1.27215842   1.93648751  -3.89232140
N    0.84499851   2.79464676  -3.26320403
C   -0.44144963   4.19789226   3.92748809
H   -1.01275831   4.96049231   3.44071533
H    0.56960965   4.23243680   3.57896995
H   -0.45982090   4.35880947   4.98515876
C   -1.04792194   2.81899698   3.60742691
N   -1.49946814   1.79234677   3.36912682
C   -2.21982861  -1.68828640   3.58473020
H   -2.35758790  -0.73284884   4.04631620
H   -1.67767181  -2.32980166   4.24762029
H   -3.17430745  -2.12170535   3.37021390
C   -1.42812128  -1.51630023   2.27506602
N   -0.83865919  -1.38824870   1.29996151
C   -0.39129483   3.11620911   0.05509699
H   -0.52044140   3.63174339  -0.87358258
H    0.20707977   3.71111459   0.71307450
H   -1.34761263   2.94197640   0.50230868
C    0.30975159   1.76876843  -0.19894538
N    0.83171252   0.76553760  -0.38809147
C    4.66030303  -0.61687135   1.05102821
H    4.45228760   0.40689505   1.28239829
H    5.27640734  -0.66707888   0.17764755
H    5.17054361  -1.07198261   1.87408798
C    3.33859274  -1.36304968   0.79045227
N    2.35451936  -1.91861336   0.59644163
C    4.51711125  -2.35926286  -3.27131017
H    4.56761793  -2.69227262  -4.28691529
H    4.96076454  -3.09412314  -2.63252131
H    5.04625675  -1.43453129  -3.17243820
C    3.04431372  -2.15325008  -2.87127746
N    1.94774901  -1.99986421  -2.57343492
C   -2.03697627  -5.66979991   0.42419681
H   -2.77733605  -5.23796328   1.06473151
H   -1.34895458  -6.24284934   1.00997799
H   -2.51263171  -6.30689815  -0.29187360
C   -1.27705892  -4.54961182  -0.31017658
N   -0.71126591  -3.71558087  -0.85695094
C    3.53332449   3.29279182  -0.90623870
H    4.40360501   3.91265186  -0.96355831
H    3.23552380   3.18978149   0.11630847
H    2.73885537   3.74081028  -1.46570039
C    3.85282368   1.90410050  -1.49023926
N    4.09070535   0.87015668  -1.92505423
C   -4.17646316  -2.14320991  -1.77679207
H   -3.28692867  -2.50843729  -2.24608678
H   -4.23642914  -1.08235585  -1.90285489
H   -5.03146008  -2.60456119  -2.22516062
C   -4.13986521  -2.48039196  -0.27460404
N   -4.11261636  -2.73143933   0.84384322
C   -4.68498452   0.67862922   2.14530496
H   -4.12207644   1.01465343   2.99095406
H   -4.93208062  -0.35504619   2.26923133
H   -5.58408598   1.25303923   2.06425677
C   -3.84548222   0.85600473   0.86648762
N   -3.22043459   0.98806886  -0.08565003
C   -2.42617545   1.54071387  -3.34477099
H   -3.40960765   1.55072548  -2.92327241
H   -2.49584303   1.52678314  -4.41240925
H   -1.89572550   2.41623720  -3.03335352
C   -1.67394904   0.28625312  -2.86302037
N   -1.11388229  -0.64774993  -2.50433514
Na   0.36762903  -1.55799833  -0.80347923
