73
Energy:   -663.60785209
C    3.17928456   1.87473223   1.10090058
H    4.08266521   1.69861453   1.64659843
H    2.43382266   2.26530735   1.76168551
H    3.36702145   2.57989718   0.31834302
C    2.68179795   0.55116110   0.49076410
N    2.31139656  -0.43429777   0.03648975
C    3.61608252  -0.11573059  -3.16860080
H    4.52550919  -0.22363902  -3.72195339
H    3.40499153  -1.02653220  -2.64823542
H    3.72027869   0.68210588  -2.46326456
C    2.46103452   0.20216278  -4.13628253
N    1.60104879   0.43884885  -4.85676556
C    1.69104207   2.21353889   5.50424628
H    2.34037556   3.01936502   5.23238151
H    1.89528037   1.91511981   6.51128742
H    0.67311599   2.53402584   5.42669817
C    1.92758982   1.02198831   4.55775150
N    2.10371036   0.13482474   3.85304312
C   -2.17012080  -4.76956867   1.84224495
H   -2.81272155  -5.61239265   1.98925582
H   -1.37607069  -4.79717133   2.55891894
H   -1.76024657  -4.80157805   0.85437977
C   -2.97800862  -3.47073308   2.02097208
N   -3.57951782  -2.50369094   2.15404256
C   -0.35194079   3.16386969   0.35053461
H    0.34248219   3.96395146   0.20038115
H   -1.29581001   3.42522303  -0.08039976
H    0.02007660   2.27623860  -0.11702630
C   -0.52835195   2.91372137   1.85980759
N   -0.65969808   2.72747457   2.98352992
C    2.96374186  -3.02357989   2.98251430
H    3.54264762  -3.92311418   2.95789025
H    2.58040909  -2.87305469   3.97008569
H    3.58196145  -2.19398916   2.70959882
C    1.79248679  -3.13955738   1.98938249
N    0.92043416  -3.22590790   1.24995072
C   -1.26697220  -0.60828577   4.01578540
H   -2.21134949  -1.09256404   4.15189668
H   -1.31198229   0.38124887   4.42037700
H   -0.50468228  -1.16520522   4.51942604
C   -0.94012105  -0.53392945   2.51270873
N   -0.69676551  -0.47856778   1.39359983
C    0.28433052  -2.93306751  -4.99243834
H   -0.66793673  -3.42058532  -5.01277674
H    0.98953282  -3.50407035  -5.55948733
H    0.19351579  -1.95515268  -5.41709626
C    0.77062554  -2.81705520  -3.53584701
N    1.13269429  -2.73067875  -2.45134856
C    2.03385433   4.02593295  -4.54307086
H    1.68691337   3.27517371  -5.22196166
H    3.02727524   4.31851511  -4.81216131
H    1.38633739   4.87644177  -4.59056460
C    2.03534683   3.46126752  -3.11032848
N    2.03645806   3.04084844  -2.04358665
C   -4.45188348  -1.72262451  -1.30642801
H   -4.49122979  -0.77499896  -1.80176411
H   -4.88797623  -1.63478410  -0.33328554
H   -4.99575912  -2.44618298  -1.87700798
C   -2.98482965  -2.17153894  -1.17290312
N   -1.89254138  -2.50577613  -1.07348777
C   -4.08145430   1.18796072   2.08204832
H   -4.19288195   0.15581489   2.34119895
H   -5.02279364   1.68570396   2.18707698
H   -3.36292935   1.64313525   2.73123021
C   -3.60039478   1.30199010   0.62356313
N   -3.24222411   1.38689016  -0.46234538
C   -1.44890576   2.01757907  -3.48619492
H   -2.51100911   1.94231303  -3.38049873
H   -1.17988876   1.85545712  -4.50905631
H   -1.12854123   2.99254556  -3.18336495
C   -0.76853853   0.95601550  -2.60200986
N   -0.26197420   0.16563316  -1.94369390
Na   0.28088009  -1.64303291  -0.47735362
