73
Energy:   -663.31910969
C    4.97685324   0.41213256  -5.38084827
H    5.83543954  -0.11704445  -5.02349489
H    5.18708885   1.46108929  -5.40059277
H    4.73737495   0.07771509  -6.36863073
C    3.78321625   0.14534900  -4.44508266
N    2.89449926  -0.05328349  -3.74836263
C    3.10884309  -3.20069011   1.38440392
H    3.92141731  -3.87243366   1.20169126
H    2.22983800  -3.76132432   1.62510796
H    3.35583396  -2.55618445   2.20202672
C    2.84897117  -2.35459224   0.12417180
N    2.65548472  -1.72463392  -0.81412829
C   -0.67205901  -1.58372722   2.22392051
H   -0.72959141  -0.87454192   3.02307408
H    0.12754920  -2.26931053   2.41233843
H   -1.59469028  -2.12149682   2.15717861
C   -0.41219367  -0.84370888   0.89861192
N   -0.21871211  -0.29273159  -0.08814057
C   -0.66263987   3.13320432   0.05106324
H   -0.26176530   2.47947315   0.79727723
H   -0.83478259   4.09901820   0.47822775
H    0.03232607   3.21972650  -0.75790855
C   -1.99207655   2.55951023  -0.47341098
N   -2.98190259   2.13236890  -0.86390587
C   -2.26689420   2.47928710  -4.43489799
H   -3.08129988   2.58677773  -3.74926738
H   -2.55951818   1.83592212  -5.23823590
H   -2.00050931   3.43913396  -4.82557967
C   -1.05699197   1.86908250  -3.70319657
N   -0.15616477   1.41475744  -3.15841161
C   -4.42855799   0.67629074   2.07569701
H   -4.51743828   0.86039680   1.02540874
H   -5.20989548   1.19049735   2.59531454
H   -4.50798833  -0.37443814   2.26159680
C   -3.06177217   1.18350753   2.57191031
N   -2.04413800   1.56115348   2.94136367
C    1.25222934   1.24321656   4.78686938
H    1.31933573   0.62745976   5.65936033
H    0.22435838   1.45417783   4.57740406
H    1.77719424   2.16008673   4.95616214
C    1.87945622   0.50621058   3.58895092
N    2.34645514  -0.04252387   2.69704618
C    0.94349170  -4.51616447  -3.07878229
H    1.55979758  -4.65298414  -3.94269642
H    0.09197099  -5.16096449  -3.14237861
H    1.50491710  -4.75248171  -2.19909213
C    0.47399152  -3.05109361  -3.00995669
N    0.12442730  -1.96028176  -2.95871291
C   -2.52901405  -5.29547929   0.49716919
H   -3.05564454  -4.74826487   1.25090447
H   -2.42673905  -6.31572553   0.80300661
H   -3.07469179  -5.25171565  -0.42218909
C   -1.13288885  -4.67765292   0.29536486
N   -0.09341017  -4.21765310   0.14511237
C   -3.12430764  -0.95133822  -2.19468829
H   -2.18391685  -0.44095008  -2.20301257
H   -3.91117234  -0.25242030  -2.38770845
H   -3.12604491  -1.70820609  -2.95102625
C   -3.34277045  -1.60251217  -0.81633910
N   -3.50542594  -2.08734077   0.20990452
C    3.89344543   2.69303565   1.23874450
H    4.23496609   1.89808764   1.86828521
H    3.29994897   3.37314266   1.81330128
H    4.73564228   3.21167802   0.83056115
C    3.04396684   2.11186247   0.09322110
N    2.41149141   1.67915263  -0.75967314
C   -1.33946449   4.82006644   4.08470535
H   -1.94104819   5.34683141   3.37370893
H   -1.11357942   5.46494307   4.90811847
H   -1.87377420   3.96330938   4.43879510
C   -0.02973041   4.36686730   3.41328360
N    0.94542615   4.02943994   2.91337958
Na   1.29795717  -0.08006729  -1.95339254
