30
Energy:   -383.67397562
O   -0.54675500  -0.08637734  -2.06039998
H   -0.24543972   0.61433273  -1.48208661
H   -0.14868841  -0.88020828  -1.70317837
O    1.90677103   0.77102947   1.53750590
H    2.66556909   1.12125657   2.00419459
H    2.28038781   0.19923294   0.86691581
O   -2.73642107  -0.32055068  -0.42031724
H   -2.67268062   0.51435475   0.04347358
H   -2.13980373  -0.22858654  -1.16316459
O   -2.02434211   1.89907579   1.09109176
H   -2.51078811   2.50677476   1.64814122
H   -1.56612968   1.32512973   1.70498029
O    0.31645087   1.92641197  -0.39340866
H    0.89555157   1.62082845   0.30479830
H   -0.50979395   2.12203679   0.04849888
O    2.75977610  -0.70240875  -0.53190408
H    2.08316661  -1.37015291  -0.64392718
H    2.66821221  -0.13695639  -1.29878838
O   -1.40230436  -2.08078518   1.10118937
H   -2.01845440  -2.67049147   1.53574371
H   -1.95373845  -1.50720183   0.56906679
O   -0.59560331   0.14034001   2.54717478
H   -0.80670526  -0.70555368   2.15203976
H    0.32070351   0.29153335   2.31532519
O    0.52491311  -2.30818607  -0.83543182
H   -0.09047778  -2.32925902  -0.10257315
H    0.49323855  -3.19230100  -1.20090323
O    2.01684652   1.02433663  -2.53703297
H    1.68569780   1.71763650  -1.96614974
H    1.23107256   0.58115690  -2.85700618
