30
Energy:   -381.39377624
O    1.60971240  -1.63071900  -1.15967589
H    1.86853690  -2.55026413  -1.09902544
H    0.71232329  -1.61156185  -0.82717381
O    2.33739116   0.23224494   0.79373228
H    2.36391662   1.02967836   0.26493346
H    2.25752616  -0.47649788   0.15534600
O   -1.33818669   0.81889753  -1.98442336
H   -0.51625571   0.73813128  -2.46830158
H   -1.38279722   0.02414900  -1.45280647
O   -2.31519822  -2.85375775   1.47939772
H   -2.06001484  -2.31527971   2.22850030
H   -3.23760994  -3.05774544   1.63359726
O   -0.72996192   2.63825011  -0.09716631
H   -1.03625598   2.05751807  -0.79370496
H   -1.30105772   3.40424658  -0.15487981
O    1.26944536   0.48395426  -2.88956934
H    1.71823950   0.34604373  -3.72371343
H    1.46772301  -0.30029602  -2.37783765
O   -1.51090623  -1.09733018   3.41339999
H   -1.06274555  -1.08943895   4.25916685
H   -1.06361209  -0.42572748   2.89851203
O   -0.18627571   0.59691950   1.69384263
H    0.75145797   0.49181967   1.53308992
H   -0.42062761   1.40085589   1.23016460
O   -0.88908909  -1.23632124  -0.18558942
H   -1.42804220  -1.88683977   0.26450729
H   -0.66937687  -0.59660516   0.49170056
O    1.91299262   2.32227729  -0.90731871
H    1.04391203   2.59445177  -0.61261238
H    1.74750842   1.79909890  -1.69162170
