30
Energy:   -381.39791258
O    0.88474901  -1.41023932  -3.28982518
H    0.79700516  -1.96385878  -2.51391388
H    0.45420196  -1.90459627  -3.98730084
O    1.74178981   1.02270628   1.89943255
H    2.51722620   1.13723629   2.44880777
H    2.03874369   0.46852086   1.17767859
O   -2.11952113   1.98740209   1.29052593
H   -1.31257930   2.35876284   0.93391982
H   -2.67515726   2.74640087   1.46778614
O   -2.15191961   0.11687921  -0.75104013
H   -1.99707295  -0.70099118  -0.27844900
H   -2.31122409   0.76439447  -0.06432482
O    0.25990570   2.72260135   0.27158126
H    0.85235411   2.26561486   0.86857380
H    0.32820258   2.23865225  -0.55143796
O    2.29034997  -0.41015769  -0.34889162
H    3.01699828  -0.47820309  -0.96823313
H    1.59354443   0.02178247  -0.84297825
O   -1.38862047  -2.04276446   0.79474041
H   -1.94315847  -2.66921615   1.25979711
H   -1.11846334  -1.41658615   1.46641570
O   -0.72963711  -0.07481314   2.52076944
H   -1.29706162   0.64893742   2.25535202
H    0.15847948   0.26971786   2.42707228
O    0.74771362  -2.64340449  -0.86360601
H    1.37095362  -1.99757808  -0.53087190
H   -0.02430590  -2.54078781  -0.30711025
O    0.27797987   0.76105181  -1.74089842
H   -0.61168747   0.54688265  -1.46008632
H    0.45243958   0.15967439  -2.46487415
