30
Energy:   -382.95014797
O   -0.03684946  -2.18281318  -2.57345812
H   -0.47908565  -2.85312103  -3.09436731
H   -0.74136113  -1.75025489  -2.09097654
O    1.52290740   1.78891603   1.72655716
H    2.26354673   2.14299981   2.21880700
H    1.91471196   1.15341109   1.12751251
O   -2.34762039   1.61300561   0.53249414
H   -1.61227914   2.15492855   0.24644411
H   -3.07748392   2.22600007   0.62063522
O   -1.57426073  -0.67637888  -0.82855220
H   -1.31834907  -1.20920622  -0.07566702
H   -2.02911845   0.07471061  -0.44749986
O   -0.11101065   2.88394228  -0.23362719
H    0.50991552   2.66584007   0.46143681
H    0.17410645   2.36098025  -0.98292740
O    2.40444359   0.07433502  -0.14245502
H    2.28367166  -0.87506058  -0.12530901
H    1.84106602   0.37508492  -0.85546769
O   -0.64170109  -2.05958071   1.34856752
H   -0.61478047  -1.23439528   1.83289813
H   -0.98284488  -2.69576967   1.97715035
O   -0.74553883   0.39009674   2.45414660
H    0.06462183   0.88510452   2.33233177
H   -1.39214843   0.85326053   1.92159879
O    1.54560260  -2.51216271  -0.29688734
H    0.83535063  -2.45240282   0.34202013
H    1.10536259  -2.50202563  -1.14678017
O    0.48315442   0.77245042  -1.96800105
H   -0.23312260   0.28905842  -1.55628361
H    0.71653960   0.24891240  -2.73459817
