30
Energy:   -380.55757683
O    2.15458997  -0.80057977  -0.25933786
H    2.93575136  -1.33794082  -0.39072216
H    1.53003357  -1.38579630   0.16924442
O   -0.18916516  -0.22005243   2.82417970
H   -0.20943939  -0.11212651   3.77505971
H    0.59074232   0.25945176   2.54480201
O   -0.82511524   2.18755034  -0.90449120
H   -1.55513854   2.65973036  -1.30492078
H   -1.23887530   1.58765505  -0.28387853
O   -1.18949240  -1.62732037  -2.88778084
H   -1.03304540  -1.89824935  -3.79240986
H   -0.54041191  -0.94250147  -2.72669252
O    1.27243016   3.26606562   0.49537302
H    1.79169009   3.73807103  -0.15563533
H    0.50852019   2.95228239   0.01141692
O    1.98740014   0.99438358   1.83053322
H    2.16915712   0.42605372   1.08206985
H    1.79712372   1.84853818   1.44265870
O   -2.03411272  -2.09929719  -0.35862771
H   -2.77405294  -2.70458361  -0.40709071
H   -1.77087592  -1.96864067  -1.26959813
O   -1.94657924   0.41984191   0.78421609
H   -1.41840780   0.25362757   1.56501028
H   -2.07190464  -0.44378812   0.39093685
O    0.33366642  -2.28551683   1.05368813
H    0.13778746  -1.69846991   1.78392042
H   -0.48675163  -2.34111389   0.56373403
O    0.61688096   0.28005096  -2.28086922
H    1.21142885  -0.06107547  -1.61275440
H    0.14760024   0.99088447  -1.84415058
