30
Energy:   -380.60653459
O    1.48528783  -0.54978233  -2.89494358
H    1.49570913   0.37530981  -2.64932647
H    0.57305424  -0.81742358  -2.78345411
O   -1.23509197   2.65078897   0.74897955
H   -1.28341495   3.55835857   1.04933626
H   -0.78960465   2.18680178   1.45784399
O   -2.88871071   0.55201944   0.06926430
H   -2.41404713   1.35385323   0.28832800
H   -3.80932353   0.81384852   0.05704054
O   -1.03529745  -0.72682716  -1.56098689
H   -1.82810784  -0.36975448  -1.16075865
H   -0.67701871  -1.31739790  -0.89834492
O    0.49347906   1.48060014  -1.08531712
H   -0.04284324   2.06738522  -0.55214405
H   -0.09027368   0.75418040  -1.30390111
O    1.85603196   0.02145753   0.76693725
H    2.47432273  -0.51783317   0.27387142
H    1.48766691   0.61957937   0.11671475
O   -1.73087938  -0.91154230   2.14142024
H   -2.25918592  -0.49803419   1.45867937
H   -1.15710406  -1.51449826   1.66870696
O    0.16880181  -2.08856538   0.47484766
H    0.73158164  -2.82722601   0.24270291
H    0.77657392  -1.37227437   0.65861951
O    0.01843347   1.14227653   2.57330419
H   -0.58846379   0.40357238   2.62046074
H    0.81073867   0.77716642   2.17937664
O    3.01156142  -1.74604056  -0.99105269
H    3.85149627  -2.00888105  -1.36742508
H    2.51620480  -1.39522091  -1.73117379
