30
Energy:   -381.42945126
O    0.46581607  -1.49694040  -2.35228054
H    1.12655790  -1.56396985  -1.66296266
H    0.75593273  -2.11443910  -3.02366682
O    0.30526777   2.29640182   1.43839076
H    0.66366079   2.92266657   2.06734129
H    1.07019710   1.96251105   0.96974173
O   -1.51515406   2.10126169  -0.63149222
H   -2.05206200   2.89015399  -0.70639657
H   -0.95144762   2.26550238   0.12447861
O   -2.81225444  -0.04663420   0.53927183
H   -2.45929295   0.67413713   0.01760266
H   -2.49788784  -0.83701121   0.10028473
O    2.16654880  -1.48451061  -0.26770664
H    1.61514040  -1.78898550   0.45303996
H    2.29112445  -0.55097561  -0.09675298
O    2.30664002   1.28080356  -0.12561770
H    3.16153334   1.59260124  -0.42255450
H    1.75648069   1.30694618  -0.90847984
O    0.28648284  -2.23852652   1.60403099
H   -0.10180221  -1.44609788   1.97487248
H    0.23243488  -2.88449561   2.30832824
O   -0.89761342   0.01567703   2.46153291
H   -1.68244562  -0.01788275   1.91459233
H   -0.46277718   0.82972610   2.20761678
O   -1.49194669  -2.18885190  -0.52621062
H   -0.90286985  -2.34128857   0.21269626
H   -0.91077973  -1.97732127  -1.25677999
O    0.60451792   1.25308120  -2.19176697
H   -0.22274519   1.53783295  -1.80345777
H    0.47038439   0.32615739  -2.38938346
