28
Energy:   -898.12437362
O    0.60345561  -2.74150622  -1.09219663
H    0.50799935  -2.39157165  -0.20638302
H    0.16402490  -2.10122598  -1.65181589
O   -2.62130263  -1.14652641   0.21382883
H   -1.76905234  -1.13051642   0.64931128
H   -2.83837635  -0.22432459   0.07724683
O    2.76576836  -1.07249075  -0.76767075
H    2.14549213  -0.42431503  -0.43396807
H    2.22351752  -1.82644214  -0.99951807
O    2.49867333  -1.91611462   1.83840783
H    1.61037165  -1.56010687   1.85866771
H    2.84733000  -1.64311682   0.98979569
O   -2.23298882   1.53580686  -0.61246028
H   -1.82545502   1.00265711  -1.29502851
H   -1.74023663   1.32722029   0.18121394
O    0.05205423   3.08566736   1.99516254
H   -0.20382975   2.16340575   1.98142401
H    0.28565778   3.28344250   1.08821920
O    0.23063677   2.86034947  -0.75056674
H    0.55955300   2.01485880  -0.44529391
H   -0.72177525   2.76530039  -0.74013373
O   -0.92087186  -0.56331621  -1.83922804
H   -0.27311029  -0.19672348  -1.23735881
H   -1.57430981  -0.96983913  -1.27002702
C    0.24226367   0.01456515   1.09374891
O   -0.06135542  -1.32101084   1.06195877
O   -0.88859170   0.73306750   1.38013900
O    0.73223916   0.40030106  -0.12646092
