28
Energy:   -898.51757198
O   -2.16819748   0.54738162  -1.92622056
H   -1.54303736   0.00243707  -2.40417674
H   -2.05949867   0.29051784  -1.01055828
O    0.91613764  -3.73552204  -0.06020229
H    0.17023865  -3.14306432   0.03392743
H    1.63492616  -3.17261442  -0.34779563
O    0.77328031   2.70804719   1.35528661
H    0.59638092   2.37364670   0.47601716
H    0.84097180   1.92450680   1.90091851
O    0.21693080  -0.77175685  -2.59916245
H   -0.17049491  -1.23873422  -1.85884812
H    0.46577375   0.08056813  -2.24159964
O    2.36623330  -1.58726982  -0.99534784
H    1.80145177  -1.24192751  -0.30397793
H    1.84491395  -1.50610993  -1.79401615
O   -1.76059081   1.97539009   2.18707612
H   -1.79266953   1.20742420   1.61661036
H   -0.98442169   2.45593263   1.89920075
O    0.45947707   0.49981062   2.93052879
H   -0.42388508   0.86772901   2.95375014
H    0.48515567  -0.01186969   2.12197717
O    0.28982155   1.49410915  -1.05749972
H    0.35604166   0.75849828  -0.44862915
H   -0.63074444   1.50667756  -1.31947709
C   -0.68971162  -0.99454192   0.56706497
O   -0.90084026  -1.81752712  -0.50768079
O   -1.57434920   0.05069232   0.52233774
O    0.59180339  -0.51094245   0.52667883
