41
Energy:  -1096.25666027
O    2.66898593  -1.78188306   1.46730537
H    2.97748695  -0.88831860   1.31696730
H    1.71464567  -1.71465434   1.43653477
O   -3.25666406  -1.30491499  -1.12707712
H   -2.76310843  -0.61362069  -0.68577577
H   -2.64180737  -1.66998666  -1.76339917
O    3.35597946   0.54349192  -0.37240820
H    3.19292487  -0.31437677  -0.76446223
H    2.50890093   0.80845782  -0.01396311
O   -1.75733690  -3.21292179   0.24667325
H   -2.44358936  -2.59686781  -0.00977733
H   -1.06759947  -2.66286786   0.61806900
O    2.65438796  -1.93065116  -1.26941834
H    2.63953456  -2.12566173  -0.33241135
H    1.79121560  -1.55884914  -1.45088068
O    0.90513313   3.10040540  -1.21095826
H    0.92488317   2.50260258  -0.46364737
H    1.18928331   2.56655098  -1.95290838
O    1.94513251   1.10129291  -2.77051954
H    2.62059944   1.08756386  -2.09244301
H    1.26624920   0.51020809  -2.44499221
O   -1.03110260  -1.03654402   3.47614804
H   -0.58525647  -1.24652385   2.65556194
H   -1.56372106  -0.26835974   3.27013269
O   -1.73764002   3.05798340  -0.42518648
H   -0.87886001   3.17719404  -0.83079413
H   -1.81032275   2.11310781  -0.29043049
O   -0.35669316   2.97328650   1.97337986
H   -0.93331342   3.18822098   1.24020588
H    0.19500290   2.26346736   1.64471574
O   -2.36781231   1.17785551   2.51474269
H   -1.69054362   1.85232931   2.56596832
H   -2.25912795   0.79422649   1.64454253
O   -1.15086120  -2.57675502  -2.37145488
H   -1.24214985  -3.03149568  -1.53413227
H   -0.59541115  -1.82223670  -2.17547225
S   -0.07834276  -0.11757825   0.04735565
O    0.29248815  -0.53228602  -1.33488959
O    0.05588133  -1.28145327   0.96794178
O    0.82607862   0.97796787   0.49668926
O   -1.48781914   0.36545844   0.05968115
