41
Energy:  -1095.19070108
O   -3.46668023   0.36841436   0.65917215
H   -3.34307771  -0.54894636   0.41544364
H   -2.58321229   0.69021214   0.83851098
O   -0.47877777  -1.19362777   3.73774512
H   -0.21622144  -0.27353351   3.76462614
H   -0.48412467  -1.41455789   2.80640568
O    3.33344079   1.38169621  -0.58236976
H    2.73348230   1.16696041   0.13189224
H    3.34038781   0.59906695  -1.13343694
O   -1.00975620   3.10116982  -0.90216689
H   -0.23038966   2.90695266  -1.42283890
H   -0.99667526   2.45170192  -0.19913618
O   -2.64482250  -2.08389671  -0.25769151
H   -2.43024759  -1.68050521  -1.09880075
H   -1.85898595  -1.96099225   0.27483762
O   -3.22053835   1.67898113  -1.71321605
H   -3.41056398   1.24198040  -0.88306397
H   -2.46163128   2.23128947  -1.52547312
O    0.31171016   1.46100903   3.37586617
H    1.02567875   1.11905026   2.83777241
H   -0.41282652   1.58484593   2.76272437
O   -1.90367646  -0.61388252  -2.47450897
H   -1.05760196  -0.47389800  -2.04931004
H   -2.39088979   0.19368940  -2.31116083
O    2.72308034  -1.21611633  -1.56584901
H    2.99976804  -1.35210102  -0.65965702
H    1.85943338  -0.80957579  -1.49464111
O    3.23249983  -1.72052438   1.07695973
H    2.69654913  -0.94654794   1.25001795
H    2.59913649  -2.42239229   0.92707922
O    1.27377809  -3.32313271   0.01695390
H    1.51192684  -2.86590776  -0.78955857
H    0.61491221  -2.76170021   0.42551375
O    1.22453822   2.13749984  -2.21474428
H    2.02283281   2.15728581  -1.68695066
H    0.79231091   1.32058937  -1.96560839
S    0.14588203  -0.02669310   0.47138619
O    0.31007483  -0.09854145  -1.00779552
O    1.45277914   0.31502086   1.10015603
O   -0.85718979   1.02196799   0.80940525
O   -0.32213608  -1.34521980   0.98377902
