
                                 *****************
                                 * O   R   C   A *
                                 *****************

           --- An Ab Initio, DFT and Semiempirical electronic structure package ---

                  #######################################################
                  #                        -***-                        #
                  #          Department of theory and spectroscopy      #
                  #               Directorship: Frank Neese             #
                  #        Max Planck Institute fuer Kohlenforschung    #
                  #                Kaiser Wilhelm Platz 1               #
                  #                 D-45470 Muelheim/Ruhr               #
                  #                      Germany                        #
                  #                                                     #
                  #                  All rights reserved                #
                  #                        -***-                        #
                  #######################################################


                         Program Version 4.2.0 -  RELEASE  -


 With contributions from (in alphabetic order):
   Daniel Aravena         : Magnetic Suceptibility
   Michael Atanasov       : Ab Initio Ligand Field Theory (pilot matlab implementation)
   Alexander A. Auer      : GIAO ZORA, VPT2
   Ute Becker             : Parallelization
   Giovanni Bistoni       : ED, misc. LED, open-shell LED, HFLED
   Martin Brehm           : Molecular dynamics
   Dmytro Bykov           : SCF Hessian
   Vijay G. Chilkuri      : MRCI spin determinant printing, contributions to CSF-ICE
   Dipayan Datta          : RHF DLPNO-CCSD density
   Achintya Kumar Dutta   : EOM-CC, STEOM-CC
   Dmitry Ganyushin       : Spin-Orbit,Spin-Spin,Magnetic field MRCI
   Miquel Garcia          : C-PCM Hessian, Gaussian charge scheme
   Yang Guo               : DLPNO-NEVPT2, CIM, IAO-localization
   Andreas Hansen         : Spin unrestricted coupled pair/coupled cluster methods
   Benjamin Helmich-Paris : CASSCF linear response (MC-RPA)
   Lee Huntington         : MR-EOM, pCC
   Robert Izsak           : Overlap fitted RIJCOSX, COSX-SCS-MP3, EOM
   Christian Kollmar      : KDIIS, OOCD, Brueckner-CCSD(T), CCSD density
   Simone Kossmann        : Meta GGA functionals, TD-DFT gradient, OOMP2, MP2 Hessian
   Martin Krupicka        : AUTO-CI
   Lucas Lang             : DCDCAS
   Dagmar Lenk            : GEPOL surface, SMD
   Dimitrios Liakos       : Extrapolation schemes; Compound Job, initial MDCI parallelization
   Dimitrios Manganas     : Further ROCIS development; embedding schemes
   Dimitrios Pantazis     : SARC Basis sets
   Taras Petrenko         : DFT Hessian,TD-DFT gradient, ASA, ECA, R-Raman, ABS, FL, XAS/XES, NRVS
   Peter Pinski           : DLPNO-MP2, DLPNO-MP2 Gradient
   Christoph Reimann      : Effective Core Potentials
   Marius Retegan         : Local ZFS, SOC
   Christoph Riplinger    : Optimizer, TS searches, QM/MM, DLPNO-CCSD(T), (RO)-DLPNO pert. Triples
   Tobias Risthaus        : Range-separated hybrids, TD-DFT gradient, RPA, STAB
   Michael Roemelt        : Original ROCIS implementation
   Masaaki Saitow         : Open-shell DLPNO-CCSD energy and density
   Barbara Sandhoefer     : DKH picture change effects
   Avijit Sen             : IP-ROCIS
   Kantharuban Sivalingam : CASSCF convergence, NEVPT2, FIC-MRCI
   Bernardo de Souza      : ESD, SOC TD-DFT
   Georgi Stoychev        : AutoAux, RI-MP2 NMR
   Willem Van den Heuvel  : Paramagnetic NMR
   Boris Wezisla          : Elementary symmetry handling
   Frank Wennmohs         : Technical directorship


 We gratefully acknowledge several colleagues who have allowed us to
 interface, adapt or use parts of their codes:
   Stefan Grimme, W. Hujo, H. Kruse,             : VdW corrections, initial TS optimization,
                  C. Bannwarth                     DFT functionals, gCP, sTDA/sTD-DF
   Ed Valeev, F. Pavosevic, A. Kumar             : LibInt (2-el integral package), F12 methods
   Garnet Chan, S. Sharma, J. Yang, R. Olivares  : DMRG
   Ulf Ekstrom                                   : XCFun DFT Library
   Mihaly Kallay                                 : mrcc  (arbitrary order and MRCC methods)
   Andreas Klamt, Michael Diedenhofen            : otool_cosmo (COSMO solvation model)
   Jiri Pittner, Ondrej Demel                    : Mk-CCSD
   Frank Weinhold                                : gennbo (NPA and NBO analysis)
   Christopher J. Cramer and Donald G. Truhlar   : smd solvation model
   Lars Goerigk                                  : TD-DFT with DH, B97 family of functionals
   V. Asgeirsson, H. Jonsson                     : NEB implementation
   FAccTs GmbH                                   : IRC, NEB, NEB-TS, Multilevel, MM, QM/MM, CI optimization
   S Lehtola, MJT Oliveira, MAL Marques          : LibXC Library


 Your calculation uses the libint2 library for the computation of 2-el integrals
 For citations please refer to: http://libint.valeyev.net

 Your ORCA version has been built with support for libXC version: 4.2.3
 For citations please refer to: https://tddft.org/programs/libxc/

 This ORCA versions uses:
   CBLAS   interface :  Fast vector & matrix operations
   LAPACKE interface :  Fast linear algebra routines
   SCALAPACK package :  Parallel linear algebra routines


----- Orbital basis set information -----
Your calculation utilizes the basis: def2-TZVP
   F. Weigend and R. Ahlrichs, Phys. Chem. Chem. Phys. 7, 3297 (2005).

================================================================================
                                        WARNINGS
                       Please study these warnings very carefully!
================================================================================


WARNING: The frozen-core approximation for MP2-gradient calculations is turned on by default.

INFO   : the flag for use of LIBINT has been found!

================================================================================
                                       INPUT FILE
================================================================================
NAME = 12h2o.su.etal.mol3,4,5,6,7,8,9,11-orca.engrad-mp2.def2tzvp.frozencore.inp
|  1> # 12h2o.su.etal.mol3,4,5,6,7,8,9,11
|  2> ! MP2 def2-TZVP EnGrad TightSCF
|  3> 
|  4> %pal
|  5>     nprocs 6
|  6> end
|  7> 
|  8> %maxcore 8000
|  9> 
| 10> %scf
| 11>     ConvForced true
| 12> end
| 13> 
| 14> *xyz 0 1
| 15> O  -1.752130000  -0.741530000  -2.896280000
| 16> H  -2.036450000  -0.920500000  -1.984040000
| 17> H  -0.921210000  -1.242140000  -2.984230000
| 18> O  -0.885520000   1.737840000   0.052730000
| 19> H  -1.032320000   2.090180000  -0.841890000
| 20> H  -1.284090000   0.839590000   0.017130000
| 21> O   0.885520000  -1.737840000   0.052730000
| 22> H   1.284090000  -0.839590000   0.017130000
| 23> H   1.032320000  -2.090180000  -0.841890000
| 24> O   1.737840000   0.885520000  -0.052730000
| 25> H   2.090180000   1.032320000   0.841890000
| 26> H   0.839590000   1.284090000  -0.017130000
| 27> O  -1.737840000  -0.885520000  -0.052730000
| 28> H  -2.090180000  -1.032320000   0.841890000
| 29> H  -0.839590000  -1.284090000  -0.017130000
| 30> O   1.752130000   0.741530000  -2.896280000
| 31> H   2.036450000   0.920500000  -1.984040000
| 32> H   0.921210000   1.242140000  -2.984230000
| 33> O   0.741530000  -1.752130000   2.896280000
| 34> H   0.920500000  -2.036450000   1.984040000
| 35> H   1.242140000  -0.921210000   2.984230000
| 36> O  -0.741530000   1.752130000   2.896280000
| 37> H  -0.920500000   2.036450000   1.984040000
| 38> H  -1.242140000   0.921210000   2.984230000
| 39> *
| 40> 
| 41>                          ****END OF INPUT****
================================================================================

                     *******************************
                     * Energy+Gradient Calculation *
                     *******************************

---------------------------------
CARTESIAN COORDINATES (ANGSTROEM)
---------------------------------
  O     -1.752130   -0.741530   -2.896280
  H     -2.036450   -0.920500   -1.984040
  H     -0.921210   -1.242140   -2.984230
  O     -0.885520    1.737840    0.052730
  H     -1.032320    2.090180   -0.841890
  H     -1.284090    0.839590    0.017130
  O      0.885520   -1.737840    0.052730
  H      1.284090   -0.839590    0.017130
  H      1.032320   -2.090180   -0.841890
  O      1.737840    0.885520   -0.052730
  H      2.090180    1.032320    0.841890
  H      0.839590    1.284090   -0.017130
  O     -1.737840   -0.885520   -0.052730
  H     -2.090180   -1.032320    0.841890
  H     -0.839590   -1.284090   -0.017130
  O      1.752130    0.741530   -2.896280
  H      2.036450    0.920500   -1.984040
  H      0.921210    1.242140   -2.984230
  O      0.741530   -1.752130    2.896280
  H      0.920500   -2.036450    1.984040
  H      1.242140   -0.921210    2.984230
  O     -0.741530    1.752130    2.896280
  H     -0.920500    2.036450    1.984040
  H     -1.242140    0.921210    2.984230

----------------------------
CARTESIAN COORDINATES (A.U.)
----------------------------
  NO LB      ZA    FRAG     MASS         X           Y           Z
   0 O     8.0000    0    15.999   -3.311046   -1.401289   -5.473176
   1 H     1.0000    0     1.008   -3.848333   -1.739493   -3.749292
   2 H     1.0000    0     1.008   -1.740835   -2.347304   -5.639377
   3 O     8.0000    0    15.999   -1.673390    3.284042    0.099645
   4 H     1.0000    0     1.008   -1.950802    3.949868   -1.590942
   5 H     1.0000    0     1.008   -2.426578    1.586595    0.032371
   6 O     8.0000    0    15.999    1.673390   -3.284042    0.099645
   7 H     1.0000    0     1.008    2.426578   -1.586595    0.032371
   8 H     1.0000    0     1.008    1.950802   -3.949868   -1.590942
   9 O     8.0000    0    15.999    3.284042    1.673390   -0.099645
  10 H     1.0000    0     1.008    3.949868    1.950802    1.590942
  11 H     1.0000    0     1.008    1.586595    2.426578   -0.032371
  12 O     8.0000    0    15.999   -3.284042   -1.673390   -0.099645
  13 H     1.0000    0     1.008   -3.949868   -1.950802    1.590942
  14 H     1.0000    0     1.008   -1.586595   -2.426578   -0.032371
  15 O     8.0000    0    15.999    3.311046    1.401289   -5.473176
  16 H     1.0000    0     1.008    3.848333    1.739493   -3.749292
  17 H     1.0000    0     1.008    1.740835    2.347304   -5.639377
  18 O     8.0000    0    15.999    1.401289   -3.311046    5.473176
  19 H     1.0000    0     1.008    1.739493   -3.848333    3.749292
  20 H     1.0000    0     1.008    2.347304   -1.740835    5.639377
  21 O     8.0000    0    15.999   -1.401289    3.311046    5.473176
  22 H     1.0000    0     1.008   -1.739493    3.848333    3.749292
  23 H     1.0000    0     1.008   -2.347304    1.740835    5.639377

--------------------------------
INTERNAL COORDINATES (ANGSTROEM)
--------------------------------
 O      0   0   0     0.000000000000     0.00000000     0.00000000
 H      1   0   0     0.972136791249     0.00000000     0.00000000
 H      1   2   0     0.974050112161   103.86323780     0.00000000
 O      2   1   3     3.541164138161   107.84672602    95.40582707
 H      4   2   1     0.972645187106    72.17296994    29.09453504
 H      4   2   1     0.983350632989    33.04029707   190.88793319
 O      6   4   2     3.369216573181   115.93827062    90.90702654
 H      7   6   4     0.983350632989    64.01297461   355.38487433
 H      7   6   4     0.972645187106   111.38238039   260.12892927
 O      8   7   6     1.785153773264   170.81379649   358.44265882
 H     10   8   7     0.972645187106   101.65007623   109.44492584
 H     10   8   7     0.983350632989    99.09581498     3.33484705
 O      6   4   2     1.785153773264   170.81379649    88.00403199
 H     13   6   4     0.972645187106   101.65007623   109.44492584
 H     13   6   4     0.983350632989    99.09581498     3.33484705
 O     10   8   7     2.847229166523    89.51229470   269.85728871
 H     16  10   8     0.972136791249    19.08819947   230.61896091
 H     16  10   8     0.974050112161    93.43428486   106.52268102
 O      7   6   4     2.847229166523    88.95865904    89.80090032
 H     19   7   6     0.972136791249    19.08819947   164.57944949
 H     19   7   6     0.974050112161    93.43428486   288.67572938
 O      4   2   1     2.847229166523   126.48630953   195.00328214
 H     22   4   2     0.972136791249    19.08819947   226.21746260
 H     22   4   2     0.974050112161    93.43428486   350.31374249

---------------------------
INTERNAL COORDINATES (A.U.)
---------------------------
 O      0   0   0     0.000000000000     0.00000000     0.00000000
 H      1   0   0     1.837072300170     0.00000000     0.00000000
 H      1   2   0     1.840687952699   103.86323780     0.00000000
 O      2   1   3     6.691830416388   107.84672602    95.40582707
 H      4   2   1     1.838033029106    72.17296994    29.09453504
 H      4   2   1     1.858263389967    33.04029707   190.88793319
 O      6   4   2     6.366896609181   115.93827062    90.90702654
 H      7   6   4     1.858263389967    64.01297461   355.38487433
 H      7   6   4     1.838033029106   111.38238039   260.12892927
 O      8   7   6     3.373451738406   170.81379649   358.44265882
 H     10   8   7     1.838033029106   101.65007623   109.44492584
 H     10   8   7     1.858263389967    99.09581498     3.33484705
 O      6   4   2     3.373451738406   170.81379649    88.00403199
 H     13   6   4     1.838033029106   101.65007623   109.44492584
 H     13   6   4     1.858263389967    99.09581498     3.33484705
 O     10   8   7     5.380483365242    89.51229470   269.85728871
 H     16  10   8     1.837072300170    19.08819947   230.61896091
 H     16  10   8     1.840687952699    93.43428486   106.52268102
 O      7   6   4     5.380483365242    88.95865904    89.80090032
 H     19   7   6     1.837072300170    19.08819947   164.57944949
 H     19   7   6     1.840687952699    93.43428486   288.67572938
 O      4   2   1     5.380483365242   126.48630953   195.00328214
 H     22   4   2     1.837072300170    19.08819947   226.21746260
 H     22   4   2     1.840687952699    93.43428486   350.31374249

---------------------
BASIS SET INFORMATION
---------------------
There are 2 groups of distinct atoms

 Group   1 Type O   : 11s6p2d1f contracted to 5s3p2d1f pattern {62111/411/11/1}
 Group   2 Type H   : 5s1p contracted to 3s1p pattern {311/1}

Atom   0O    basis set group =>   1
Atom   1H    basis set group =>   2
Atom   2H    basis set group =>   2
Atom   3O    basis set group =>   1
Atom   4H    basis set group =>   2
Atom   5H    basis set group =>   2
Atom   6O    basis set group =>   1
Atom   7H    basis set group =>   2
Atom   8H    basis set group =>   2
Atom   9O    basis set group =>   1
Atom  10H    basis set group =>   2
Atom  11H    basis set group =>   2
Atom  12O    basis set group =>   1
Atom  13H    basis set group =>   2
Atom  14H    basis set group =>   2
Atom  15O    basis set group =>   1
Atom  16H    basis set group =>   2
Atom  17H    basis set group =>   2
Atom  18O    basis set group =>   1
Atom  19H    basis set group =>   2
Atom  20H    basis set group =>   2
Atom  21O    basis set group =>   1
Atom  22H    basis set group =>   2
Atom  23H    basis set group =>   2


           ************************************************************
           *        Program running with 6 parallel MPI-processes     *
           *              working on a common directory               *
           ************************************************************
------------------------------------------------------------------------------
                           ORCA GTO INTEGRAL CALCULATION
------------------------------------------------------------------------------

                         BASIS SET STATISTICS AND STARTUP INFO

 # of primitive gaussian shells          ...  256
 # of primitive gaussian functions       ...  496
 # of contracted shells                  ...  152
 # of contracted basis functions         ...  344
 Highest angular momentum                ...    3
 Maximum contraction depth               ...    6
 Integral package used                   ... LIBINT
 Integral threshhold            Thresh   ...  2.500e-11
 Primitive cut-off              TCut     ...  2.500e-12


------------------------------ INTEGRAL EVALUATION ----------------------------


 * One electron integrals 
 Pre-screening matrix                    ... done
 Shell pair data                         ... done (   0.002 sec)



           ************************************************************
           *        Program running with 6 parallel MPI-processes     *
           *              working on a common directory               *
           ************************************************************
-------------------------------------------------------------------------------
                                 ORCA SCF
-------------------------------------------------------------------------------

------------
SCF SETTINGS
------------
Hamiltonian:
 Ab initio Hamiltonian  Method          .... Hartree-Fock(GTOs)


General Settings:
 Integral files         IntName         .... 12h2o.su.etal.mol3,4,5,6,7,8,9,11-orca.engrad-mp2.def2tzvp.frozencore
 Hartree-Fock type      HFTyp           .... RHF
 Total Charge           Charge          ....    0
 Multiplicity           Mult            ....    1
 Number of Electrons    NEL             ....   80
 Basis Dimension        Dim             ....  344
 Nuclear Repulsion      ENuc            ....    467.6997895128 Eh

Convergence Acceleration:
 DIIS                   CNVDIIS         .... on
   Start iteration      DIISMaxIt       ....    12
   Startup error        DIISStart       ....  0.200000
   # of expansion vecs  DIISMaxEq       ....     5
   Bias factor          DIISBfac        ....   1.050
   Max. coefficient     DIISMaxC        ....  10.000
 Newton-Raphson         CNVNR           .... off
 SOSCF                  CNVSOSCF        .... on
   Start iteration      SOSCFMaxIt      ....   150
   Startup grad/error   SOSCFStart      ....  0.003300
 Level Shifting         CNVShift        .... on
   Level shift para.    LevelShift      ....    0.2500
   Turn off err/grad.   ShiftErr        ....    0.0010
 Zerner damping         CNVZerner       .... off
 Static damping         CNVDamp         .... on
   Fraction old density DampFac         ....    0.7000
   Max. Damping (<1)    DampMax         ....    0.9800
   Min. Damping (>=0)   DampMin         ....    0.0000
   Turn off err/grad.   DampErr         ....    0.1000
 Fernandez-Rico         CNVRico         .... off

SCF Procedure:
 Maximum # iterations   MaxIter         ....   125
 SCF integral mode      SCFMode         .... Direct
   Integral package                     .... LIBINT
 Reset frequency        DirectResetFreq ....    20
 Integral Threshold     Thresh          ....  2.500e-11 Eh
 Primitive CutOff       TCut            ....  2.500e-12 Eh

Convergence Tolerance:
 Convergence Check Mode ConvCheckMode   .... Total+1el-Energy
 Convergence forced     ConvForced      .... 1
 Energy Change          TolE            ....  1.000e-08 Eh
 1-El. energy change                    ....  1.000e-05 Eh
 Orbital Gradient       TolG            ....  1.000e-05
 Orbital Rotation angle TolX            ....  1.000e-05
 DIIS Error             TolErr          ....  5.000e-07


Diagonalization of the overlap matrix:
Smallest eigenvalue                        ... 2.656e-03
Time for diagonalization                   ...    0.014 sec
Threshold for overlap eigenvalues          ... 1.000e-08
Number of eigenvalues below threshold      ... 0
Time for construction of square roots      ...    0.008 sec
Total time needed                          ...    0.023 sec

-------------------
DFT GRID GENERATION
-------------------

General Integration Accuracy     IntAcc      ...  4.340
Radial Grid Type                 RadialGrid  ... Gauss-Chebyshev
Angular Grid (max. acc.)         AngularGrid ... Lebedev-110
Angular grid pruning method      GridPruning ... 3 (G Style)
Weight generation scheme         WeightScheme... Becke
Basis function cutoff            BFCut       ...    1.0000e-11
Integration weight cutoff        WCut        ...    1.0000e-14
Grids for H and He will be reduced by one unit

# of grid points (after initial pruning)     ...  26432 (   0.0 sec)
# of grid points (after weights+screening)   ...  24452 (   0.0 sec)
nearest neighbour list constructed           ...    0.0 sec
Grid point re-assignment to atoms done       ...    0.0 sec
Grid point division into batches done        ...    0.0 sec
Reduced shell lists constructed in    0.1 sec

Total number of grid points                  ...    24452
Total number of batches                      ...      392
Average number of points per batch           ...       62
Average number of grid points per atom       ...     1019
Average number of shells per batch           ...    74.70 (49.15%)
Average number of basis functions per batch  ...   149.33 (43.41%)
Average number of large shells per batch     ...    50.22 (67.23%)
Average number of large basis fcns per batch ...    96.52 (64.64%)
Maximum spatial batch extension              ...  14.06, 20.95, 14.45 au
Average spatial batch extension              ...   0.52,  0.61,  0.45 au

Time for grid setup =    0.088 sec

------------------------------
INITIAL GUESS: MODEL POTENTIAL
------------------------------
Loading Hartree-Fock densities                     ... done
Calculating cut-offs                               ... done
Setting up the integral package                    ... done
Initializing the effective Hamiltonian             ... done
Starting the Coulomb interaction                   ... done (   0.0 sec)
Reading the grid                                   ... done
Mapping shells                                     ... done
Starting the XC term evaluation                    ... done (   0.0 sec)
Transforming the Hamiltonian                       ... done (   0.0 sec)
Diagonalizing the Hamiltonian                      ... done (   0.0 sec)
Back transforming the eigenvectors                 ... done (   0.0 sec)
Now organizing SCF variables                       ... done
                      ------------------
                      INITIAL GUESS DONE (   0.3 sec)
                      ------------------
--------------
SCF ITERATIONS
--------------
ITER       Energy         Delta-E        Max-DP      RMS-DP      [F,P]     Damp
               ***  Starting incremental Fock matrix formation  ***
  0   -607.8074467910   0.000000000000 0.04345037  0.00083876  0.3414561 0.7000
  1   -608.0822558500  -0.274809058999 0.02869394  0.00058082  0.2162755 0.7000
                               ***Turning on DIIS***
  2   -608.2276599259  -0.145404075924 0.01619618  0.00032368  0.1636633 0.7000
  3   -609.4930048548  -1.265344928972 0.00712083  0.00014697  0.1218213 0.7000
  4   -609.2314321009   0.261572753946 0.01546087  0.00033887  0.0861495 0.0000
  5   -608.5578148278   0.673617273134 0.00203198  0.00005512  0.0049803 0.0000
                      *** Initiating the SOSCF procedure ***
                           *** Shutting down DIIS ***
                      *** Re-Reading the Fockian *** 
                      *** Removing any level shift *** 
ITER      Energy       Delta-E        Grad      Rot      Max-DP    RMS-DP
  6   -608.51687280   0.0409420294  0.001109  0.001109  0.001303  0.000034
               *** Restarting incremental Fock matrix formation ***
  7   -608.50822435   0.0086484498  0.000368  0.000568  0.000623  0.000015
  8   -608.50823600  -0.0000116541  0.000188  0.000452  0.000494  0.000013
  9   -608.50823888  -0.0000028790  0.000072  0.000065  0.000085  0.000002
 10   -608.50823911  -0.0000002313  0.000009  0.000008  0.000014  0.000000
                  ***Gradient check signals convergence***
              ***Rediagonalizing the Fockian in SOSCF/NRSCF***

               *****************************************************
               *                     SUCCESS                       *
               *           SCF CONVERGED AFTER  11 CYCLES          *
               *****************************************************


----------------
TOTAL SCF ENERGY
----------------

Total Energy       :         -608.50823912 Eh          -16558.35100 eV

Components:
Nuclear Repulsion  :          467.69978951 Eh           12726.75829 eV
Electronic Energy  :        -1076.20802863 Eh          -29285.10929 eV
One Electron Energy:        -1771.24290777 Eh          -48197.96986 eV
Two Electron Energy:          695.03487914 Eh           18912.86057 eV

Virial components:
Potential Energy   :        -1216.23820040 Eh          -33095.52398 eV
Kinetic Energy     :          607.72996128 Eh           16537.17298 eV
Virial Ratio       :            2.00128063


---------------
SCF CONVERGENCE
---------------

  Last Energy change         ...   -5.7573e-09  Tolerance :   1.0000e-08
  Last MAX-Density change    ...    5.5545e-06  Tolerance :   1.0000e-07
  Last RMS-Density change    ...    1.4226e-07  Tolerance :   5.0000e-09
  Last Orbital Gradient      ...    2.3710e-06  Tolerance :   1.0000e-05
  Last Orbital Rotation      ...    3.7437e-06  Tolerance :   1.0000e-05

             **** THE GBW FILE WAS UPDATED (12h2o.su.etal.mol3,4,5,6,7,8,9,11-orca.engrad-mp2.def2tzvp.frozencore.gbw) ****
             **** DENSITY FILE WAS UPDATED (12h2o.su.etal.mol3,4,5,6,7,8,9,11-orca.engrad-mp2.def2tzvp.frozencore.scfp) ****
             **** ENERGY FILE WAS UPDATED (12h2o.su.etal.mol3,4,5,6,7,8,9,11-orca.engrad-mp2.def2tzvp.frozencore.en.tmp) ****
             **** THE GBW FILE WAS UPDATED (12h2o.su.etal.mol3,4,5,6,7,8,9,11-orca.engrad-mp2.def2tzvp.frozencore.gbw) ****
             **** DENSITY FILE WAS UPDATED (12h2o.su.etal.mol3,4,5,6,7,8,9,11-orca.engrad-mp2.def2tzvp.frozencore.scfp) ****
----------------
ORBITAL ENERGIES
----------------

  NO   OCC          E(Eh)            E(eV) 
   0   2.0000     -20.608232      -560.7785 
   1   2.0000     -20.608222      -560.7782 
   2   2.0000     -20.608222      -560.7782 
   3   2.0000     -20.608212      -560.7780 
   4   2.0000     -20.557235      -559.3908 
   5   2.0000     -20.557235      -559.3908 
   6   2.0000     -20.557235      -559.3908 
   7   2.0000     -20.557235      -559.3908 
   8   2.0000      -1.412413       -38.4337 
   9   2.0000      -1.396072       -37.9891 
  10   2.0000      -1.396072       -37.9891 
  11   2.0000      -1.380053       -37.5531 
  12   2.0000      -1.339279       -36.4436 
  13   2.0000      -1.339194       -36.4413 
  14   2.0000      -1.338478       -36.4218 
  15   2.0000      -1.338478       -36.4218 
  16   2.0000      -0.765727       -20.8365 
  17   2.0000      -0.763650       -20.7800 
  18   2.0000      -0.760851       -20.7038 
  19   2.0000      -0.760851       -20.7038 
  20   2.0000      -0.715487       -19.4694 
  21   2.0000      -0.708977       -19.2922 
  22   2.0000      -0.708413       -19.2769 
  23   2.0000      -0.708413       -19.2769 
  24   2.0000      -0.663558       -18.0563 
  25   2.0000      -0.641199       -17.4479 
  26   2.0000      -0.641199       -17.4479 
  27   2.0000      -0.622374       -16.9357 
  28   2.0000      -0.578407       -15.7392 
  29   2.0000      -0.577767       -15.7218 
  30   2.0000      -0.577767       -15.7218 
  31   2.0000      -0.571104       -15.5405 
  32   2.0000      -0.556818       -15.1518 
  33   2.0000      -0.551708       -15.0127 
  34   2.0000      -0.551708       -15.0127 
  35   2.0000      -0.545204       -14.8357 
  36   2.0000      -0.506737       -13.7890 
  37   2.0000      -0.506359       -13.7787 
  38   2.0000      -0.500271       -13.6131 
  39   2.0000      -0.500271       -13.6131 
  40   0.0000       0.071419         1.9434 
  41   0.0000       0.113536         3.0895 
  42   0.0000       0.117816         3.2059 
  43   0.0000       0.117816         3.2059 
  44   0.0000       0.186641         5.0788 
  45   0.0000       0.193391         5.2624 
  46   0.0000       0.193391         5.2624 
  47   0.0000       0.193417         5.2631 
  48   0.0000       0.249251         6.7825 
  49   0.0000       0.264698         7.2028 
  50   0.0000       0.264698         7.2028 
  51   0.0000       0.266829         7.2608 
  52   0.0000       0.296046         8.0558 
  53   0.0000       0.299063         8.1379 
  54   0.0000       0.323534         8.8038 
  55   0.0000       0.323534         8.8038 
  56   0.0000       0.401264        10.9190 
  57   0.0000       0.440836        11.9958 
  58   0.0000       0.461906        12.5691 
  59   0.0000       0.461906        12.5691 
  60   0.0000       0.484649        13.1880 
  61   0.0000       0.501037        13.6339 
  62   0.0000       0.514074        13.9887 
  63   0.0000       0.514074        13.9887 
  64   0.0000       0.519006        14.1229 
  65   0.0000       0.539200        14.6724 
  66   0.0000       0.539200        14.6724 
  67   0.0000       0.567283        15.4366 
  68   0.0000       0.573701        15.6112 
  69   0.0000       0.582142        15.8409 
  70   0.0000       0.587540        15.9878 
  71   0.0000       0.587540        15.9878 
  72   0.0000       0.607312        16.5258 
  73   0.0000       0.608265        16.5517 
  74   0.0000       0.614514        16.7218 
  75   0.0000       0.614514        16.7218 
  76   0.0000       0.625959        17.0332 
  77   0.0000       0.671442        18.2709 
  78   0.0000       0.685312        18.6483 
  79   0.0000       0.685312        18.6483 
  80   0.0000       0.697936        18.9918 
  81   0.0000       0.705761        19.2047 
  82   0.0000       0.738537        20.0966 
  83   0.0000       0.738537        20.0966 
  84   0.0000       0.755559        20.5598 
  85   0.0000       0.777093        21.1458 
  86   0.0000       0.777093        21.1458 
  87   0.0000       0.799828        21.7644 
  88   0.0000       0.807352        21.9692 
  89   0.0000       0.807352        21.9692 
  90   0.0000       0.834027        22.6950 
  91   0.0000       0.838600        22.8195 
  92   0.0000       0.847516        23.0621 
  93   0.0000       0.851688        23.1756 
  94   0.0000       0.851688        23.1756 
  95   0.0000       0.885323        24.0909 
  96   0.0000       0.894466        24.3397 
  97   0.0000       0.926050        25.1991 
  98   0.0000       0.926050        25.1991 
  99   0.0000       1.031178        28.0598 
 100   0.0000       1.050002        28.5720 
 101   0.0000       1.050002        28.5720 
 102   0.0000       1.068947        29.0875 
 103   0.0000       1.155211        31.4349 
 104   0.0000       1.301887        35.4262 
 105   0.0000       1.348130        36.6845 
 106   0.0000       1.375849        37.4388 
 107   0.0000       1.375849        37.4388 
 108   0.0000       1.388818        37.7916 
 109   0.0000       1.388818        37.7916 
 110   0.0000       1.398167        38.0461 
 111   0.0000       1.416761        38.5520 
 112   0.0000       1.420545        38.6550 
 113   0.0000       1.446718        39.3672 
 114   0.0000       1.446718        39.3672 
 115   0.0000       1.478722        40.2381 
 116   0.0000       1.478722        40.2381 
 117   0.0000       1.483642        40.3720 
 118   0.0000       1.488587        40.5065 
 119   0.0000       1.525278        41.5049 
 120   0.0000       1.546460        42.0813 
 121   0.0000       1.559055        42.4241 
 122   0.0000       1.559055        42.4241 
 123   0.0000       1.566704        42.6322 
 124   0.0000       1.584414        43.1141 
 125   0.0000       1.602502        43.6063 
 126   0.0000       1.602502        43.6063 
 127   0.0000       1.615465        43.9590 
 128   0.0000       1.786972        48.6260 
 129   0.0000       1.821990        49.5789 
 130   0.0000       1.821990        49.5789 
 131   0.0000       1.829622        49.7865 
 132   0.0000       1.845828        50.2275 
 133   0.0000       1.845828        50.2275 
 134   0.0000       1.848213        50.2924 
 135   0.0000       1.860363        50.6230 
 136   0.0000       1.889085        51.4046 
 137   0.0000       1.953174        53.1486 
 138   0.0000       1.965210        53.4761 
 139   0.0000       1.965210        53.4761 
 140   0.0000       1.985571        54.0301 
 141   0.0000       1.994837        54.2823 
 142   0.0000       1.997095        54.3437 
 143   0.0000       1.997095        54.3437 
 144   0.0000       2.020267        54.9743 
 145   0.0000       2.071322        56.3635 
 146   0.0000       2.085375        56.7459 
 147   0.0000       2.085375        56.7459 
 148   0.0000       2.115162        57.5565 
 149   0.0000       2.143377        58.3242 
 150   0.0000       2.143377        58.3242 
 151   0.0000       2.209994        60.1370 
 152   0.0000       2.231745        60.7289 
 153   0.0000       2.265981        61.6605 
 154   0.0000       2.271337        61.8062 
 155   0.0000       2.271337        61.8062 
 156   0.0000       2.315252        63.0012 
 157   0.0000       2.323864        63.2356 
 158   0.0000       2.324859        63.2626 
 159   0.0000       2.327137        63.3246 
 160   0.0000       2.327137        63.3246 
 161   0.0000       2.354728        64.0754 
 162   0.0000       2.354728        64.0754 
 163   0.0000       2.362908        64.2980 
 164   0.0000       2.377717        64.7010 
 165   0.0000       2.377823        64.7039 
 166   0.0000       2.398249        65.2597 
 167   0.0000       2.398249        65.2597 
 168   0.0000       2.436669        66.3051 
 169   0.0000       2.436669        66.3051 
 170   0.0000       2.444929        66.5299 
 171   0.0000       2.461401        66.9781 
 172   0.0000       2.467407        67.1416 
 173   0.0000       2.529069        68.8195 
 174   0.0000       2.529069        68.8195 
 175   0.0000       2.594425        70.5979 
 176   0.0000       2.594425        70.5979 
 177   0.0000       2.595567        70.6290 
 178   0.0000       2.607349        70.9496 
 179   0.0000       2.619509        71.2805 
 180   0.0000       2.619509        71.2805 
 181   0.0000       2.619705        71.2858 
 182   0.0000       2.629727        71.5585 
 183   0.0000       2.649018        72.0835 
 184   0.0000       2.682231        72.9872 
 185   0.0000       2.703131        73.5559 
 186   0.0000       2.703131        73.5559 
 187   0.0000       2.703620        73.5692 
 188   0.0000       2.730573        74.3027 
 189   0.0000       2.736906        74.4750 
 190   0.0000       2.758513        75.0630 
 191   0.0000       2.758513        75.0630 
 192   0.0000       2.899989        78.9127 
 193   0.0000       2.916244        79.3550 
 194   0.0000       2.917550        79.3906 
 195   0.0000       2.917550        79.3906 
 196   0.0000       2.970025        80.8185 
 197   0.0000       2.970025        80.8185 
 198   0.0000       2.972537        80.8868 
 199   0.0000       2.990814        81.3842 
 200   0.0000       2.990814        81.3842 
 201   0.0000       3.001352        81.6709 
 202   0.0000       3.008028        81.8526 
 203   0.0000       3.018805        82.1459 
 204   0.0000       3.022508        82.2466 
 205   0.0000       3.079358        83.7936 
 206   0.0000       3.079358        83.7936 
 207   0.0000       3.085347        83.9565 
 208   0.0000       3.100077        84.3574 
 209   0.0000       3.173228        86.3479 
 210   0.0000       3.173228        86.3479 
 211   0.0000       3.205784        87.2338 
 212   0.0000       3.223911        87.7271 
 213   0.0000       3.223911        87.7271 
 214   0.0000       3.240023        88.1655 
 215   0.0000       3.246107        88.3311 
 216   0.0000       3.248282        88.3902 
 217   0.0000       3.248282        88.3902 
 218   0.0000       3.263230        88.7970 
 219   0.0000       3.331466        90.6538 
 220   0.0000       3.354467        91.2797 
 221   0.0000       3.442579        93.6773 
 222   0.0000       3.442579        93.6773 
 223   0.0000       3.510206        95.5176 
 224   0.0000       4.022072       109.4461 
 225   0.0000       4.047613       110.1412 
 226   0.0000       4.047613       110.1412 
 227   0.0000       4.055705       110.3613 
 228   0.0000       4.078061       110.9697 
 229   0.0000       4.084041       111.1324 
 230   0.0000       4.084041       111.1324 
 231   0.0000       4.118658       112.0744 
 232   0.0000       4.282206       116.5247 
 233   0.0000       4.304489       117.1311 
 234   0.0000       4.314677       117.4083 
 235   0.0000       4.314677       117.4083 
 236   0.0000       4.321265       117.5876 
 237   0.0000       4.323257       117.6418 
 238   0.0000       4.329934       117.8235 
 239   0.0000       4.329934       117.8235 
 240   0.0000       5.493256       149.4791 
 241   0.0000       5.494007       149.4995 
 242   0.0000       5.494007       149.4995 
 243   0.0000       5.496004       149.5539 
 244   0.0000       5.550707       151.0424 
 245   0.0000       5.550872       151.0469 
 246   0.0000       5.550877       151.0471 
 247   0.0000       5.550877       151.0471 
 248   0.0000       5.618805       152.8955 
 249   0.0000       5.624770       153.0578 
 250   0.0000       5.624830       153.0594 
 251   0.0000       5.624830       153.0594 
 252   0.0000       5.655930       153.9057 
 253   0.0000       5.656130       153.9111 
 254   0.0000       5.656559       153.9228 
 255   0.0000       5.656559       153.9228 
 256   0.0000       5.763647       156.8368 
 257   0.0000       5.775910       157.1705 
 258   0.0000       5.775910       157.1705 
 259   0.0000       5.788891       157.5237 
 260   0.0000       5.794107       157.6657 
 261   0.0000       5.806422       158.0008 
 262   0.0000       5.806422       158.0008 
 263   0.0000       5.827218       158.5667 
 264   0.0000       5.829022       158.6158 
 265   0.0000       5.829073       158.6171 
 266   0.0000       5.829073       158.6171 
 267   0.0000       5.830659       158.6603 
 268   0.0000       5.842767       158.9898 
 269   0.0000       5.844570       159.0388 
 270   0.0000       5.847868       159.1286 
 271   0.0000       5.847868       159.1286 
 272   0.0000       5.873188       159.8176 
 273   0.0000       5.875684       159.8855 
 274   0.0000       5.875684       159.8855 
 275   0.0000       5.881704       160.0493 
 276   0.0000       5.905444       160.6953 
 277   0.0000       5.905472       160.6961 
 278   0.0000       5.905472       160.6961 
 279   0.0000       5.908214       160.7707 
 280   0.0000       6.430553       174.9842 
 281   0.0000       6.431472       175.0092 
 282   0.0000       6.431472       175.0092 
 283   0.0000       6.434116       175.0812 
 284   0.0000       6.489878       176.5985 
 285   0.0000       6.493726       176.7033 
 286   0.0000       6.497698       176.8113 
 287   0.0000       6.497698       176.8113 
 288   0.0000       6.601528       179.6367 
 289   0.0000       6.673664       181.5996 
 290   0.0000       6.673664       181.5996 
 291   0.0000       6.684217       181.8868 
 292   0.0000       6.688803       182.0116 
 293   0.0000       6.723343       182.9515 
 294   0.0000       6.723343       182.9515 
 295   0.0000       6.737208       183.3287 
 296   0.0000       6.813194       185.3964 
 297   0.0000       6.831843       185.9039 
 298   0.0000       6.831843       185.9039 
 299   0.0000       6.833933       185.9608 
 300   0.0000       6.837790       186.0657 
 301   0.0000       6.846478       186.3021 
 302   0.0000       6.846478       186.3021 
 303   0.0000       6.851280       186.4328 
 304   0.0000       6.866119       186.8366 
 305   0.0000       6.866119       186.8366 
 306   0.0000       6.867992       186.8876 
 307   0.0000       6.891773       187.5347 
 308   0.0000       6.897221       187.6829 
 309   0.0000       6.898367       187.7141 
 310   0.0000       6.898367       187.7141 
 311   0.0000       6.926515       188.4801 
 312   0.0000       6.957647       189.3272 
 313   0.0000       6.957647       189.3272 
 314   0.0000       6.957671       189.3279 
 315   0.0000       6.962184       189.4507 
 316   0.0000       6.995936       190.3691 
 317   0.0000       7.023022       191.1061 
 318   0.0000       7.023022       191.1061 
 319   0.0000       7.080313       192.6651 
 320   0.0000       7.309580       198.9038 
 321   0.0000       7.368583       200.5094 
 322   0.0000       7.368583       200.5094 
 323   0.0000       7.378841       200.7885 
 324   0.0000       7.381480       200.8603 
 325   0.0000       7.418026       201.8548 
 326   0.0000       7.418026       201.8548 
 327   0.0000       7.490301       203.8214 
 328   0.0000       7.525472       204.7785 
 329   0.0000       7.543591       205.2715 
 330   0.0000       7.543591       205.2715 
 331   0.0000       7.550858       205.4693 
 332   0.0000       7.557510       205.6503 
 333   0.0000       7.562252       205.7793 
 334   0.0000       7.573151       206.0759 
 335   0.0000       7.573151       206.0759 
 336   0.0000      44.903356      1221.8824 
 337   0.0000      44.903356      1221.8824 
 338   0.0000      44.938673      1222.8435 
 339   0.0000      44.943632      1222.9784 
 340   0.0000      45.039780      1225.5947 
 341   0.0000      45.039780      1225.5947 
 342   0.0000      45.069757      1226.4104 
 343   0.0000      45.095855      1227.1206 

                    ********************************
                    * MULLIKEN POPULATION ANALYSIS *
                    ********************************

-----------------------
MULLIKEN ATOMIC CHARGES
-----------------------
   0 O :   -0.720583
   1 H :    0.386819
   2 H :    0.335782
   3 O :   -0.780837
   4 H :    0.377103
   5 H :    0.401715
   6 O :   -0.780837
   7 H :    0.401715
   8 H :    0.377103
   9 O :   -0.780837
  10 H :    0.377103
  11 H :    0.401715
  12 O :   -0.780837
  13 H :    0.377103
  14 H :    0.401715
  15 O :   -0.720583
  16 H :    0.386819
  17 H :    0.335782
  18 O :   -0.720583
  19 H :    0.386819
  20 H :    0.335782
  21 O :   -0.720583
  22 H :    0.386819
  23 H :    0.335782
Sum of atomic charges:    0.0000000

--------------------------------
MULLIKEN REDUCED ORBITAL CHARGES
--------------------------------
  0 O s       :     3.812961  s :     3.812961
      pz      :     1.549996  p :     4.880374
      px      :     1.519193
      py      :     1.811186
      dz2     :     0.011852  d :     0.025761
      dxz     :     0.001259
      dyz     :     0.002993
      dx2y2   :     0.002146
      dxy     :     0.007511
      f0      :     0.000249  f :     0.001486
      f+1     :     0.000374
      f-1     :     0.000165
      f+2     :     0.000055
      f-2     :     0.000055
      f+3     :     0.000069
      f-3     :     0.000519
  1 H s       :     0.564397  s :     0.564397
      pz      :     0.024116  p :     0.048783
      px      :     0.011625
      py      :     0.013042
  2 H s       :     0.619301  s :     0.619301
      pz      :     0.011007  p :     0.044917
      px      :     0.018074
      py      :     0.015836
  3 O s       :     3.802906  s :     3.802906
      pz      :     1.572990  p :     4.953431
      px      :     1.846358
      py      :     1.534082
      dz2     :     0.010867  d :     0.023149
      dxz     :     0.001950
      dyz     :     0.002617
      dx2y2   :     0.003212
      dxy     :     0.004503
      f0      :     0.000186  f :     0.001351
      f+1     :     0.000110
      f-1     :     0.000448
      f+2     :     0.000067
      f-2     :     0.000037
      f+3     :     0.000410
      f-3     :     0.000094
  4 H s       :     0.579154  s :     0.579154
      pz      :     0.019036  p :     0.043744
      px      :     0.013139
      py      :     0.011569
  5 H s       :     0.545836  s :     0.545836
      pz      :     0.008539  p :     0.052449
      px      :     0.014359
      py      :     0.029551
  6 O s       :     3.802906  s :     3.802906
      pz      :     1.572990  p :     4.953431
      px      :     1.846358
      py      :     1.534082
      dz2     :     0.010867  d :     0.023149
      dxz     :     0.001950
      dyz     :     0.002617
      dx2y2   :     0.003212
      dxy     :     0.004503
      f0      :     0.000186  f :     0.001351
      f+1     :     0.000110
      f-1     :     0.000448
      f+2     :     0.000067
      f-2     :     0.000037
      f+3     :     0.000410
      f-3     :     0.000094
  7 H s       :     0.545836  s :     0.545836
      pz      :     0.008539  p :     0.052449
      px      :     0.014359
      py      :     0.029551
  8 H s       :     0.579154  s :     0.579154
      pz      :     0.019036  p :     0.043744
      px      :     0.013139
      py      :     0.011569
  9 O s       :     3.802906  s :     3.802906
      pz      :     1.572990  p :     4.953431
      px      :     1.534082
      py      :     1.846358
      dz2     :     0.010867  d :     0.023149
      dxz     :     0.002617
      dyz     :     0.001950
      dx2y2   :     0.003212
      dxy     :     0.004503
      f0      :     0.000186  f :     0.001351
      f+1     :     0.000448
      f-1     :     0.000110
      f+2     :     0.000067
      f-2     :     0.000037
      f+3     :     0.000094
      f-3     :     0.000410
 10 H s       :     0.579154  s :     0.579154
      pz      :     0.019036  p :     0.043744
      px      :     0.011569
      py      :     0.013139
 11 H s       :     0.545836  s :     0.545836
      pz      :     0.008539  p :     0.052449
      px      :     0.029551
      py      :     0.014359
 12 O s       :     3.802906  s :     3.802906
      pz      :     1.572990  p :     4.953431
      px      :     1.534082
      py      :     1.846358
      dz2     :     0.010867  d :     0.023149
      dxz     :     0.002617
      dyz     :     0.001950
      dx2y2   :     0.003212
      dxy     :     0.004503
      f0      :     0.000186  f :     0.001351
      f+1     :     0.000448
      f-1     :     0.000110
      f+2     :     0.000067
      f-2     :     0.000037
      f+3     :     0.000094
      f-3     :     0.000410
 13 H s       :     0.579154  s :     0.579154
      pz      :     0.019036  p :     0.043744
      px      :     0.011569
      py      :     0.013139
 14 H s       :     0.545836  s :     0.545836
      pz      :     0.008539  p :     0.052449
      px      :     0.029551
      py      :     0.014359
 15 O s       :     3.812961  s :     3.812961
      pz      :     1.549996  p :     4.880374
      px      :     1.519193
      py      :     1.811186
      dz2     :     0.011852  d :     0.025761
      dxz     :     0.001259
      dyz     :     0.002993
      dx2y2   :     0.002146
      dxy     :     0.007511
      f0      :     0.000249  f :     0.001486
      f+1     :     0.000374
      f-1     :     0.000165
      f+2     :     0.000055
      f-2     :     0.000055
      f+3     :     0.000069
      f-3     :     0.000519
 16 H s       :     0.564397  s :     0.564397
      pz      :     0.024116  p :     0.048783
      px      :     0.011625
      py      :     0.013042
 17 H s       :     0.619301  s :     0.619301
      pz      :     0.011007  p :     0.044917
      px      :     0.018074
      py      :     0.015836
 18 O s       :     3.812961  s :     3.812961
      pz      :     1.549996  p :     4.880374
      px      :     1.811186
      py      :     1.519193
      dz2     :     0.011852  d :     0.025761
      dxz     :     0.002993
      dyz     :     0.001259
      dx2y2   :     0.002146
      dxy     :     0.007511
      f0      :     0.000249  f :     0.001486
      f+1     :     0.000165
      f-1     :     0.000374
      f+2     :     0.000055
      f-2     :     0.000055
      f+3     :     0.000519
      f-3     :     0.000069
 19 H s       :     0.564397  s :     0.564397
      pz      :     0.024116  p :     0.048783
      px      :     0.013042
      py      :     0.011625
 20 H s       :     0.619301  s :     0.619301
      pz      :     0.011007  p :     0.044917
      px      :     0.015836
      py      :     0.018074
 21 O s       :     3.812961  s :     3.812961
      pz      :     1.549996  p :     4.880374
      px      :     1.811186
      py      :     1.519193
      dz2     :     0.011852  d :     0.025761
      dxz     :     0.002993
      dyz     :     0.001259
      dx2y2   :     0.002146
      dxy     :     0.007511
      f0      :     0.000249  f :     0.001486
      f+1     :     0.000165
      f-1     :     0.000374
      f+2     :     0.000055
      f-2     :     0.000055
      f+3     :     0.000519
      f-3     :     0.000069
 22 H s       :     0.564397  s :     0.564397
      pz      :     0.024116  p :     0.048783
      px      :     0.013042
      py      :     0.011625
 23 H s       :     0.619301  s :     0.619301
      pz      :     0.011007  p :     0.044917
      px      :     0.015836
      py      :     0.018074


                     *******************************
                     * LOEWDIN POPULATION ANALYSIS *
                     *******************************

----------------------
LOEWDIN ATOMIC CHARGES
----------------------
   0 O :   -0.339106
   1 H :    0.155586
   2 H :    0.158851
   3 O :   -0.305226
   4 H :    0.173600
   5 H :    0.156295
   6 O :   -0.305226
   7 H :    0.156295
   8 H :    0.173600
   9 O :   -0.305226
  10 H :    0.173600
  11 H :    0.156295
  12 O :   -0.305226
  13 H :    0.173600
  14 H :    0.156295
  15 O :   -0.339106
  16 H :    0.155586
  17 H :    0.158851
  18 O :   -0.339106
  19 H :    0.155586
  20 H :    0.158851
  21 O :   -0.339106
  22 H :    0.155586
  23 H :    0.158851

-------------------------------
LOEWDIN REDUCED ORBITAL CHARGES
-------------------------------
  0 O s       :     3.467407  s :     3.467407
      pz      :     1.532902  p :     4.837203
      px      :     1.519876
      py      :     1.784424
      dz2     :     0.015655  d :     0.032361
      dxz     :     0.001885
      dyz     :     0.002326
      dx2y2   :     0.002425
      dxy     :     0.010071
      f0      :     0.000444  f :     0.002135
      f+1     :     0.000563
      f-1     :     0.000317
      f+2     :     0.000024
      f-2     :     0.000045
      f+3     :     0.000003
      f-3     :     0.000739
  1 H s       :     0.674301  s :     0.674301
      pz      :     0.092164  p :     0.170113
      px      :     0.035953
      py      :     0.041996
  2 H s       :     0.683730  s :     0.683730
      pz      :     0.031332  p :     0.157419
      px      :     0.071312
      py      :     0.054776
  3 O s       :     3.454489  s :     3.454489
      pz      :     1.537767  p :     4.818935
      px      :     1.787492
      py      :     1.493676
      dz2     :     0.014727  d :     0.029844
      dxz     :     0.001225
      dyz     :     0.003904
      dx2y2   :     0.004601
      dxy     :     0.005386
      f0      :     0.000374  f :     0.001959
      f+1     :     0.000190
      f-1     :     0.000726
      f+2     :     0.000038
      f-2     :     0.000046
      f+3     :     0.000521
      f-3     :     0.000064
  4 H s       :     0.666247  s :     0.666247
      pz      :     0.080249  p :     0.160153
      px      :     0.042781
      py      :     0.037123
  5 H s       :     0.655444  s :     0.655444
      pz      :     0.029132  p :     0.188260
      px      :     0.052595
      py      :     0.106534
  6 O s       :     3.454489  s :     3.454489
      pz      :     1.537767  p :     4.818935
      px      :     1.787492
      py      :     1.493676
      dz2     :     0.014727  d :     0.029844
      dxz     :     0.001225
      dyz     :     0.003904
      dx2y2   :     0.004601
      dxy     :     0.005386
      f0      :     0.000374  f :     0.001959
      f+1     :     0.000190
      f-1     :     0.000726
      f+2     :     0.000038
      f-2     :     0.000046
      f+3     :     0.000521
      f-3     :     0.000064
  7 H s       :     0.655444  s :     0.655444
      pz      :     0.029132  p :     0.188260
      px      :     0.052595
      py      :     0.106534
  8 H s       :     0.666247  s :     0.666247
      pz      :     0.080249  p :     0.160153
      px      :     0.042781
      py      :     0.037123
  9 O s       :     3.454489  s :     3.454489
      pz      :     1.537767  p :     4.818935
      px      :     1.493676
      py      :     1.787492
      dz2     :     0.014727  d :     0.029844
      dxz     :     0.003904
      dyz     :     0.001225
      dx2y2   :     0.004601
      dxy     :     0.005386
      f0      :     0.000374  f :     0.001959
      f+1     :     0.000726
      f-1     :     0.000190
      f+2     :     0.000038
      f-2     :     0.000046
      f+3     :     0.000064
      f-3     :     0.000521
 10 H s       :     0.666247  s :     0.666247
      pz      :     0.080249  p :     0.160153
      px      :     0.037123
      py      :     0.042781
 11 H s       :     0.655444  s :     0.655444
      pz      :     0.029132  p :     0.188260
      px      :     0.106534
      py      :     0.052595
 12 O s       :     3.454489  s :     3.454489
      pz      :     1.537767  p :     4.818935
      px      :     1.493676
      py      :     1.787492
      dz2     :     0.014727  d :     0.029844
      dxz     :     0.003904
      dyz     :     0.001225
      dx2y2   :     0.004601
      dxy     :     0.005386
      f0      :     0.000374  f :     0.001959
      f+1     :     0.000726
      f-1     :     0.000190
      f+2     :     0.000038
      f-2     :     0.000046
      f+3     :     0.000064
      f-3     :     0.000521
 13 H s       :     0.666247  s :     0.666247
      pz      :     0.080249  p :     0.160153
      px      :     0.037123
      py      :     0.042781
 14 H s       :     0.655444  s :     0.655444
      pz      :     0.029132  p :     0.188260
      px      :     0.106534
      py      :     0.052595
 15 O s       :     3.467407  s :     3.467407
      pz      :     1.532902  p :     4.837203
      px      :     1.519876
      py      :     1.784424
      dz2     :     0.015655  d :     0.032361
      dxz     :     0.001885
      dyz     :     0.002326
      dx2y2   :     0.002425
      dxy     :     0.010071
      f0      :     0.000444  f :     0.002135
      f+1     :     0.000563
      f-1     :     0.000317
      f+2     :     0.000024
      f-2     :     0.000045
      f+3     :     0.000003
      f-3     :     0.000739
 16 H s       :     0.674301  s :     0.674301
      pz      :     0.092164  p :     0.170113
      px      :     0.035953
      py      :     0.041996
 17 H s       :     0.683730  s :     0.683730
      pz      :     0.031332  p :     0.157419
      px      :     0.071312
      py      :     0.054776
 18 O s       :     3.467407  s :     3.467407
      pz      :     1.532902  p :     4.837203
      px      :     1.784424
      py      :     1.519876
      dz2     :     0.015655  d :     0.032361
      dxz     :     0.002326
      dyz     :     0.001885
      dx2y2   :     0.002425
      dxy     :     0.010071
      f0      :     0.000444  f :     0.002135
      f+1     :     0.000317
      f-1     :     0.000563
      f+2     :     0.000024
      f-2     :     0.000045
      f+3     :     0.000739
      f-3     :     0.000003
 19 H s       :     0.674301  s :     0.674301
      pz      :     0.092164  p :     0.170113
      px      :     0.041996
      py      :     0.035953
 20 H s       :     0.683730  s :     0.683730
      pz      :     0.031332  p :     0.157419
      px      :     0.054776
      py      :     0.071312
 21 O s       :     3.467407  s :     3.467407
      pz      :     1.532902  p :     4.837203
      px      :     1.784424
      py      :     1.519876
      dz2     :     0.015655  d :     0.032361
      dxz     :     0.002326
      dyz     :     0.001885
      dx2y2   :     0.002425
      dxy     :     0.010071
      f0      :     0.000444  f :     0.002135
      f+1     :     0.000317
      f-1     :     0.000563
      f+2     :     0.000024
      f-2     :     0.000045
      f+3     :     0.000739
      f-3     :     0.000003
 22 H s       :     0.674301  s :     0.674301
      pz      :     0.092164  p :     0.170113
      px      :     0.041996
      py      :     0.035953
 23 H s       :     0.683730  s :     0.683730
      pz      :     0.031332  p :     0.157419
      px      :     0.054776
      py      :     0.071312


                      *****************************
                      * MAYER POPULATION ANALYSIS *
                      *****************************

  NA   - Mulliken gross atomic population
  ZA   - Total nuclear charge
  QA   - Mulliken gross atomic charge
  VA   - Mayer's total valence
  BVA  - Mayer's bonded valence
  FA   - Mayer's free valence

  ATOM       NA         ZA         QA         VA         BVA        FA
  0 O      8.7206     8.0000    -0.7206     1.7653     1.7653     0.0000
  1 H      0.6132     1.0000     0.3868     0.8723     0.8723    -0.0000
  2 H      0.6642     1.0000     0.3358     0.9060     0.9060     0.0000
  3 O      8.7808     8.0000    -0.7808     1.6982     1.6982    -0.0000
  4 H      0.6229     1.0000     0.3771     0.8764     0.8764    -0.0000
  5 H      0.5983     1.0000     0.4017     0.8817     0.8817    -0.0000
  6 O      8.7808     8.0000    -0.7808     1.6982     1.6982    -0.0000
  7 H      0.5983     1.0000     0.4017     0.8817     0.8817    -0.0000
  8 H      0.6229     1.0000     0.3771     0.8764     0.8764    -0.0000
  9 O      8.7808     8.0000    -0.7808     1.6982     1.6982     0.0000
 10 H      0.6229     1.0000     0.3771     0.8764     0.8764    -0.0000
 11 H      0.5983     1.0000     0.4017     0.8817     0.8817    -0.0000
 12 O      8.7808     8.0000    -0.7808     1.6982     1.6982    -0.0000
 13 H      0.6229     1.0000     0.3771     0.8764     0.8764    -0.0000
 14 H      0.5983     1.0000     0.4017     0.8817     0.8817    -0.0000
 15 O      8.7206     8.0000    -0.7206     1.7653     1.7653     0.0000
 16 H      0.6132     1.0000     0.3868     0.8723     0.8723    -0.0000
 17 H      0.6642     1.0000     0.3358     0.9060     0.9060    -0.0000
 18 O      8.7206     8.0000    -0.7206     1.7653     1.7653     0.0000
 19 H      0.6132     1.0000     0.3868     0.8723     0.8723    -0.0000
 20 H      0.6642     1.0000     0.3358     0.9060     0.9060    -0.0000
 21 O      8.7206     8.0000    -0.7206     1.7653     1.7653     0.0000
 22 H      0.6132     1.0000     0.3868     0.8723     0.8723    -0.0000
 23 H      0.6642     1.0000     0.3358     0.9060     0.9060     0.0000

  Mayer bond orders larger than 0.100000
B(  0-O ,  1-H ) :   0.8541 B(  0-O ,  2-H ) :   0.8943 B(  3-O ,  4-H ) :   0.8648 
B(  3-O ,  5-H ) :   0.7935 B(  6-O ,  7-H ) :   0.7935 B(  6-O ,  8-H ) :   0.8648 
B(  9-O , 10-H ) :   0.8648 B(  9-O , 11-H ) :   0.7935 B( 12-O , 13-H ) :   0.8648 
B( 12-O , 14-H ) :   0.7935 B( 15-O , 16-H ) :   0.8541 B( 15-O , 17-H ) :   0.8943 
B( 18-O , 19-H ) :   0.8541 B( 18-O , 20-H ) :   0.8943 B( 21-O , 22-H ) :   0.8541 
B( 21-O , 23-H ) :   0.8943 

-------
TIMINGS
-------

Total SCF time: 0 days 0 hours 0 min 28 sec 

Total time                  ....      28.871 sec
Sum of individual times     ....      28.564 sec  ( 98.9%)

Fock matrix formation       ....      27.983 sec  ( 96.9%)
Diagonalization             ....       0.133 sec  (  0.5%)
Density matrix formation    ....       0.018 sec  (  0.1%)
Population analysis         ....       0.027 sec  (  0.1%)
Initial guess               ....       0.196 sec  (  0.7%)
Orbital Transformation      ....       0.000 sec  (  0.0%)
Orbital Orthonormalization  ....       0.000 sec  (  0.0%)
DIIS solution               ....       0.057 sec  (  0.2%)
SOSCF solution              ....       0.062 sec  (  0.2%)


           ************************************************************
           *        Program running with 6 parallel MPI-processes     *
           *              working on a common directory               *
           ************************************************************

------------------------------------------------------------------------------
                                ORCA  MP2 
------------------------------------------------------------------------------

Freezing NCore=16 chemical core electrons
MP2 will be done in the AO integral direct mode
The Q1-step will be done using symmetric double matrices
Dimension of the basis                    ...  344
Memory devoted for MP2                    ... 8000 MB   
Memory needed for all in one shot         ...  935 MB
Number of MOs that can be treated together...   50      
MP2 density construction                  ... relaxed
The MP2 gradient is requested => amplitudes will be stored on disk
Total number of MOs              ...   32
Number of MOs treated per batch  ...    6 
Number of batches necessary      ...    1 
OPERATORS   0/  0 PASS   0
-----------------------------------------------
 MP2 CORRELATION ENERGY   :     -2.071773296 Eh
-----------------------------------------------


---------------------
MP2 DENSITY FORMATION
---------------------

Completing the external part of the density      ... done
Storing the unrelaxed density                    ... done

Calculating G(D)                                 ... done
Completing the Lagrangian                        ... done
Solving the Z-vector equations                   ... 

------------------------------------------------------------------------------
                           ORCA CP-SCF CALCULATION
------------------------------------------------------------------------------

Input orbitals are from        ... 12h2o.su.etal.mol3,4,5,6,7,8,9,11-orca.engrad-mp2.def2tzvp.frozencore.gbw
Input Perturbation             ... 12h2o.su.etal.mol3,4,5,6,7,8,9,11-orca.engrad-mp2.def2tzvp.frozencore.pin.tmp
Wavefunction output            ... 12h2o.su.etal.mol3,4,5,6,7,8,9,11-orca.engrad-mp2.def2tzvp.frozencore.pout.tmp
Perturbation mode              ... Real perturbation (singlet)
Solver                         ... POPLE
Max. number of iterations      ... 128
Convergence tolerance          ... 1.000e-08
Integral handling              ... Direct
Number of perturbations        ... 1
Number of operators            ... 1
Orbital ranges used for CP-SCF:
 Operator 0:  Orbitals   0... 39  to  40...343
Variables per vector in CP-SCF ... 12160
Number of vectors sought       ... 1
     CP-SCF ITERATION   0: 
     CP-SCF ITERATION   1:      0.001098675095
     CP-SCF ITERATION   2:      0.000031086539
     CP-SCF ITERATION   3:      0.000001999622
     CP-SCF ITERATION   4:      0.000000164310
     CP-SCF ITERATION   5:      0.000000017757
     CP-SCF ITERATION   6:      0.000000000830
                                                 ... done
Finalizing the relaxed density                   ... done
Transforming P to the AO basis                   ... done
Storing the relaxed density                      ... done

------------------------------------
ENERGY WEIGHTED DENSITY FINALIZATION
------------------------------------

Gathering the parts of the W-matrix              ...                                                      done
Forming the Z-density                            ... done
Transforming Z to the AO basis                   ... done
Calculating G(Z)                                 ... done
Finalizing the W-matrix                          ...                                                      done
Transforming W to the AO basis and storing       ... done

                *********************************************
                * UNRELAXED MP2 DENSITY POPULATION ANALYSIS *
                *********************************************

------------------------------------------------------------------------------
                           ORCA POPULATION ANALYSIS
------------------------------------------------------------------------------
Input electron density              ... 12h2o.su.etal.mol3,4,5,6,7,8,9,11-orca.engrad-mp2.def2tzvp.frozencore.pmp2ur
BaseName (.gbw .S,...)              ... 12h2o.su.etal.mol3,4,5,6,7,8,9,11-orca.engrad-mp2.def2tzvp.frozencore

                    ********************************
                    * MULLIKEN POPULATION ANALYSIS *
                    ********************************

-----------------------
MULLIKEN ATOMIC CHARGES
-----------------------
   0 O :   -0.715023
   1 H :    0.383978
   2 H :    0.333161
   3 O :   -0.773591
   4 H :    0.374621
   5 H :    0.396855
   6 O :   -0.773591
   7 H :    0.396855
   8 H :    0.374621
   9 O :   -0.773591
  10 H :    0.374621
  11 H :    0.396855
  12 O :   -0.773591
  13 H :    0.374621
  14 H :    0.396855
  15 O :   -0.715023
  16 H :    0.383978
  17 H :    0.333161
  18 O :   -0.715023
  19 H :    0.383978
  20 H :    0.333161
  21 O :   -0.715023
  22 H :    0.383978
  23 H :    0.333161
Sum of atomic charges:    0.0000000

--------------------------------
MULLIKEN REDUCED ORBITAL CHARGES
--------------------------------
  0 O s       :     3.808194  s :     3.808194
      pz      :     1.540547  p :     4.850392
      px      :     1.510104
      py      :     1.799741
      dz2     :     0.016953  d :     0.052392
      dxz     :     0.006649
      dyz     :     0.008459
      dx2y2   :     0.007613
      dxy     :     0.012719
      f0      :     0.000629  f :     0.004046
      f+1     :     0.000741
      f-1     :     0.000539
      f+2     :     0.000414
      f-2     :     0.000420
      f+3     :     0.000435
      f-3     :     0.000869
  1 H s       :     0.565675  s :     0.565675
      pz      :     0.024179  p :     0.050347
      px      :     0.012284
      py      :     0.013883
  2 H s       :     0.620220  s :     0.620220
      pz      :     0.011830  p :     0.046619
      px      :     0.018251
      py      :     0.016539
  3 O s       :     3.797615  s :     3.797615
      pz      :     1.563398  p :     4.920920
      px      :     1.833139
      py      :     1.524383
      dz2     :     0.016263  d :     0.051099
      dxz     :     0.007682
      dyz     :     0.008121
      dx2y2   :     0.008922
      dxy     :     0.010112
      f0      :     0.000572  f :     0.003957
      f+1     :     0.000486
      f-1     :     0.000818
      f+2     :     0.000435
      f-2     :     0.000406
      f+3     :     0.000773
      f-3     :     0.000468
  4 H s       :     0.580082  s :     0.580082
      pz      :     0.019168  p :     0.045297
      px      :     0.013960
      py      :     0.012169
  5 H s       :     0.549109  s :     0.549109
      pz      :     0.009310  p :     0.054036
      px      :     0.015020
      py      :     0.029705
  6 O s       :     3.797615  s :     3.797615
      pz      :     1.563398  p :     4.920920
      px      :     1.833139
      py      :     1.524383
      dz2     :     0.016263  d :     0.051099
      dxz     :     0.007682
      dyz     :     0.008121
      dx2y2   :     0.008922
      dxy     :     0.010112
      f0      :     0.000572  f :     0.003957
      f+1     :     0.000486
      f-1     :     0.000818
      f+2     :     0.000435
      f-2     :     0.000406
      f+3     :     0.000773
      f-3     :     0.000468
  7 H s       :     0.549109  s :     0.549109
      pz      :     0.009310  p :     0.054036
      px      :     0.015020
      py      :     0.029705
  8 H s       :     0.580082  s :     0.580082
      pz      :     0.019168  p :     0.045297
      px      :     0.013960
      py      :     0.012169
  9 O s       :     3.797615  s :     3.797615
      pz      :     1.563398  p :     4.920920
      px      :     1.524383
      py      :     1.833139
      dz2     :     0.016263  d :     0.051099
      dxz     :     0.008121
      dyz     :     0.007682
      dx2y2   :     0.008922
      dxy     :     0.010112
      f0      :     0.000572  f :     0.003957
      f+1     :     0.000818
      f-1     :     0.000486
      f+2     :     0.000435
      f-2     :     0.000406
      f+3     :     0.000468
      f-3     :     0.000773
 10 H s       :     0.580082  s :     0.580082
      pz      :     0.019168  p :     0.045297
      px      :     0.012169
      py      :     0.013960
 11 H s       :     0.549109  s :     0.549109
      pz      :     0.009310  p :     0.054036
      px      :     0.029705
      py      :     0.015020
 12 O s       :     3.797615  s :     3.797615
      pz      :     1.563398  p :     4.920920
      px      :     1.524383
      py      :     1.833139
      dz2     :     0.016263  d :     0.051099
      dxz     :     0.008121
      dyz     :     0.007682
      dx2y2   :     0.008922
      dxy     :     0.010112
      f0      :     0.000572  f :     0.003957
      f+1     :     0.000818
      f-1     :     0.000486
      f+2     :     0.000435
      f-2     :     0.000406
      f+3     :     0.000468
      f-3     :     0.000773
 13 H s       :     0.580082  s :     0.580082
      pz      :     0.019168  p :     0.045297
      px      :     0.012169
      py      :     0.013960
 14 H s       :     0.549109  s :     0.549109
      pz      :     0.009310  p :     0.054036
      px      :     0.029705
      py      :     0.015020
 15 O s       :     3.808194  s :     3.808194
      pz      :     1.540547  p :     4.850392
      px      :     1.510104
      py      :     1.799741
      dz2     :     0.016953  d :     0.052392
      dxz     :     0.006649
      dyz     :     0.008459
      dx2y2   :     0.007613
      dxy     :     0.012719
      f0      :     0.000629  f :     0.004046
      f+1     :     0.000741
      f-1     :     0.000539
      f+2     :     0.000414
      f-2     :     0.000420
      f+3     :     0.000435
      f-3     :     0.000869
 16 H s       :     0.565675  s :     0.565675
      pz      :     0.024179  p :     0.050347
      px      :     0.012284
      py      :     0.013883
 17 H s       :     0.620220  s :     0.620220
      pz      :     0.011830  p :     0.046619
      px      :     0.018251
      py      :     0.016539
 18 O s       :     3.808194  s :     3.808194
      pz      :     1.540547  p :     4.850392
      px      :     1.799741
      py      :     1.510104
      dz2     :     0.016953  d :     0.052392
      dxz     :     0.008459
      dyz     :     0.006649
      dx2y2   :     0.007613
      dxy     :     0.012719
      f0      :     0.000629  f :     0.004046
      f+1     :     0.000539
      f-1     :     0.000741
      f+2     :     0.000414
      f-2     :     0.000420
      f+3     :     0.000869
      f-3     :     0.000435
 19 H s       :     0.565675  s :     0.565675
      pz      :     0.024179  p :     0.050347
      px      :     0.013883
      py      :     0.012284
 20 H s       :     0.620220  s :     0.620220
      pz      :     0.011830  p :     0.046619
      px      :     0.016539
      py      :     0.018251
 21 O s       :     3.808194  s :     3.808194
      pz      :     1.540547  p :     4.850392
      px      :     1.799741
      py      :     1.510104
      dz2     :     0.016953  d :     0.052392
      dxz     :     0.008459
      dyz     :     0.006649
      dx2y2   :     0.007613
      dxy     :     0.012719
      f0      :     0.000629  f :     0.004046
      f+1     :     0.000539
      f-1     :     0.000741
      f+2     :     0.000414
      f-2     :     0.000420
      f+3     :     0.000869
      f-3     :     0.000435
 22 H s       :     0.565675  s :     0.565675
      pz      :     0.024179  p :     0.050347
      px      :     0.013883
      py      :     0.012284
 23 H s       :     0.620220  s :     0.620220
      pz      :     0.011830  p :     0.046619
      px      :     0.016539
      py      :     0.018251


                     *******************************
                     * LOEWDIN POPULATION ANALYSIS *
                     *******************************

----------------------
LOEWDIN ATOMIC CHARGES
----------------------
   0 O :   -0.335891
   1 H :    0.153716
   2 H :    0.157190
   3 O :   -0.300593
   4 H :    0.172071
   5 H :    0.153507
   6 O :   -0.300593
   7 H :    0.153507
   8 H :    0.172071
   9 O :   -0.300593
  10 H :    0.172071
  11 H :    0.153507
  12 O :   -0.300593
  13 H :    0.172071
  14 H :    0.153507
  15 O :   -0.335891
  16 H :    0.153716
  17 H :    0.157190
  18 O :   -0.335891
  19 H :    0.153716
  20 H :    0.157190
  21 O :   -0.335891
  22 H :    0.153716
  23 H :    0.157190

-------------------------------
LOEWDIN REDUCED ORBITAL CHARGES
-------------------------------
  0 O s       :     3.463684  s :     3.463684
      pz      :     1.523343  p :     4.807175
      px      :     1.510548
      py      :     1.773284
      dz2     :     0.021451  d :     0.060142
      dxz     :     0.007232
      dyz     :     0.007741
      dx2y2   :     0.007894
      dxy     :     0.015825
      f0      :     0.000864  f :     0.004890
      f+1     :     0.000984
      f-1     :     0.000714
      f+2     :     0.000387
      f-2     :     0.000416
      f+3     :     0.000375
      f-3     :     0.001149
  1 H s       :     0.673245  s :     0.673245
      pz      :     0.093534  p :     0.173039
      px      :     0.036695
      py      :     0.042810
  2 H s       :     0.682056  s :     0.682056
      pz      :     0.032113  p :     0.160754
      px      :     0.072776
      py      :     0.055864
  3 O s       :     3.450747  s :     3.450747
      pz      :     1.527470  p :     4.786196
      px      :     1.774445
      py      :     1.484281
      dz2     :     0.020757  d :     0.058885
      dxz     :     0.006886
      dyz     :     0.009444
      dx2y2   :     0.010478
      dxy     :     0.011320
      f0      :     0.000792  f :     0.004764
      f+1     :     0.000583
      f-1     :     0.001167
      f+2     :     0.000413
      f-2     :     0.000421
      f+3     :     0.000940
      f-3     :     0.000449
  4 H s       :     0.664748  s :     0.664748
      pz      :     0.081732  p :     0.163181
      px      :     0.043538
      py      :     0.037911
  5 H s       :     0.655588  s :     0.655588
      pz      :     0.029947  p :     0.190905
      px      :     0.053409
      py      :     0.107549
  6 O s       :     3.450747  s :     3.450747
      pz      :     1.527470  p :     4.786196
      px      :     1.774445
      py      :     1.484281
      dz2     :     0.020757  d :     0.058885
      dxz     :     0.006886
      dyz     :     0.009444
      dx2y2   :     0.010478
      dxy     :     0.011320
      f0      :     0.000792  f :     0.004764
      f+1     :     0.000583
      f-1     :     0.001167
      f+2     :     0.000413
      f-2     :     0.000421
      f+3     :     0.000940
      f-3     :     0.000449
  7 H s       :     0.655588  s :     0.655588
      pz      :     0.029947  p :     0.190905
      px      :     0.053409
      py      :     0.107549
  8 H s       :     0.664748  s :     0.664748
      pz      :     0.081732  p :     0.163181
      px      :     0.043538
      py      :     0.037911
  9 O s       :     3.450747  s :     3.450747
      pz      :     1.527470  p :     4.786196
      px      :     1.484281
      py      :     1.774445
      dz2     :     0.020757  d :     0.058885
      dxz     :     0.009444
      dyz     :     0.006886
      dx2y2   :     0.010478
      dxy     :     0.011320
      f0      :     0.000792  f :     0.004764
      f+1     :     0.001167
      f-1     :     0.000583
      f+2     :     0.000413
      f-2     :     0.000421
      f+3     :     0.000449
      f-3     :     0.000940
 10 H s       :     0.664748  s :     0.664748
      pz      :     0.081732  p :     0.163181
      px      :     0.037911
      py      :     0.043538
 11 H s       :     0.655588  s :     0.655588
      pz      :     0.029947  p :     0.190905
      px      :     0.107549
      py      :     0.053409
 12 O s       :     3.450747  s :     3.450747
      pz      :     1.527470  p :     4.786196
      px      :     1.484281
      py      :     1.774445
      dz2     :     0.020757  d :     0.058885
      dxz     :     0.009444
      dyz     :     0.006886
      dx2y2   :     0.010478
      dxy     :     0.011320
      f0      :     0.000792  f :     0.004764
      f+1     :     0.001167
      f-1     :     0.000583
      f+2     :     0.000413
      f-2     :     0.000421
      f+3     :     0.000449
      f-3     :     0.000940
 13 H s       :     0.664748  s :     0.664748
      pz      :     0.081732  p :     0.163181
      px      :     0.037911
      py      :     0.043538
 14 H s       :     0.655588  s :     0.655588
      pz      :     0.029947  p :     0.190905
      px      :     0.107549
      py      :     0.053409
 15 O s       :     3.463684  s :     3.463684
      pz      :     1.523343  p :     4.807175
      px      :     1.510548
      py      :     1.773284
      dz2     :     0.021451  d :     0.060142
      dxz     :     0.007232
      dyz     :     0.007741
      dx2y2   :     0.007894
      dxy     :     0.015825
      f0      :     0.000864  f :     0.004890
      f+1     :     0.000984
      f-1     :     0.000714
      f+2     :     0.000387
      f-2     :     0.000416
      f+3     :     0.000375
      f-3     :     0.001149
 16 H s       :     0.673245  s :     0.673245
      pz      :     0.093534  p :     0.173039
      px      :     0.036695
      py      :     0.042810
 17 H s       :     0.682056  s :     0.682056
      pz      :     0.032113  p :     0.160754
      px      :     0.072776
      py      :     0.055864
 18 O s       :     3.463684  s :     3.463684
      pz      :     1.523343  p :     4.807175
      px      :     1.773284
      py      :     1.510548
      dz2     :     0.021451  d :     0.060142
      dxz     :     0.007741
      dyz     :     0.007232
      dx2y2   :     0.007894
      dxy     :     0.015825
      f0      :     0.000864  f :     0.004890
      f+1     :     0.000714
      f-1     :     0.000984
      f+2     :     0.000387
      f-2     :     0.000416
      f+3     :     0.001149
      f-3     :     0.000375
 19 H s       :     0.673245  s :     0.673245
      pz      :     0.093534  p :     0.173039
      px      :     0.042810
      py      :     0.036695
 20 H s       :     0.682056  s :     0.682056
      pz      :     0.032113  p :     0.160754
      px      :     0.055864
      py      :     0.072776
 21 O s       :     3.463684  s :     3.463684
      pz      :     1.523343  p :     4.807175
      px      :     1.773284
      py      :     1.510548
      dz2     :     0.021451  d :     0.060142
      dxz     :     0.007741
      dyz     :     0.007232
      dx2y2   :     0.007894
      dxy     :     0.015825
      f0      :     0.000864  f :     0.004890
      f+1     :     0.000714
      f-1     :     0.000984
      f+2     :     0.000387
      f-2     :     0.000416
      f+3     :     0.001149
      f-3     :     0.000375
 22 H s       :     0.673245  s :     0.673245
      pz      :     0.093534  p :     0.173039
      px      :     0.042810
      py      :     0.036695
 23 H s       :     0.682056  s :     0.682056
      pz      :     0.032113  p :     0.160754
      px      :     0.055864
      py      :     0.072776


                      *****************************
                      * MAYER POPULATION ANALYSIS *
                      *****************************

  NA   - Mulliken gross atomic population
[...]
      f+1     :     0.000529
      f-1     :     0.000719
      f+2     :     0.000414
      f-2     :     0.000418
      f+3     :     0.000845
      f-3     :     0.000436
 19 H s       :     0.577411  s :     0.577411
      pz      :     0.023300  p :     0.050838
      px      :     0.014758
      py      :     0.012781
 20 H s       :     0.626655  s :     0.626655
      pz      :     0.012596  p :     0.047469
      px      :     0.017199
      py      :     0.017673
 21 O s       :     3.809992  s :     3.809992
      pz      :     1.536628  p :     4.831676
      px      :     1.792873
      py      :     1.502174
      dz2     :     0.015698  d :     0.050199
      dxz     :     0.008436
      dyz     :     0.006612
      dx2y2   :     0.007511
      dxy     :     0.011943
      f0      :     0.000612  f :     0.003973
      f+1     :     0.000529
      f-1     :     0.000719
      f+2     :     0.000414
      f-2     :     0.000418
      f+3     :     0.000845
      f-3     :     0.000436
 22 H s       :     0.577411  s :     0.577411
      pz      :     0.023300  p :     0.050838
      px      :     0.014758
      py      :     0.012781
 23 H s       :     0.626655  s :     0.626655
      pz      :     0.012596  p :     0.047469
      px      :     0.017199
      py      :     0.017673


                     *******************************
                     * LOEWDIN POPULATION ANALYSIS *
                     *******************************

----------------------
LOEWDIN ATOMIC CHARGES
----------------------
   0 O :   -0.335995
   1 H :    0.150778
   2 H :    0.158479
   3 O :   -0.292124
   4 H :    0.172986
   5 H :    0.145876
   6 O :   -0.292124
   7 H :    0.145876
   8 H :    0.172986
   9 O :   -0.292124
  10 H :    0.172986
  11 H :    0.145876
  12 O :   -0.292124
  13 H :    0.172986
  14 H :    0.145876
  15 O :   -0.335995
  16 H :    0.150778
  17 H :    0.158479
  18 O :   -0.335995
  19 H :    0.150778
  20 H :    0.158479
  21 O :   -0.335995
  22 H :    0.150778
  23 H :    0.158479

-------------------------------
LOEWDIN REDUCED ORBITAL CHARGES
-------------------------------
  0 O s       :     3.465209  s :     3.465209
      pz      :     1.524264  p :     4.806961
      px      :     1.512113
      py      :     1.770584
      dz2     :     0.020805  d :     0.058918
      dxz     :     0.007114
      dyz     :     0.007781
      dx2y2   :     0.007803
      dxy     :     0.015415
      f0      :     0.000868  f :     0.004907
      f+1     :     0.000991
      f-1     :     0.000712
      f+2     :     0.000389
      f-2     :     0.000416
      f+3     :     0.000375
      f-3     :     0.001155
  1 H s       :     0.675933  s :     0.675933
      pz      :     0.092642  p :     0.173289
      px      :     0.037009
      py      :     0.043639
  2 H s       :     0.680378  s :     0.680378
      pz      :     0.032562  p :     0.161142
      px      :     0.072164
      py      :     0.056417
  3 O s       :     3.452062  s :     3.452062
      pz      :     1.526851  p :     4.776849
      px      :     1.762941
      py      :     1.487057
      dz2     :     0.020370  d :     0.058415
      dxz     :     0.006966
      dyz     :     0.009258
      dx2y2   :     0.010516
      dxy     :     0.011306
      f0      :     0.000793  f :     0.004798
      f+1     :     0.000585
      f-1     :     0.001179
      f+2     :     0.000415
      f-2     :     0.000420
      f+3     :     0.000954
      f-3     :     0.000452
  4 H s       :     0.663925  s :     0.663925
      pz      :     0.080926  p :     0.163089
      px      :     0.044164
      py      :     0.037999
  5 H s       :     0.662569  s :     0.662569
      pz      :     0.030293  p :     0.191556
      px      :     0.053862
      py      :     0.107401
  6 O s       :     3.452062  s :     3.452062
      pz      :     1.526851  p :     4.776849
      px      :     1.762941
      py      :     1.487057
      dz2     :     0.020370  d :     0.058415
      dxz     :     0.006966
      dyz     :     0.009258
      dx2y2   :     0.010516
      dxy     :     0.011306
      f0      :     0.000793  f :     0.004798
      f+1     :     0.000585
      f-1     :     0.001179
      f+2     :     0.000415
      f-2     :     0.000420
      f+3     :     0.000954
      f-3     :     0.000452
  7 H s       :     0.662569  s :     0.662569
      pz      :     0.030293  p :     0.191556
      px      :     0.053862
      py      :     0.107401
  8 H s       :     0.663925  s :     0.663925
      pz      :     0.080926  p :     0.163089
      px      :     0.044164
      py      :     0.037999
  9 O s       :     3.452062  s :     3.452062
      pz      :     1.526851  p :     4.776849
      px      :     1.487057
      py      :     1.762941
      dz2     :     0.020370  d :     0.058415
      dxz     :     0.009258
      dyz     :     0.006966
      dx2y2   :     0.010516
      dxy     :     0.011306
      f0      :     0.000793  f :     0.004798
      f+1     :     0.001179
      f-1     :     0.000585
      f+2     :     0.000415
      f-2     :     0.000420
      f+3     :     0.000452
      f-3     :     0.000954
 10 H s       :     0.663925  s :     0.663925
      pz      :     0.080926  p :     0.163089
      px      :     0.037999
      py      :     0.044164
 11 H s       :     0.662569  s :     0.662569
      pz      :     0.030293  p :     0.191556
      px      :     0.107401
      py      :     0.053862
 12 O s       :     3.452062  s :     3.452062
      pz      :     1.526851  p :     4.776849
      px      :     1.487057
      py      :     1.762941
      dz2     :     0.020370  d :     0.058415
      dxz     :     0.009258
      dyz     :     0.006966
      dx2y2   :     0.010516
      dxy     :     0.011306
      f0      :     0.000793  f :     0.004798
      f+1     :     0.001179
      f-1     :     0.000585
      f+2     :     0.000415
      f-2     :     0.000420
      f+3     :     0.000452
      f-3     :     0.000954
 13 H s       :     0.663925  s :     0.663925
      pz      :     0.080926  p :     0.163089
      px      :     0.037999
      py      :     0.044164
 14 H s       :     0.662569  s :     0.662569
      pz      :     0.030293  p :     0.191556
      px      :     0.107401
      py      :     0.053862
 15 O s       :     3.465209  s :     3.465209
      pz      :     1.524264  p :     4.806961
      px      :     1.512113
      py      :     1.770584
      dz2     :     0.020805  d :     0.058918
      dxz     :     0.007114
      dyz     :     0.007781
      dx2y2   :     0.007803
      dxy     :     0.015415
      f0      :     0.000868  f :     0.004907
      f+1     :     0.000991
      f-1     :     0.000712
      f+2     :     0.000389
      f-2     :     0.000416
      f+3     :     0.000375
      f-3     :     0.001155
 16 H s       :     0.675933  s :     0.675933
      pz      :     0.092642  p :     0.173289
      px      :     0.037009
      py      :     0.043639
 17 H s       :     0.680378  s :     0.680378
      pz      :     0.032562  p :     0.161142
      px      :     0.072164
      py      :     0.056417
 18 O s       :     3.465209  s :     3.465209
      pz      :     1.524264  p :     4.806961
      px      :     1.770584
      py      :     1.512113
      dz2     :     0.020805  d :     0.058918
      dxz     :     0.007781
      dyz     :     0.007114
      dx2y2   :     0.007803
      dxy     :     0.015415
      f0      :     0.000868  f :     0.004907
      f+1     :     0.000712
      f-1     :     0.000991
      f+2     :     0.000389
      f-2     :     0.000416
      f+3     :     0.001155
      f-3     :     0.000375
 19 H s       :     0.675933  s :     0.675933
      pz      :     0.092642  p :     0.173289
      px      :     0.043639
      py      :     0.037009
 20 H s       :     0.680378  s :     0.680378
      pz      :     0.032562  p :     0.161142
      px      :     0.056417
      py      :     0.072164
 21 O s       :     3.465209  s :     3.465209
      pz      :     1.524264  p :     4.806961
      px      :     1.770584
      py      :     1.512113
      dz2     :     0.020805  d :     0.058918
      dxz     :     0.007781
      dyz     :     0.007114
      dx2y2   :     0.007803
      dxy     :     0.015415
      f0      :     0.000868  f :     0.004907
      f+1     :     0.000712
      f-1     :     0.000991
      f+2     :     0.000389
      f-2     :     0.000416
      f+3     :     0.001155
      f-3     :     0.000375
 22 H s       :     0.675933  s :     0.675933
      pz      :     0.092642  p :     0.173289
      px      :     0.043639
      py      :     0.037009
 23 H s       :     0.680378  s :     0.680378
      pz      :     0.032562  p :     0.161142
      px      :     0.056417
      py      :     0.072164


                      *****************************
                      * MAYER POPULATION ANALYSIS *
                      *****************************

  NA   - Mulliken gross atomic population
  ZA   - Total nuclear charge
  QA   - Mulliken gross atomic charge
  VA   - Mayer's total valence
  BVA  - Mayer's bonded valence
  FA   - Mayer's free valence

  ATOM       NA         ZA         QA         VA         BVA        FA
  0 O      8.6958     8.0000    -0.6958     2.0901     1.7068     0.3833
  1 H      0.6282     1.0000     0.3718     0.8948     0.8507     0.0442
  2 H      0.6741     1.0000     0.3259     0.9200     0.8710     0.0489
  3 O      8.7407     8.0000    -0.7407     2.0597     1.6709     0.3889
  4 H      0.6336     1.0000     0.3664     0.8890     0.8434     0.0456
  5 H      0.6275     1.0000     0.3725     0.9232     0.8781     0.0450
  6 O      8.7407     8.0000    -0.7407     2.0597     1.6709     0.3889
  7 H      0.6275     1.0000     0.3725     0.9232     0.8781     0.0450
  8 H      0.6336     1.0000     0.3664     0.8890     0.8434     0.0456
  9 O      8.7407     8.0000    -0.7407     2.0597     1.6709     0.3889
 10 H      0.6336     1.0000     0.3664     0.8890     0.8434     0.0456
 11 H      0.6275     1.0000     0.3725     0.9232     0.8781     0.0450
 12 O      8.7407     8.0000    -0.7407     2.0597     1.6709     0.3889
 13 H      0.6336     1.0000     0.3664     0.8890     0.8434     0.0456
 14 H      0.6275     1.0000     0.3725     0.9232     0.8781     0.0450
 15 O      8.6958     8.0000    -0.6958     2.0901     1.7068     0.3833
 16 H      0.6282     1.0000     0.3718     0.8948     0.8507     0.0442
 17 H      0.6741     1.0000     0.3259     0.9200     0.8710     0.0489
 18 O      8.6958     8.0000    -0.6958     2.0901     1.7068     0.3833
 19 H      0.6282     1.0000     0.3718     0.8948     0.8507     0.0442
 20 H      0.6741     1.0000     0.3259     0.9200     0.8710     0.0489
 21 O      8.6958     8.0000    -0.6958     2.0901     1.7068     0.3833
 22 H      0.6282     1.0000     0.3718     0.8948     0.8507     0.0442
 23 H      0.6741     1.0000     0.3259     0.9200     0.8710     0.0489

  Mayer bond orders larger than 0.100000
B(  0-O ,  1-H ) :   0.8214 B(  0-O ,  2-H ) :   0.8552 B(  3-O ,  4-H ) :   0.8287 
B(  3-O ,  5-H ) :   0.7543 B(  6-O ,  7-H ) :   0.7543 B(  6-O ,  8-H ) :   0.8287 
B(  9-O , 10-H ) :   0.8287 B(  9-O , 11-H ) :   0.7543 B( 12-O , 13-H ) :   0.8287 
B( 12-O , 14-H ) :   0.7543 B( 15-O , 16-H ) :   0.8214 B( 15-O , 17-H ) :   0.8552 
B( 18-O , 19-H ) :   0.8214 B( 18-O , 20-H ) :   0.8552 B( 21-O , 22-H ) :   0.8214 
B( 21-O , 23-H ) :   0.8552 


----------------------------------
MP2 DERIVATIVE INTEGRAL GENERATION
----------------------------------


Input Wavefunction Amplitudes       ... 12h2o.su.etal.mol3,4,5,6,7,8,9,11-orca.engrad-mp2.def2tzvp.frozencore.mp2tsaa.tmp
Input Correlated Electron Density   ... 12h2o.su.etal.mol3,4,5,6,7,8,9,11-orca.engrad-mp2.def2tzvp.frozencore.pmp2re
Input Energy Weighted Density       ... 12h2o.su.etal.mol3,4,5,6,7,8,9,11-orca.engrad-mp2.def2tzvp.frozencore.wmp2.tmp
Input SCF Electron Density          ... 12h2o.su.etal.mol3,4,5,6,7,8,9,11-orca.engrad-mp2.def2tzvp.frozencore.scfp

One-Electron Terms    ...
                        ... One-Electron Terms done
Prescreening matrices              ... done

Batch handling in the gradient evaluation:
Memory available                      ... 8000.0 MB
Memory per occupied orbital in Q2     ...   28.9 MB
Memory per occupied orbital in Q3     ...    0.1 MB
Total memory requirement per |i>      ...   29.0 MB
Max. Number of orbitals possible      ...    275
Number of orbitals treated per batch  ...     32
Number of batches to be done          ...      1
Batch   0: i=    8 ...    39

---------------------------------------
MP2 TOTAL ENERGY:     -610.580012415 Eh
---------------------------------------

The final MP2 gradient
  0:  -0.00978303   0.00456626  -0.00382134
  1:   0.00006661  -0.00053123   0.00441148
  2:   0.00948494  -0.00622622   0.00123618
  3:  -0.00315199   0.00016172   0.01251232
  4:   0.00300995  -0.00057486  -0.00778541
  5:   0.00191637   0.00111582   0.00226687
  6:   0.00315199  -0.00016172   0.01251232
  7:  -0.00191637  -0.00111582   0.00226687
  8:  -0.00300995   0.00057486  -0.00778541
  9:   0.00016172   0.00315199  -0.01251232
 10:  -0.00057486  -0.00300995   0.00778541
 11:   0.00111582  -0.00191637  -0.00226687
 12:  -0.00016172  -0.00315199  -0.01251232
 13:   0.00057486   0.00300995   0.00778541
 14:  -0.00111582   0.00191637  -0.00226687
 15:   0.00978303  -0.00456626  -0.00382134
 16:  -0.00006661   0.00053123   0.00441148
 17:  -0.00948494   0.00622622   0.00123618
 18:  -0.00456626  -0.00978303   0.00382134
 19:   0.00053123   0.00006661  -0.00441148
 20:   0.00622622   0.00948494  -0.00123618
 21:   0.00456626   0.00978303   0.00382134
 22:  -0.00053123  -0.00006661  -0.00441148
 23:  -0.00622622  -0.00948494  -0.00123618

-----------------------------------
NORM OF THE MP2 GRADIENT:  0.045945
-----------------------------------

-------------------------   --------------------
FINAL SINGLE POINT ENERGY      -610.580012415024
-------------------------   --------------------


                            ***************************************
                            *     ORCA property calculations      *
                            ***************************************

                                    ---------------------
                                    Active property flags
                                    ---------------------
   (+) Dipole Moment


------------------------------------------------------------------------------
                       ORCA ELECTRIC PROPERTIES CALCULATION
------------------------------------------------------------------------------

Dipole Moment Calculation                       ... on
Quadrupole Moment Calculation                   ... off
Polarizability Calculation                      ... off
GBWName                                         ... 12h2o.su.etal.mol3,4,5,6,7,8,9,11-orca.engrad-mp2.def2tzvp.frozencore.gbw
Electron density file                           ... 12h2o.su.etal.mol3,4,5,6,7,8,9,11-orca.engrad-mp2.def2tzvp.frozencore.scfp
The origin for moment calculation is the CENTER OF MASS  = (-0.000000,  0.000000  0.000000)

-------------
DIPOLE MOMENT
-------------
                                X             Y             Z
Electronic contribution:     -0.00000      -0.00000      -0.00000
Nuclear contribution   :     -0.00000       0.00000       0.00000
                        -----------------------------------------
Total Dipole Moment    :     -0.00000      -0.00000      -0.00000
                        -----------------------------------------
Magnitude (a.u.)       :      0.00000
Magnitude (Debye)      :      0.00000



--------------------
Rotational spectrum 
--------------------
 
Rotational constants in cm-1:     0.031434     0.019607     0.019607 
Rotational constants in MHz :   942.357021   587.794768   587.794768 

 Dipole components along the rotational axes: 
x,y,z [a.u.] :    -0.000000    -0.000000     0.000000 
x,y,z [Debye]:    -0.000000    -0.000000     0.000000 

 

                         *** MP2 UNRELAXED DENSITY ***

------------------------------------------------------------------------------
                       ORCA ELECTRIC PROPERTIES CALCULATION
------------------------------------------------------------------------------

Dipole Moment Calculation                       ... on
Quadrupole Moment Calculation                   ... off
Polarizability Calculation                      ... off
GBWName                                         ... 12h2o.su.etal.mol3,4,5,6,7,8,9,11-orca.engrad-mp2.def2tzvp.frozencore.gbw
Electron density file                           ... 12h2o.su.etal.mol3,4,5,6,7,8,9,11-orca.engrad-mp2.def2tzvp.frozencore.pmp2ur
The origin for moment calculation is the CENTER OF MASS  = (-0.000000,  0.000000  0.000000)

-------------
DIPOLE MOMENT
-------------
                                X             Y             Z
Electronic contribution:     -0.00000      -0.00000      -0.00000
Nuclear contribution   :     -0.00000       0.00000       0.00000
                        -----------------------------------------
Total Dipole Moment    :     -0.00000      -0.00000      -0.00000
                        -----------------------------------------
Magnitude (a.u.)       :      0.00000
Magnitude (Debye)      :      0.00000



--------------------
Rotational spectrum 
--------------------
 
Rotational constants in cm-1:     0.031434     0.019607     0.019607 
Rotational constants in MHz :   942.357021   587.794768   587.794768 

 Dipole components along the rotational axes: 
x,y,z [a.u.] :    -0.000000    -0.000000     0.000000 
x,y,z [Debye]:    -0.000000    -0.000000     0.000000 

 

                           *** MP2 RELAXED DENSITY ***

------------------------------------------------------------------------------
                       ORCA ELECTRIC PROPERTIES CALCULATION
------------------------------------------------------------------------------

Dipole Moment Calculation                       ... on
Quadrupole Moment Calculation                   ... off
Polarizability Calculation                      ... off
GBWName                                         ... 12h2o.su.etal.mol3,4,5,6,7,8,9,11-orca.engrad-mp2.def2tzvp.frozencore.gbw
Electron density file                           ... 12h2o.su.etal.mol3,4,5,6,7,8,9,11-orca.engrad-mp2.def2tzvp.frozencore.pmp2re
The origin for moment calculation is the CENTER OF MASS  = (-0.000000,  0.000000  0.000000)

-------------
DIPOLE MOMENT
-------------
                                X             Y             Z
Electronic contribution:     -0.00000      -0.00000      -0.00000
Nuclear contribution   :     -0.00000       0.00000       0.00000
                        -----------------------------------------
Total Dipole Moment    :     -0.00000      -0.00000      -0.00000
                        -----------------------------------------
Magnitude (a.u.)       :      0.00000
Magnitude (Debye)      :      0.00000



--------------------
Rotational spectrum 
--------------------
 
Rotational constants in cm-1:     0.031434     0.019607     0.019607 
Rotational constants in MHz :   942.357021   587.794768   587.794768 

 Dipole components along the rotational axes: 
x,y,z [a.u.] :    -0.000000    -0.000000     0.000000 
x,y,z [Debye]:    -0.000000    -0.000000     0.000000 

 

Timings for individual modules:

Sum of individual times         ...      201.422 sec (=   3.357 min)
GTO integral calculation        ...        1.378 sec (=   0.023 min)   0.7 %
SCF iterations                  ...       29.689 sec (=   0.495 min)  14.7 %
MP2 module                      ...      170.356 sec (=   2.839 min)  84.6 %
                             ****ORCA TERMINATED NORMALLY****
TOTAL RUN TIME: 0 days 0 hours 3 minutes 22 seconds 410 msec
