
                                 *****************
                                 * O   R   C   A *
                                 *****************

           --- An Ab Initio, DFT and Semiempirical electronic structure package ---

                  #######################################################
                  #                        -***-                        #
                  #  Department of molecular theory and spectroscopy    #
                  #              Directorship: Frank Neese              #
                  # Max Planck Institute for Chemical Energy Conversion #
                  #                  D-45470 Muelheim/Ruhr              #
                  #                       Germany                       #
                  #                                                     #
                  #                  All rights reserved                #
                  #                        -***-                        #
                  #######################################################


                         Program Version 3.0.3 - RELEASE   -


 With contributions from (in alphabetic order):
   Ute Becker             : Parallelization
   Dmytro Bykov           : SCF Hessian
   Dmitry Ganyushin       : Spin-Orbit,Spin-Spin,Magnetic field MRCI
   Andreas Hansen         : Spin unrestricted coupled pair/coupled cluster methods
   Dimitrios Liakos       : Extrapolation schemes; parallel MDCI
   Robert Izsak           : Overlap fitted RIJCOSX, COSX-SCS-MP3
   Christian Kollmar      : KDIIS, OOCD, Brueckner-CCSD(T), CCSD density
   Simone Kossmann        : Meta GGA functionals, TD-DFT gradient, OOMP2, MP2 Hessian
   Taras Petrenko         : DFT Hessian,TD-DFT gradient, ASA and ECA modules, normal mode analysis, Resonance Raman, ABS, FL, XAS/XES, NRVS
   Christoph Reimann      : Effective Core Potentials
   Michael Roemelt        : Restricted open shell CIS
   Christoph Riplinger    : Improved optimizer, TS searches, QM/MM, DLPNO-CCSD
   Barbara Sandhoefer     : DKH picture change effects
   Igor Schapiro          : Molecular dynamics
   Kantharuban Sivalingam : CASSCF convergence, NEVPT2
   Boris Wezisla          : Elementary symmetry handling
   Frank Wennmohs         : Technical directorship


 We gratefully acknowledge several colleagues who have allowed us to
 interface, adapt or use parts of their codes:
   Stefan Grimme, W. Hujo, H. Kruse, T. Risthaus : VdW corrections, initial TS optimization,
                                                   DFT functionals, gCP
   Ed Valeev                                     : LibInt (2-el integral package), F12 methods
   Garnet Chan, S. Sharma, R. Olivares           : DMRG
   Ulf Ekstrom                                   : XCFun DFT Library
   Mihaly Kallay                                 : mrcc  (arbitrary order and MRCC methods)
   Andreas Klamt, Michael Diedenhofen            : otool_cosmo (COSMO solvation model)
   Frank Weinhold                                : gennbo (NPA and NBO analysis)
   Christopher J. Cramer and Donald G. Truhlar   : smd solvation model


 Your calculation uses the libint2 library for the computation of 2-el integrals
 For citations please refer to: http://libint.valeyev.net

 This ORCA versions uses:
   CBLAS   interface :  Fast vector & matrix operations
   LAPACKE interface :  Fast linear algebra routines
   SCALAPACK package :  Parallel linear algebra routines


Your calculation utilizes the basis: Ahlrichs-TZV
Cite in your paper:
H - Kr: A. Schaefer, H. Horn and R. Ahlrichs, J. Chem. Phys. 97, 2571 (1992).

The def2-TZV basis will be loaded
Cite in your paper:
 	F. Weigend, R. Ahlrichs, Phys. Chem. Chem. Phys. 2005, 7, 3297.

Your calculation utilizes the atom-pairwise dispersion correction
with the Becke-Johnson damping scheme (D3BJ)
Cite in your paper:
S.Grimme, S.Ehrlich, L.Goerigk, J Comput Chem, (2011), 32, 1456–1465 
S.Grimme, J.Antony, S.Ehrlich and H.Krieg, J.Chem.Phys., 132, (2010), 154104 
   

================================================================================
                                        WARNINGS
                       Please study these warnings very carefully!
================================================================================
Now building the actual basis set


INFO   : the flag for use of LIBINT has been found!

================================================================================
                                       INPUT FILE
================================================================================
NAME = 2_B3LYP_SMD_onBP86_SMD_16_waters.inp
|  1> ! B3LYP Def2-TZVP def2-TZVP/J RIJCOSX TightSCF Grid4 D3BJ COSMO
|  2> 
|  3> %pal nprocs 12 end
|  4> 
|  5> %scf
|  6>         maxiter 400
|  7> end
|  8> 
|  9> %cosmo
| 10>         SMD true
| 11>         solvent "WATER"
| 12> end
| 13> 
| 14> * xyz  0  1
| 15> O  3.065492	0.742446	-3.078391
| 16> H  3.550443	0.040492	-2.502765
| 17> H  3.769557	1.246851	-3.531491
| 18> O  -2.212572	0.568530	-0.347203
| 19> H  -3.038757	0.812096	0.175961
| 20> H  -1.527557	1.224894	0.013636
| 21> O  -0.467049	-0.128134	-2.256780
| 22> H  -1.317167	0.123450	-1.801020
| 23> H  0.207064	0.534957	-1.881274
| 24> O  1.291606	-0.966466	-4.185133
| 25> H  0.484642	-0.673028	-3.684164
| 26> H  1.965916	-0.265589	-3.935699
| 27> O  2.200648	-2.817336	-2.579393
| 28> H  2.366064	-3.660190	-3.046269
| 29> H  1.838480	-2.168835	-3.291046
| 30> O  -3.940835	1.183623	1.547669
| 31> H  -4.847845	1.544018	1.490254
| 32> H  -3.363690	1.938244	1.943440
| 33> O  0.417195	0.128413	2.281294
| 34> H  -0.030366	0.403483	3.140313
| 35> H  -0.246433	-0.537200	1.895767
| 36> O  -3.062107	-0.782133	3.175964
| 37> H  -2.505639	-1.275209	2.515692
| 38> H  -3.549078	-0.122290	2.596748
| 39> O  -1.316381	0.913796	4.115687
| 40> H  -2.019645	0.209747	3.851906
| 41> H  -1.272659	0.896053	5.092289
| 42> O  1.380101	1.432247	-1.166276
| 43> H  2.053535	1.437598	-1.915317
| 44> H  1.750315	0.717270	-0.546429
| 45> O  -2.258660	2.906383	2.554273
| 46> H  -1.548856	2.878562	1.858238
| 47> H  -1.893419	2.291751	3.258968
| 48> O  -1.370543	-1.469444	1.130064
| 49> H  -0.805746	-2.014051	0.514993
| 50> H  -1.744739	-0.744638	0.523066
| 51> O  -0.359322	2.143651	0.739079
| 52> H  0.007066	1.421390	1.354910
| 53> H  0.322611	2.197967	0.013166
| 54> O  4.042056	-1.130713	-1.546385
| 55> H  3.573297	-0.927944	-0.693411
| 56> H  3.491242	-1.880740	-1.922269
| 57> O  2.183224	-0.566956	0.385484
| 58> H  1.792893	-0.330312	1.271421
| 59> H  1.515658	-1.234341	0.004795
| 60> O  0.398739	-2.153847	-0.767860
| 61> H  1.011142	-2.655151	-1.391101
| 62> H  0.020080	-1.433365	-1.375397
| 63> **                         ****END OF INPUT****
================================================================================

                       ****************************
                       * Single Point Calculation *
                       ****************************

---------------------------------
CARTESIAN COORDINATES (ANGSTROEM)
---------------------------------
  O      3.065492    0.742446   -3.078391
  H      3.550443    0.040492   -2.502765
  H      3.769557    1.246851   -3.531491
  O     -2.212572    0.568530   -0.347203
  H     -3.038757    0.812096    0.175961
  H     -1.527557    1.224894    0.013636
  O     -0.467049   -0.128134   -2.256780
  H     -1.317167    0.123450   -1.801020
  H      0.207064    0.534957   -1.881274
  O      1.291606   -0.966466   -4.185133
  H      0.484642   -0.673028   -3.684164
  H      1.965916   -0.265589   -3.935699
  O      2.200648   -2.817336   -2.579393
  H      2.366064   -3.660190   -3.046269
  H      1.838480   -2.168835   -3.291046
  O     -3.940835    1.183623    1.547669
  H     -4.847845    1.544018    1.490254
  H     -3.363690    1.938244    1.943440
  O      0.417195    0.128413    2.281294
  H     -0.030366    0.403483    3.140313
  H     -0.246433   -0.537200    1.895767
  O     -3.062107   -0.782133    3.175964
  H     -2.505639   -1.275209    2.515692
  H     -3.549078   -0.122290    2.596748
  O     -1.316381    0.913796    4.115687
  H     -2.019645    0.209747    3.851906
  H     -1.272659    0.896053    5.092289
  O      1.380101    1.432247   -1.166276
  H      2.053535    1.437598   -1.915317
  H      1.750315    0.717270   -0.546429
  O     -2.258660    2.906383    2.554273
  H     -1.548856    2.878562    1.858238
  H     -1.893419    2.291751    3.258968
  O     -1.370543   -1.469444    1.130064
  H     -0.805746   -2.014051    0.514993
  H     -1.744739   -0.744638    0.523066
  O     -0.359322    2.143651    0.739079
  H      0.007066    1.421390    1.354910
  H      0.322611    2.197967    0.013166
  O      4.042056   -1.130713   -1.546385
  H      3.573297   -0.927944   -0.693411
  H      3.491242   -1.880740   -1.922269
  O      2.183224   -0.566956    0.385484
  H      1.792893   -0.330312    1.271421
  H      1.515658   -1.234341    0.004795
  O      0.398739   -2.153847   -0.767860
  H      1.011142   -2.655151   -1.391101
  H      0.020080   -1.433365   -1.375397

----------------------------
CARTESIAN COORDINATES (A.U.)
----------------------------
  NO LB      ZA    FRAG    MASS        X           Y           Z
   0 O     8.0000    0    15.999          5.792940345726525          1.403019609225298         -5.817315923127976
   1 H     1.0000    0     1.008          6.709364924097771          0.076518790614739         -4.729540427563422
   2 H     1.0000    0     1.008          7.123430376205791          2.356206919805846         -6.673550834407695
   3 O     8.0000    0    15.999         -4.181155131582412          1.074365998918249         -0.656118582875860
   4 H     1.0000    0     1.008         -5.742418517536141          1.534639034452913          0.332518100250917
   5 H     1.0000    0     1.008         -2.886664383954345          2.314714203083338          0.025768305562150
   6 O     8.0000    0    15.999         -0.882594701121787         -0.242138168443866         -4.264696144510802
   7 H     1.0000    0     1.008         -2.489084902638653          0.233286691232579         -3.403434561714853
   8 H     1.0000    0     1.008          0.391294252194270          1.010922223424111         -3.555092642866569
   9 O     8.0000    0    15.999          2.440781612929492         -1.826356057746336         -7.908755204036250
  10 H     1.0000    0     1.008          0.915840652995863         -1.271838600460752         -6.962060992451854
  11 H     1.0000    0     1.008          3.715042842293931         -0.501890474182011         -7.437393255547736
  12 O     8.0000    0    15.999          4.158622037161535         -5.323993467237163         -4.874346361753539
  13 H     1.0000    0     1.008          4.471212975330253         -6.916756698117227         -5.756614140254158
  14 H     1.0000    0     1.008          3.474223702691543         -4.098504179663098         -6.219175634137000
  15 O     8.0000    0    15.999         -7.447098888971555          2.236723315810274          2.924670555959770
  16 H     1.0000    0     1.008         -9.161099389699471          2.917771165844823          2.816171929980681
  17 H     1.0000    0     1.008         -6.356452899409575          3.662750340716063          3.672569357707917
  18 O     8.0000    0    15.999          0.788384294441277          0.242665402035230          4.311020890957748
  19 H     1.0000    0     1.008         -0.057383423782653          0.762472369692948          5.934331544792648
  20 H     1.0000    0     1.008         -0.465690880360616         -1.015160879142496          3.582480443725490
  21 O     8.0000    0    15.999         -5.786543622763203         -1.478017170302230          6.001702171193074
  22 H     1.0000    0     1.008         -4.734971500472311         -2.409795773511585          4.753968917296621
  23 H     1.0000    0     1.008         -6.706785447924968         -0.231094608917230          4.907142558807742
  24 O     8.0000    0    15.999         -2.487599577897391          1.726824182272704          7.777521282939955
  25 H     1.0000    0     1.008         -3.816575937743387          0.396364387411581          7.279047433608073
  26 H     1.0000    0     1.008         -2.404976971870086          1.693294771478539          9.623031604779717
  27 O     8.0000    0    15.999          2.608012927150853          2.706554586130311         -2.203942236565142
  28 H     1.0000    0     1.008          3.880618756421978          2.716666510672924         -3.619424589643650
  29 H     1.0000    0     1.008          3.307615998094376          1.355443864077696         -1.032601161632456
  30 O     8.0000    0    15.999         -4.268248829642574          5.492267910284449          4.826876441269436
  31 H     1.0000    0     1.008         -2.926913660880734          5.439693839512626          3.511560911645559
  32 H     1.0000    0     1.008         -3.578043366763042          4.330781757140163          6.158556999213073
  33 O     8.0000    0    15.999         -2.589950924762834         -2.776846729133780          2.135511473803585
  34 H     1.0000    0     1.008         -1.522639273502513         -3.806004809750231          0.973195730886507
  35 H     1.0000    0     1.008         -3.297078885171631         -1.407161888910853          0.988451489965653
  36 O     8.0000    0    15.999         -0.679020173892852          4.050913316706425          1.396656901332385
  37 H     1.0000    0     1.008          0.013352804862288          2.686037829494328          2.560408836111243
  38 H     1.0000    0     1.008          0.609646437790469          4.153555681396491          0.024880134279207
  39 O     8.0000    0    15.999          7.638378857973198         -2.136737906064500         -2.922244147603815
  40 H     1.0000    0     1.008          6.752552725162407         -1.753560027615422         -1.310356888248469
  41 H     1.0000    0     1.008          6.597491247243499         -3.554083529111055         -3.632561965726671
  42 O     8.0000    0    15.999          4.125695449004091         -1.071391569983457          0.728459189008500
  43 H     1.0000    0     1.008          3.388076757424475         -0.624199218747796          2.402637490916292
  44 H     1.0000    0     1.008          2.864178532686816         -2.332566445870492          0.009061236812152
  45 O     8.0000    0    15.999          0.753507508913626         -4.070180964367886         -1.451045109192772
  46 H     1.0000    0     1.008          1.910781462505402         -5.017508234207146         -2.628799914623987
  47 H     1.0000    0     1.008          0.037945700769139         -2.708667299948035         -2.599123655416888

--------------------------------
INTERNAL COORDINATES (ANGSTROEM)
--------------------------------
 O      0   0   0   0.000000     0.000     0.000
 H      1   0   0   1.029205     0.000     0.000
 H      1   2   0   0.977462   105.772     0.000
 O      1   2   3   5.945384    98.130   198.023
 H      4   1   2   1.007773   163.577   116.556
 H      4   1   2   1.015019    62.952    89.254
 O      4   1   2   2.679305    26.083   264.552
 H      7   4   1   0.996851    18.726   219.375
 H      7   4   1   1.017410    89.951   355.809
 O      1   2   3   2.700357    96.150   131.891
 H     10   1   2   0.994116    98.042   106.948
 H     10   1   2   1.004062    10.023   223.172
 O     10   1   2   2.613518    88.159     6.629
 H     13  10   1   0.977619   112.086   226.093
 H     13  10   1   1.028674     6.295   220.019
 O      5   4   1   1.683259   156.311   287.797
 H     16   5   4   0.977675   122.052   168.083
 H     16   5   4   1.029167   100.060    52.128
 O      6   4   1   3.182233   116.293   270.264
 H     19   6   4   1.006920   104.014   265.206
 H     19   6   4   1.015910    63.648     2.135
 O     16   5   4   2.699575    98.996   313.450
 H     22  16   5   0.994354    98.206   354.326
 H     22  16   5   1.004004    10.129   239.259
 O     20  19   6   1.692811   155.724    18.489
 H     25  20  19   1.029488    99.507    51.515
 H     25  20  19   0.977741   122.417   167.333
 O      9   7   4   1.640843   172.268    95.903
 H     28   9   7   1.007276    99.023    97.168
 H     28   9   7   1.016101    98.135   353.201
 O     18  16   5   1.591069   169.507   302.673
 H     31  18  16   0.994515   102.121    57.423
 H     31  18  16   1.003877    98.606   312.686
 O     21  19   6   1.648940   172.729     7.642
 H     34  21  19   0.996948   102.071    96.741
 H     34  21  19   1.016766    97.186   351.456
 O      6   4   1   1.653830   172.701   265.332
 H     37   6   4   1.017423    97.210     6.084
 H     37   6   4   0.997463   101.184   111.413
 O      2   1   3   1.589990   169.898   182.502
 H     40   2   1   0.994191   102.712   304.966
 H     40   2   1   1.003606    98.947    49.953
 O     30  28   9   1.644721   172.293   354.444
 H     43  30  28   0.996616   102.427   261.547
 H     43  30  28   1.017827    97.321     7.039
 O     45  43  30   1.640120   172.077    10.037
 H     46  45  43   1.007359    99.001    91.690
 H     46  45  43   1.015666    97.931   348.021

---------------------------
INTERNAL COORDINATES (A.U.)
---------------------------
 O      0   0   0   0.000000     0.000     0.000
 H      1   0   0   1.944915     0.000     0.000
 H      1   2   0   1.847135   105.772     0.000
 O      1   2   3  11.235148    98.130   198.023
 H      4   1   2   1.904415   163.577   116.556
 H      4   1   2   1.918108    62.952    89.254
 O      4   1   2   5.063153    26.083   264.552
 H      7   4   1   1.883776    18.726   219.375
 H      7   4   1   1.922626    89.951   355.809
 O      1   2   3   5.102936    96.150   131.891
 H     10   1   2   1.878607    98.042   106.948
 H     10   1   2   1.897402    10.023   223.172
 O     10   1   2   4.938834    88.159     6.629
 H     13  10   1   1.847432   112.086   226.093
 H     13  10   1   1.943911     6.295   220.019
 O      5   4   1   3.180898   156.311   287.797
 H     16   5   4   1.847538   122.052   168.083
 H     16   5   4   1.944843   100.060    52.128
 O      6   4   1   6.013548   116.293   270.264
 H     19   6   4   1.902803   104.014   265.206
 H     19   6   4   1.919792    63.648     2.135
 O     16   5   4   5.101457    98.996   313.450
 H     22  16   5   1.879057    98.206   354.326
 H     22  16   5   1.897293    10.129   239.259
 O     20  19   6   3.198949   155.724    18.489
 H     25  20  19   1.945450    99.507    51.515
 H     25  20  19   1.847663   122.417   167.333
 O      9   7   4   3.100745   172.268    95.903
 H     28   9   7   1.903475    99.023    97.168
 H     28   9   7   1.920152    98.135   353.201
 O     18  16   5   3.006685   169.507   302.673
 H     31  18  16   1.879361   102.121    57.423
 H     31  18  16   1.897052    98.606   312.686
 O     21  19   6   3.116045   172.729     7.642
 H     34  21  19   1.883958   102.071    96.741
 H     34  21  19   1.921409    97.186   351.456
 O      6   4   1   3.125287   172.701   265.332
 H     37   6   4   1.922650    97.210     6.084
 H     37   6   4   1.884932   101.184   111.413
 O      2   1   3   3.004645   169.898   182.502
 H     40   2   1   1.878748   102.712   304.966
 H     40   2   1   1.896541    98.947    49.953
 O     30  28   9   3.108073   172.293   354.444
 H     43  30  28   1.883331   102.427   261.547
 H     43  30  28   1.923414    97.321     7.039
 O     45  43  30   3.099378   172.077    10.037
 H     46  45  43   1.903633    99.001    91.690
 H     46  45  43   1.919331    97.931   348.021

---------------------
BASIS SET INFORMATION
---------------------
There are 2 groups of distinct atoms

 Group   1 Type O   : 11s6p2d1f contracted to 5s3p2d1f pattern {62111/411/11/1}
 Group   2 Type H   : 5s1p contracted to 3s1p pattern {311/1}

Atom   0O    basis set group =>   1
Atom   1H    basis set group =>   2
Atom   2H    basis set group =>   2
Atom   3O    basis set group =>   1
Atom   4H    basis set group =>   2
Atom   5H    basis set group =>   2
Atom   6O    basis set group =>   1
Atom   7H    basis set group =>   2
Atom   8H    basis set group =>   2
Atom   9O    basis set group =>   1
Atom  10H    basis set group =>   2
Atom  11H    basis set group =>   2
Atom  12O    basis set group =>   1
Atom  13H    basis set group =>   2
Atom  14H    basis set group =>   2
Atom  15O    basis set group =>   1
Atom  16H    basis set group =>   2
Atom  17H    basis set group =>   2
Atom  18O    basis set group =>   1
Atom  19H    basis set group =>   2
Atom  20H    basis set group =>   2
Atom  21O    basis set group =>   1
Atom  22H    basis set group =>   2
Atom  23H    basis set group =>   2
Atom  24O    basis set group =>   1
Atom  25H    basis set group =>   2
Atom  26H    basis set group =>   2
Atom  27O    basis set group =>   1
Atom  28H    basis set group =>   2
Atom  29H    basis set group =>   2
Atom  30O    basis set group =>   1
Atom  31H    basis set group =>   2
Atom  32H    basis set group =>   2
Atom  33O    basis set group =>   1
Atom  34H    basis set group =>   2
Atom  35H    basis set group =>   2
Atom  36O    basis set group =>   1
Atom  37H    basis set group =>   2
Atom  38H    basis set group =>   2
Atom  39O    basis set group =>   1
Atom  40H    basis set group =>   2
Atom  41H    basis set group =>   2
Atom  42O    basis set group =>   1
Atom  43H    basis set group =>   2
Atom  44H    basis set group =>   2
Atom  45O    basis set group =>   1
Atom  46H    basis set group =>   2
Atom  47H    basis set group =>   2
-------------------------------
AUXILIARY BASIS SET INFORMATION
-------------------------------
There are 2 groups of distinct atoms

 Group   1 Type O   : 12s5p4d2f1g contracted to 6s4p3d1f1g pattern {711111/2111/211/2/1}
 Group   2 Type H   : 5s2p1d contracted to 3s1p1d pattern {311/2/1}

Atom   0O    basis set group =>   1
Atom   1H    basis set group =>   2
Atom   2H    basis set group =>   2
Atom   3O    basis set group =>   1
Atom   4H    basis set group =>   2
Atom   5H    basis set group =>   2
Atom   6O    basis set group =>   1
Atom   7H    basis set group =>   2
Atom   8H    basis set group =>   2
Atom   9O    basis set group =>   1
Atom  10H    basis set group =>   2
Atom  11H    basis set group =>   2
Atom  12O    basis set group =>   1
Atom  13H    basis set group =>   2
Atom  14H    basis set group =>   2
Atom  15O    basis set group =>   1
Atom  16H    basis set group =>   2
Atom  17H    basis set group =>   2
Atom  18O    basis set group =>   1
Atom  19H    basis set group =>   2
Atom  20H    basis set group =>   2
Atom  21O    basis set group =>   1
Atom  22H    basis set group =>   2
Atom  23H    basis set group =>   2
Atom  24O    basis set group =>   1
Atom  25H    basis set group =>   2
Atom  26H    basis set group =>   2
Atom  27O    basis set group =>   1
Atom  28H    basis set group =>   2
Atom  29H    basis set group =>   2
Atom  30O    basis set group =>   1
Atom  31H    basis set group =>   2
Atom  32H    basis set group =>   2
Atom  33O    basis set group =>   1
Atom  34H    basis set group =>   2
Atom  35H    basis set group =>   2
Atom  36O    basis set group =>   1
Atom  37H    basis set group =>   2
Atom  38H    basis set group =>   2
Atom  39O    basis set group =>   1
Atom  40H    basis set group =>   2
Atom  41H    basis set group =>   2
Atom  42O    basis set group =>   1
Atom  43H    basis set group =>   2
Atom  44H    basis set group =>   2
Atom  45O    basis set group =>   1
Atom  46H    basis set group =>   2
Atom  47H    basis set group =>   2
smp-n52.crc.pitt.edu.109179hfi_wait_for_device: The /dev/hfi1_0 device failed to appear after 15.0 seconds: Connection timed out
smp-n52.crc.pitt.edu.109181hfi_wait_for_device: The /dev/hfi1_0 device failed to appear after 15.0 seconds: Connection timed out
smp-n52.crc.pitt.edu.109186hfi_wait_for_device: The /dev/hfi1_0 device failed to appear after 15.0 seconds: Connection timed out
smp-n52.crc.pitt.edu.109180hfi_wait_for_device: The /dev/hfi1_0 device failed to appear after 15.0 seconds: Connection timed out
smp-n52.crc.pitt.edu.109182hfi_wait_for_device: The /dev/hfi1_0 device failed to appear after 15.0 seconds: Connection timed out
smp-n52.crc.pitt.edu.109184hfi_wait_for_device: The /dev/hfi1_0 device failed to appear after 15.0 seconds: Connection timed out
smp-n52.crc.pitt.edu.109188hfi_wait_for_device: The /dev/hfi1_0 device failed to appear after 15.0 seconds: Connection timed out
smp-n52.crc.pitt.edu.109190hfi_wait_for_device: The /dev/hfi1_0 device failed to appear after 15.0 seconds: Connection timed out
smp-n52.crc.pitt.edu.109194hfi_wait_for_device: The /dev/hfi1_0 device failed to appear after 15.0 seconds: Connection timed out
smp-n52.crc.pitt.edu.109192hfi_wait_for_device: The /dev/hfi1_0 device failed to appear after 15.0 seconds: Connection timed out
smp-n52.crc.pitt.edu.109183hfi_wait_for_device: The /dev/hfi1_0 device failed to appear after 15.0 seconds: Connection timed out
smp-n52.crc.pitt.edu.109196hfi_wait_for_device: The /dev/hfi1_0 device failed to appear after 15.0 seconds: Connection timed out


           ************************************************************
           *        Program running with 12 parallel MPI-processes    *
           *              working on a common directory               *
           ************************************************************
------------------------------------------------------------------------------
                           ORCA GTO INTEGRAL CALCULATION
                           -- RI-GTO INTEGRALS CHOSEN --
------------------------------------------------------------------------------

                         BASIS SET STATISTICS AND STARTUP INFO

Gaussian basis set:
 # of primitive gaussian shells          ...  512
 # of primitive gaussian functions       ...  992
 # of contracted shells                  ...  304
 # of contracted basis functions         ...  688
 Highest angular momentum                ...    3
 Maximum contraction depth               ...    6
Auxiliary gaussian basis set:
 # of primitive gaussian shells          ...  640
 # of primitive gaussian functions       ... 1632
 # of contracted shells                  ...  400
 # of contracted aux-basis functions     ... 1136
 Highest angular momentum                ...    4
 Maximum contraction depth               ...    7
Ratio of auxiliary to basis functions    ...  1.65
Integral package used                  ... LIBINT
 One Electron integrals                  ... done
 Ordering auxiliary basis shells         ... done
 Integral threshhold             Thresh  ...  2.500e-11
 Primitive cut-off               TCut    ...  2.500e-12
 Pre-screening matrix                    ... done
 Shell pair data                         ... 
 Ordering of the shell pairs             ... done (   0.005 sec) 30882 of 46360 pairs
 Determination of significant pairs      ... done (   0.000 sec)
 Creation of shell pair data             ... done (   0.003 sec)
 Storage of shell pair data              ... done (   0.004 sec)
 Shell pair data done in (   0.012 sec)
 Computing two index integrals           ... done
 Cholesky decomposition of the V-matrix  ... done


Timings:
 Total evaluation time                   ...   0.623 sec (  0.010 min)
 One electron matrix time                ...   0.203 sec (  0.003 min) = 32.6%
 Schwartz matrix evaluation time         ...   0.313 sec (  0.005 min) = 50.3%
 Two index repulsion integral time       ...   0.035 sec (  0.001 min) =  5.6%
 Cholesky decomposition of V             ...   0.045 sec (  0.001 min) =  7.2%
 Three index repulsion integral time     ...   0.000 sec (  0.000 min) =  0.0%

           ************************************************************
           *              Shut down parallel processing               *
           ************************************************************
smp-n52.crc.pitt.edu.109205hfi_wait_for_device: The /dev/hfi1_0 device failed to appear after 15.0 seconds: Connection timed out
smp-n52.crc.pitt.edu.109207hfi_wait_for_device: The /dev/hfi1_0 device failed to appear after 15.0 seconds: Connection timed out
smp-n52.crc.pitt.edu.109212hfi_wait_for_device: The /dev/hfi1_0 device failed to appear after 15.0 seconds: Connection timed out
smp-n52.crc.pitt.edu.109206hfi_wait_for_device: The /dev/hfi1_0 device failed to appear after 15.0 seconds: Connection timed out
smp-n52.crc.pitt.edu.109208hfi_wait_for_device: The /dev/hfi1_0 device failed to appear after 15.0 seconds: Connection timed out
smp-n52.crc.pitt.edu.109209hfi_wait_for_device: The /dev/hfi1_0 device failed to appear after 15.0 seconds: Connection timed out
smp-n52.crc.pitt.edu.109220hfi_wait_for_device: The /dev/hfi1_0 device failed to appear after 15.0 seconds: Connection timed out
smp-n52.crc.pitt.edu.109214hfi_wait_for_device: The /dev/hfi1_0 device failed to appear after 15.0 seconds: Connection timed out
smp-n52.crc.pitt.edu.109216hfi_wait_for_device: The /dev/hfi1_0 device failed to appear after 15.0 seconds: Connection timed out
smp-n52.crc.pitt.edu.109210hfi_wait_for_device: The /dev/hfi1_0 device failed to appear after 15.0 seconds: Connection timed out
smp-n52.crc.pitt.edu.109218hfi_wait_for_device: The /dev/hfi1_0 device failed to appear after 15.0 seconds: Connection timed out
smp-n52.crc.pitt.edu.109222hfi_wait_for_device: The /dev/hfi1_0 device failed to appear after 15.0 seconds: Connection timed out


           ************************************************************
           *        Program running with 12 parallel MPI-processes    *
           *              working on a common directory               *
           ************************************************************
-------------------------------------------------------------------------------
                                 ORCA SCF
-------------------------------------------------------------------------------

------------
SCF SETTINGS
------------
Hamiltonian:
 Density Functional     Method          .... DFT(GTOs)
 Exchange Functional    Exchange        .... B88
   X-Alpha parameter    XAlpha          ....  0.666667
   Becke's b parameter  XBeta           ....  0.004200
 Correlation Functional Correlation     .... LYP
 LDA part of GGA corr.  LDAOpt          .... VWN-5
 Gradients option       PostSCFGGA      .... off
 Hybrid DFT is turned on
   Fraction HF Exchange ScalHFX         ....  0.200000
   Scaling of DF-GGA-X  ScalDFX         ....  0.720000
   Scaling of DF-GGA-C  ScalDFC         ....  0.810000
   Scaling of DF-LDA-C  ScalLDAC        ....  1.000000
   Perturbative correction              ....  0.000000
   NL short-range parameter             ....  4.800000
 RI-approximation to the Coulomb term is turned on
   Number of auxiliary basis functions  .... 1136
   RIJ-COSX (HFX calculated with COS-X)).... on


General Settings:
 Integral files         IntName         .... 2_B3LYP_SMD_onBP86_SMD_16_waters
 Hartree-Fock type      HFTyp           .... RHF
 Total Charge           Charge          ....    0
 Multiplicity           Mult            ....    1
 Number of Electrons    NEL             ....  160
 Basis Dimension        Dim             ....  688
 Nuclear Repulsion      ENuc            ....   1682.4672621354 Eh

Convergence Acceleration:
 DIIS                   CNVDIIS         .... on
   Start iteration      DIISMaxIt       ....    12
   Startup error        DIISStart       ....  0.200000
   # of expansion vecs  DIISMaxEq       ....     5
   Bias factor          DIISBfac        ....   1.050
   Max. coefficient     DIISMaxC        ....  10.000
 Newton-Raphson         CNVNR           .... off
 SOSCF                  CNVSOSCF        .... on
   Start iteration      SOSCFMaxIt      ....   150
   Startup grad/error   SOSCFStart      ....  0.003300
 Level Shifting         CNVShift        .... on
   Level shift para.    LevelShift      ....    0.2500
   Turn off err/grad.   ShiftErr        ....    0.0010
 Zerner damping         CNVZerner       .... off
 Static damping         CNVDamp         .... on
   Fraction old density DampFac         ....    0.7000
   Max. Damping (<1)    DampMax         ....    0.9800
   Min. Damping (>=0)   DampMin         ....    0.0000
   Turn off err/grad.   DampErr         ....    0.1000
 Fernandez-Rico         CNVRico         .... off

SCF Procedure:
 Maximum # iterations   MaxIter         ....   400
 SCF integral mode      SCFMode         .... Direct
   Integral package                     .... LIBINT
 Reset frequeny         DirectResetFreq ....    20
 Integral Threshold     Thresh          ....  2.500e-11 Eh
 Primitive CutOff       TCut            ....  2.500e-12 Eh

Convergence Tolerance:
 Convergence Check Mode ConvCheckMode   .... Total+1el-Energy
 Energy Change          TolE            ....  1.000e-08 Eh
 1-El. energy change                    ....  1.000e-05 Eh
 Orbital Gradient       TolG            ....  1.000e-05
 Orbital Rotation angle TolX            ....  1.000e-05
 DIIS Error             TolErr          ....  5.000e-07


Diagonalization of the overlap matrix:
Smallest eigenvalue                        ... 1.959e-03
Time for diagonalization                   ...    0.116 sec
Threshold for overlap eigenvalues          ... 1.000e-08
Number of eigenvalues below threshold      ... 0
Time for construction of square roots      ...    0.044 sec
Total time needed                          ...    0.161 sec

-------------------
DFT GRID GENERATION
-------------------

General Integration Accuracy     IntAcc      ...  4.670
Radial Grid Type                 RadialGrid  ... Gauss-Chebyshev
Angular Grid (max. acc.)         AngularGrid ... Lebedev-302
Angular grid pruning method      GridPruning ... 3 (G Style)
Weight generation scheme         WeightScheme... Becke
Basis function cutoff            BFCut       ...    1.0000e-11
Integration weight cutoff        WCut        ...    1.0000e-14
Grids for H and He will be reduced by one unit

# of grid points (after initial pruning)     ... 208000 (   0.0 sec)
# of grid points (after weights+screening)   ... 181210 (   0.8 sec)
nearest neighbour list constructed           ...    0.0 sec
Grid point re-assignment to atoms done       ...    0.0 sec
Grid point division into batches done        ...    0.4 sec
Reduced shell lists constructed in    0.7 sec

Total number of grid points                  ...   181210
Total number of batches                      ...     2854
Average number of points per batch           ...       63
Average number of grid points per atom       ...     3775
Average number of shells per batch           ...   103.08 (33.91%)
Average number of basis functions per batch  ...   198.26 (28.82%)
Average number of large shells per batch     ...    63.69 (61.79%)
Average number of large basis fcns per batch ...   118.85 (59.95%)
Maximum spatial batch extension              ...  13.80, 13.17, 13.36 au
Average spatial batch extension              ...   0.17,  0.18,  0.17 au

Time for grid setup =    1.679 sec

------------------------------
INITIAL GUESS: MODEL POTENTIAL
------------------------------
Loading Hartree-Fock densities                     ... done
Calculating cut-offs                               ... done
Setting up the integral package                    ... done
Initializing the effective Hamiltonian             ... done
Starting the Coulomb interaction                   ... done (   0.2 sec)
Reading the grid                                   ... done
Mapping shells                                     ... done
Starting the XC term evaluation                    ... done (   0.5 sec)
  promolecular density results
     # of electrons  =    159.984753112
     EX              =   -140.681260572
     EC              =     -5.574204838
     EX+EC           =   -146.255465410
Transforming the Hamiltonian                       ... done (   0.0 sec)
Diagonalizing the Hamiltonian                      ... done (   0.1 sec)
Back transforming the eigenvectors                 ... done (   0.0 sec)
Now organizing SCF variables                       ... done
                      ------------------
                      INITIAL GUESS DONE (   2.6 sec)
                      ------------------
--------------------
COSX GRID GENERATION
--------------------

General Integration Accuracy     IntAcc      ...  3.340
Radial Grid Type                 RadialGrid  ... Gauss-Chebyshev
Angular Grid (max. acc.)         AngularGrid ... Lebedev-50
Angular grid pruning method      GridPruning ... 3 (G Style)
Weight generation scheme         WeightScheme... Becke
Basis function cutoff            BFCut       ...    1.0000e-11
Integration weight cutoff        WCut        ...    1.0000e-14
Grids for H and He will be reduced by one unit

# of grid points (after initial pruning)     ...  19520 (   0.0 sec)
# of grid points (after weights+screening)   ...  17301 (   0.1 sec)
nearest neighbour list constructed           ...    0.0 sec
Grid point re-assignment to atoms done       ...    0.0 sec
Grid point division into batches done        ...    0.0 sec
Reduced shell lists constructed in    0.0 sec

Total number of grid points                  ...    17301
Total number of batches                      ...      289
Average number of points per batch           ...       59
Average number of grid points per atom       ...      360
Average number of shells per batch           ...   122.19 (40.19%)
Average number of basis functions per batch  ...   243.42 (35.38%)
Average number of large shells per batch     ...    76.31 (62.45%)
Average number of large basis fcns per batch ...   145.31 (59.69%)
Maximum spatial batch extension              ...  13.75, 15.32, 14.87 au
Average spatial batch extension              ...   0.36,  0.34,  0.34 au

Overlap Fitting                  UseSFitting ... on
Constructing numerical overlap ... done (      0.0 sec)
Inverting numerical overlap    ... done (      0.0 sec)
Obtaining analytic overlap     ... done (      0.0 sec)
Final contraction and storage  ... done (      0.0 sec)


General Integration Accuracy     IntAcc      ...  3.670
Radial Grid Type                 RadialGrid  ... Gauss-Chebyshev
Angular Grid (max. acc.)         AngularGrid ... Lebedev-50
Angular grid pruning method      GridPruning ... 3 (G Style)
Weight generation scheme         WeightScheme... Becke
Basis function cutoff            BFCut       ...    1.0000e-11
Integration weight cutoff        WCut        ...    1.0000e-14
Grids for H and He will be reduced by one unit

# of grid points (after initial pruning)     ...  25632 (   0.0 sec)
# of grid points (after weights+screening)   ...  22662 (   0.0 sec)
nearest neighbour list constructed           ...    0.0 sec
Grid point re-assignment to atoms done       ...    0.0 sec
Grid point division into batches done        ...    0.0 sec
Reduced shell lists constructed in    0.0 sec

Total number of grid points                  ...    22662
Total number of batches                      ...      378
Average number of points per batch           ...       59
Average number of grid points per atom       ...      472
Average number of shells per batch           ...   118.42 (38.96%)
Average number of basis functions per batch  ...   232.79 (33.84%)
Average number of large shells per batch     ...    73.82 (62.33%)
Average number of large basis fcns per batch ...   140.67 (60.43%)
Maximum spatial batch extension              ...  15.44, 15.12, 14.57 au
Average spatial batch extension              ...   0.30,  0.30,  0.31 au

Overlap Fitting                  UseSFitting ... on
Constructing numerical overlap ... done (      0.0 sec)
Inverting numerical overlap    ... done (      0.0 sec)
Obtaining analytic overlap     ... done (      0.0 sec)
Final contraction and storage  ... done (      0.0 sec)


General Integration Accuracy     IntAcc      ...  4.010
Radial Grid Type                 RadialGrid  ... Gauss-Chebyshev
Angular Grid (max. acc.)         AngularGrid ... Lebedev-110
Angular grid pruning method      GridPruning ... 3 (G Style)
Weight generation scheme         WeightScheme... Becke
Basis function cutoff            BFCut       ...    1.0000e-11
Integration weight cutoff        WCut        ...    1.0000e-14
Grids for H and He will be reduced by one unit

# of grid points (after initial pruning)     ...  44128 (   0.0 sec)
# of grid points (after weights+screening)   ...  39344 (   0.1 sec)
nearest neighbour list constructed           ...    0.0 sec
Grid point re-assignment to atoms done       ...    0.0 sec
Grid point division into batches done        ...    0.0 sec
Reduced shell lists constructed in    0.1 sec

Total number of grid points                  ...    39344
Total number of batches                      ...      637
Average number of points per batch           ...       61
Average number of grid points per atom       ...      820
Average number of shells per batch           ...   114.84 (37.78%)
Average number of basis functions per batch  ...   225.09 (32.72%)
Average number of large shells per batch     ...    70.18 (61.11%)
Average number of large basis fcns per batch ...   132.36 (58.80%)
Maximum spatial batch extension              ...  14.52, 15.39, 15.20 au
Average spatial batch extension              ...   0.30,  0.29,  0.29 au

Overlap Fitting                  UseSFitting ... on
Constructing numerical overlap ... done (      0.0 sec)
Inverting numerical overlap    ... done (      0.0 sec)
Obtaining analytic overlap     ... done (      0.0 sec)
Final contraction and storage  ... done (      0.0 sec)

Time for X-Grid setup             =    0.669 sec

--------------------
COSMO INITIALIZATION
--------------------

Epsilon                                      ...   78.3550
Refractive Index                             ...    1.3300
Potential Evaluation                         ...  ANALYTIC
Technical COSMO parameters:
  rsolv                                      ...    1.3000
  routf                                      ...    0.8500
  disex                                      ...   10.0000
  nppa                                       ... 1082   
  nspa                                       ...   92   
Solvent:                                     ... WATER
Solvent:                                     ... WATER
SMD-CDS solvent descriptors:
  Soln                                       ...    1.3328
  Soln25                                     ...    1.3323
  Sola                                       ...    0.0000
  Solb                                       ...    0.0000
  Solg                                       ...    0.0000
  Solc                                       ...    0.0000
  Solh                                       ...    0.0000
Radii:
 Radius for O  used is    2.8724 Bohr (=   1.5200 Ang.)
 Radius for H  used is    2.2677 Bohr (=   1.2000 Ang.)
Initializing COSMO package            ... done
Setting COSMO radii                   ... done
Setting atoms and making cavity       ...  USING 1082 GRID
done
Cholesky decomposition of A           ... done
--------------
SCF ITERATIONS
--------------
ITER       Energy         Delta-E        Max-DP      RMS-DP      [F,P]     Damp
               ***  Starting incremental Fock matrix formation  ***
  0  -1221.9543026105   0.000000000000 0.05344981  0.00086463  0.3085983 0.7000
  1  -1222.5234165824  -0.569113971849 0.03399165  0.00053195  0.1308908 0.7000
                               ***Turning on DIIS***
  2  -1222.7147747881  -0.191358205703 0.03796137  0.00065349  0.0335212 0.0000
  3  -1223.0407533834  -0.325978595323 0.02123271  0.00033513  0.0736049 0.0000
  4  -1223.1060606937  -0.065307310261 0.00458368  0.00010169  0.0145974 0.0000
  5  -1223.1087999656  -0.002739271890 0.00178676  0.00003505  0.0035089 0.0000
                      *** Initiating the SOSCF procedure ***
                           *** Shutting down DIIS ***
                      *** Re-Reading the Fockian *** 
                      *** Removing any level shift *** 
ITER      Energy       Delta-E        Grad      Rot      Max-DP    RMS-DP
  6  -1223.10892202  -0.0001220504  0.000274  0.000274  0.000589  0.000013
               *** Restarting incremental Fock matrix formation ***
  7  -1223.10895612  -0.0000341019  0.000082  0.000193  0.000369  0.000007
  8  -1223.10895687  -0.0000007480  0.000090  0.000081  0.000160  0.000002
  9  -1223.10895750  -0.0000006382  0.000022  0.000056  0.000075  0.000002
 10  -1223.10895763  -0.0000001244  0.000010  0.000009  0.000028  0.000000
 11  -1223.10895770  -0.0000000714  0.000011  0.000011  0.000017  0.000000
                  ***Gradient check signals convergence***
              ***Rediagonalizing the Fockian in SOSCF/NRSCF***

               *****************************************************
               *                     SUCCESS                       *
               *           SCF CONVERGED AFTER  12 CYCLES          *
               *****************************************************

Setting up the final grid:

General Integration Accuracy     IntAcc      ...  5.010
Radial Grid Type                 RadialGrid  ... Gauss-Chebyshev
Angular Grid (max. acc.)         AngularGrid ... Lebedev-434
Angular grid pruning method      GridPruning ... 3 (G Style)
Weight generation scheme         WeightScheme... Becke
Basis function cutoff            BFCut       ...    1.0000e-11
Integration weight cutoff        WCut        ...    1.0000e-14
Grids for H and He will be reduced by one unit

# of grid points (after initial pruning)     ... 387616 (   0.0 sec)
# of grid points (after weights+screening)   ... 336596 (   1.5 sec)
nearest neighbour list constructed           ...    0.0 sec
Grid point re-assignment to atoms done       ...    0.0 sec
Grid point division into batches done        ...    1.5 sec
Reduced shell lists constructed in    1.9 sec

Total number of grid points                  ...   336596
Total number of batches                      ...     5286
Average number of points per batch           ...       63
Average number of grid points per atom       ...     7012
Average number of shells per batch           ...    99.46 (32.72%)
Average number of basis functions per batch  ...   189.16 (27.49%)
Average number of large shells per batch     ...    61.50 (61.84%)
Average number of large basis fcns per batch ...   114.57 (60.57%)
Maximum spatial batch extension              ...  12.29, 19.00, 13.35 au
Average spatial batch extension              ...   0.14,  0.15,  0.14 au

Final grid set up in    3.8 sec
Final integration                            ... done (   0.8 sec)
Change in XC energy                          ...     0.000139206
Integrated number of electrons               ...   160.000181875
Previous integrated no of electrons          ...   160.001042932
Old exchange energy                            =    -28.553648838 Eh
New exchange energy                            =    -28.552488535 Eh
Exchange energy change after final integration =      0.001160303 Eh
Total energy after final integration           =  -1223.107658171 Eh
Final COS-X integration done in                =     7.051 sec
   2.56385350433058        1.55776733845442       -4.25907435837970     
  1.103691603603707E-003  0.134165169442770       8.226364623453960E-003
Total Energy after outlying charge correction =  -1223.112420557 Eh

SMD CDS free energy correction energy :                 8.21600     Kcal/mol
Total Energy after SMD CDS correction =             -1223.094565143 Eh

----------------
TOTAL SCF ENERGY
----------------

Total Energy       :        -1223.09456514 Eh          -33282.09515 eV
Total Energy       :        -1223.09456514 Eh          -33282.09515 eV
COSMO(ediel)       :           -0.06030373 Eh              -1.64095 eV
SMD CDS (Gcds)     :            0.01309303 Eh               0.35628 eV

Components:
Nuclear Repulsion  :         1682.46726214 Eh           45782.26173 eV
Electronic Energy  :        -2905.56182728 Eh          -79064.35687 eV

One Electron Energy:        -5039.16231602 Eh         -137122.57780 eV
Two Electron Energy:         2133.60048875 Eh           58058.22092 eV

Virial components:
Potential Energy   :        -2441.00386543 Eh          -66423.09206 eV
Kinetic Energy     :         1217.90930029 Eh           33140.99692 eV
Virial Ratio       :            2.00425751


DFT components:
N(Alpha)           :       80.000090937547 electrons
N(Beta)            :       80.000090937547 electrons
N(Total)           :      160.000181875095 electrons
E(X)               :     -113.829564079963 Eh       
E(C)               :       -6.575803611837 Eh       
E(XC)              :     -120.405367691800 Eh       

---------------
SCF CONVERGENCE
---------------

  Last Energy change         ...    2.0807e-08  Tolerance :   1.0000e-08
  Last MAX-Density change    ...    1.2365e-13  Tolerance :   1.0000e-07
  Last RMS-Density change    ...    4.1371e-16  Tolerance :   5.0000e-09
  Last Orbital Gradient      ...    1.1584e-06  Tolerance :   1.0000e-05
  Last Orbital Rotation      ...    2.0135e-06  Tolerance :   1.0000e-05

             **** THE GBW FILE WAS UPDATED (2_B3LYP_SMD_onBP86_SMD_16_waters.gbw) ****
             **** DENSITY FILE WAS UPDATED (2_B3LYP_SMD_onBP86_SMD_16_waters.scfp.tmp) ****
             **** ENERGY FILE WAS UPDATED (2_B3LYP_SMD_onBP86_SMD_16_waters.en.tmp) ****
----------------
ORBITAL ENERGIES
----------------

  NO   OCC          E(Eh)            E(eV) 
   0   2.0000     -19.132909      -520.6329 
   1   2.0000     -19.132752      -520.6286 
   2   2.0000     -19.132542      -520.6229 
   3   2.0000     -19.132450      -520.6204 
   4   2.0000     -19.127393      -520.4828 
   5   2.0000     -19.127263      -520.4793 
   6   2.0000     -19.127154      -520.4763 
   7   2.0000     -19.127104      -520.4750 
   8   2.0000     -19.124317      -520.3991 
   9   2.0000     -19.124121      -520.3938 
  10   2.0000     -19.124111      -520.3935 
  11   2.0000     -19.124074      -520.3925 
  12   2.0000     -19.124068      -520.3924 
  13   2.0000     -19.124028      -520.3913 
  14   2.0000     -19.123904      -520.3879 
  15   2.0000     -19.123886      -520.3874 
  16   2.0000      -1.036998       -28.2181 
  17   2.0000      -1.029277       -28.0080 
  18   2.0000      -1.019111       -27.7314 
  19   2.0000      -1.017055       -27.6755 
  20   2.0000      -1.017024       -27.6746 
  21   2.0000      -1.010322       -27.4922 
  22   2.0000      -1.009735       -27.4763 
  23   2.0000      -1.009674       -27.4746 
  24   2.0000      -0.998837       -27.1797 
  25   2.0000      -0.998824       -27.1794 
  26   2.0000      -0.995761       -27.0960 
  27   2.0000      -0.990028       -26.9400 
  28   2.0000      -0.989913       -26.9369 
  29   2.0000      -0.989892       -26.9363 
  30   2.0000      -0.980272       -26.6746 
  31   2.0000      -0.970519       -26.4092 
  32   2.0000      -0.544559       -14.8182 
  33   2.0000      -0.541896       -14.7457 
  34   2.0000      -0.541499       -14.7349 
  35   2.0000      -0.541350       -14.7309 
  36   2.0000      -0.538165       -14.6442 
  37   2.0000      -0.531979       -14.4759 
  38   2.0000      -0.530569       -14.4375 
  39   2.0000      -0.530415       -14.4333 
  40   2.0000      -0.523182       -14.2365 
  41   2.0000      -0.522075       -14.2064 
  42   2.0000      -0.519292       -14.1307 
  43   2.0000      -0.517122       -14.0716 
  44   2.0000      -0.517020       -14.0688 
  45   2.0000      -0.516527       -14.0554 
  46   2.0000      -0.511975       -13.9316 
  47   2.0000      -0.511881       -13.9290 
  48   2.0000      -0.468896       -12.7593 
  49   2.0000      -0.458285       -12.4706 
  50   2.0000      -0.435007       -11.8371 
  51   2.0000      -0.434737       -11.8298 
  52   2.0000      -0.430432       -11.7127 
  53   2.0000      -0.422086       -11.4855 
  54   2.0000      -0.421729       -11.4758 
  55   2.0000      -0.417718       -11.3667 
  56   2.0000      -0.400527       -10.8989 
  57   2.0000      -0.400130       -10.8881 
  58   2.0000      -0.399904       -10.8819 
  59   2.0000      -0.397770       -10.8239 
  60   2.0000      -0.379855       -10.3364 
  61   2.0000      -0.379551       -10.3281 
  62   2.0000      -0.368698       -10.0328 
  63   2.0000      -0.351277        -9.5587 
  64   2.0000      -0.330018        -8.9802 
  65   2.0000      -0.329486        -8.9658 
  66   2.0000      -0.329415        -8.9638 
  67   2.0000      -0.326160        -8.8753 
  68   2.0000      -0.324163        -8.8209 
  69   2.0000      -0.324105        -8.8193 
  70   2.0000      -0.322533        -8.7766 
  71   2.0000      -0.322041        -8.7632 
  72   2.0000      -0.321975        -8.7614 
  73   2.0000      -0.319953        -8.7064 
  74   2.0000      -0.319605        -8.6969 
  75   2.0000      -0.317312        -8.6345 
  76   2.0000      -0.316931        -8.6241 
  77   2.0000      -0.316821        -8.6211 
  78   2.0000      -0.313507        -8.5310 
  79   2.0000      -0.312747        -8.5103 
  80   0.0000       0.013115         0.3569 
  81   0.0000       0.031597         0.8598 
  82   0.0000       0.058069         1.5801 
  83   0.0000       0.058142         1.5821 
  84   0.0000       0.066947         1.8217 
  85   0.0000       0.085324         2.3218 
  86   0.0000       0.085464         2.3256 
  87   0.0000       0.104545         2.8448 
  88   0.0000       0.124938         3.3997 
  89   0.0000       0.125154         3.4056 
  90   0.0000       0.128841         3.5059 
  91   0.0000       0.133967         3.6454 
  92   0.0000       0.157030         4.2730 
  93   0.0000       0.169968         4.6251 
  94   0.0000       0.170047         4.6272 
  95   0.0000       0.183322         4.9884 
  96   0.0000       0.186522         5.0755 
  97   0.0000       0.196535         5.3480 
  98   0.0000       0.202906         5.5213 
  99   0.0000       0.204411         5.5623 
 100   0.0000       0.210717         5.7339 
 101   0.0000       0.211669         5.7598 
 102   0.0000       0.213835         5.8187 
 103   0.0000       0.214090         5.8257 
 104   0.0000       0.224626         6.1124 
 105   0.0000       0.224796         6.1170 
 106   0.0000       0.227429         6.1887 
 107   0.0000       0.230179         6.2635 
 108   0.0000       0.237278         6.4567 
 109   0.0000       0.237872         6.4728 
 110   0.0000       0.250905         6.8275 
 111   0.0000       0.251900         6.8546 
 112   0.0000       0.265229         7.2173 
 113   0.0000       0.271053         7.3757 
 114   0.0000       0.277833         7.5602 
 115   0.0000       0.277877         7.5614 
 116   0.0000       0.281424         7.6579 
 117   0.0000       0.289486         7.8773 
 118   0.0000       0.316834         8.6215 
 119   0.0000       0.321258         8.7419 
 120   0.0000       0.326563         8.8862 
 121   0.0000       0.327034         8.8990 
 122   0.0000       0.329471         8.9653 
 123   0.0000       0.333667         9.0795 
 124   0.0000       0.335086         9.1182 
 125   0.0000       0.338664         9.2155 
 126   0.0000       0.343710         9.3528 
 127   0.0000       0.344025         9.3614 
 128   0.0000       0.358358         9.7514 
 129   0.0000       0.358507         9.7555 
 130   0.0000       0.362275         9.8580 
 131   0.0000       0.362460         9.8630 
 132   0.0000       0.376487        10.2447 
 133   0.0000       0.376552        10.2465 
 134   0.0000       0.388334        10.5671 
 135   0.0000       0.388685        10.5767 
 136   0.0000       0.391643        10.6572 
 137   0.0000       0.395305        10.7568 
 138   0.0000       0.408154        11.1064 
 139   0.0000       0.421703        11.4751 
 140   0.0000       0.421818        11.4782 
 141   0.0000       0.435145        11.8409 
 142   0.0000       0.457356        12.4453 
 143   0.0000       0.472422        12.8553 
 144   0.0000       0.472528        12.8581 
 145   0.0000       0.484385        13.1808 
 146   0.0000       0.484800        13.1921 
 147   0.0000       0.511003        13.9051 
 148   0.0000       0.511716        13.9245 
 149   0.0000       0.516440        14.0531 
 150   0.0000       0.519926        14.1479 
 151   0.0000       0.536908        14.6100 
 152   0.0000       0.542083        14.7508 
 153   0.0000       0.542160        14.7529 
 154   0.0000       0.542318        14.7572 
 155   0.0000       0.567186        15.4339 
 156   0.0000       0.569801        15.5051 
 157   0.0000       0.575688        15.6653 
 158   0.0000       0.581092        15.8123 
 159   0.0000       0.595745        16.2111 
 160   0.0000       0.595973        16.2172 
 161   0.0000       0.605757        16.4835 
 162   0.0000       0.605926        16.4881 
 163   0.0000       0.608475        16.5574 
 164   0.0000       0.616368        16.7722 
 165   0.0000       0.643052        17.4983 
 166   0.0000       0.643669        17.5151 
 167   0.0000       0.651134        17.7183 
 168   0.0000       0.651538        17.7292 
 169   0.0000       0.659042        17.9334 
 170   0.0000       0.663453        18.0535 
 171   0.0000       0.665310        18.1040 
 172   0.0000       0.666657        18.1407 
 173   0.0000       0.668745        18.1975 
 174   0.0000       0.681234        18.5373 
 175   0.0000       0.682136        18.5619 
 176   0.0000       0.682798        18.5799 
 177   0.0000       0.686738        18.6871 
 178   0.0000       0.698909        19.0183 
 179   0.0000       0.729366        19.8471 
 180   0.0000       0.734243        19.9798 
 181   0.0000       0.750873        20.4323 
 182   0.0000       0.751489        20.4491 
 183   0.0000       0.759624        20.6704 
 184   0.0000       0.763804        20.7842 
 185   0.0000       0.801052        21.7977 
 186   0.0000       0.817621        22.2486 
 187   0.0000       0.824925        22.4473 
 188   0.0000       0.825368        22.4594 
 189   0.0000       0.853770        23.2323 
 190   0.0000       0.855030        23.2666 
 191   0.0000       0.863227        23.4896 
 192   0.0000       0.871884        23.7252 
 193   0.0000       0.879660        23.9368 
 194   0.0000       0.879926        23.9440 
 195   0.0000       0.909750        24.7556 
 196   0.0000       0.910361        24.7722 
 197   0.0000       0.913335        24.8531 
 198   0.0000       0.914415        24.8825 
 199   0.0000       0.942233        25.6395 
 200   0.0000       0.943270        25.6677 
 201   0.0000       1.003293        27.3010 
 202   0.0000       1.005383        27.3579 
 203   0.0000       1.010772        27.5045 
 204   0.0000       1.012950        27.5638 
 205   0.0000       1.021526        27.7971 
 206   0.0000       1.047554        28.5054 
 207   0.0000       1.112440        30.2710 
 208   0.0000       1.124276        30.5931 
 209   0.0000       1.131516        30.7901 
 210   0.0000       1.132227        30.8095 
 211   0.0000       1.134156        30.8620 
 212   0.0000       1.145866        31.1806 
 213   0.0000       1.156286        31.4641 
 214   0.0000       1.156671        31.4746 
 215   0.0000       1.161046        31.5937 
 216   0.0000       1.171068        31.8664 
 217   0.0000       1.171678        31.8830 
 218   0.0000       1.175208        31.9790 
 219   0.0000       1.179132        32.0858 
 220   0.0000       1.179962        32.1084 
 221   0.0000       1.182734        32.1838 
 222   0.0000       1.187260        32.3070 
 223   0.0000       1.197533        32.5865 
 224   0.0000       1.198802        32.6211 
 225   0.0000       1.209487        32.9118 
 226   0.0000       1.218868        33.1671 
 227   0.0000       1.234959        33.6049 
 228   0.0000       1.272187        34.6180 
 229   0.0000       1.284696        34.9584 
 230   0.0000       1.285353        34.9762 
 231   0.0000       1.286377        35.0041 
 232   0.0000       1.305069        35.5127 
 233   0.0000       1.305947        35.5366 
 234   0.0000       1.321632        35.9634 
 235   0.0000       1.324324        36.0367 
 236   0.0000       1.324911        36.0527 
 237   0.0000       1.338445        36.4210 
 238   0.0000       1.345999        36.6265 
 239   0.0000       1.351361        36.7724 
 240   0.0000       1.351567        36.7780 
 241   0.0000       1.352146        36.7938 
 242   0.0000       1.363085        37.0914 
 243   0.0000       1.364553        37.1314 
 244   0.0000       1.374663        37.4065 
 245   0.0000       1.374899        37.4129 
 246   0.0000       1.383061        37.6350 
 247   0.0000       1.384511        37.6745 
 248   0.0000       1.384695        37.6795 
 249   0.0000       1.388557        37.7846 
 250   0.0000       1.398905        38.0662 
 251   0.0000       1.401499        38.1367 
 252   0.0000       1.404307        38.2131 
 253   0.0000       1.404349        38.2143 
 254   0.0000       1.429724        38.9048 
 255   0.0000       1.443928        39.2913 
 256   0.0000       1.541463        41.9453 
 257   0.0000       1.557466        42.3808 
 258   0.0000       1.578880        42.9635 
 259   0.0000       1.635069        44.4925 
 260   0.0000       1.636391        44.5285 
 261   0.0000       1.642697        44.7001 
 262   0.0000       1.658703        45.1356 
 263   0.0000       1.659197        45.1490 
 264   0.0000       1.662541        45.2400 
 265   0.0000       1.671226        45.4764 
 266   0.0000       1.671739        45.4903 
 267   0.0000       1.677005        45.6336 
 268   0.0000       1.690338        45.9964 
 269   0.0000       1.691579        46.0302 
 270   0.0000       1.692282        46.0493 
 271   0.0000       1.698418        46.2163 
 272   0.0000       1.709542        46.5190 
 273   0.0000       1.710664        46.5495 
 274   0.0000       1.713767        46.6340 
 275   0.0000       1.733880        47.1813 
 276   0.0000       1.741726        47.3948 
 277   0.0000       1.746296        47.5191 
 278   0.0000       1.746440        47.5230 
 279   0.0000       1.752921        47.6994 
 280   0.0000       1.772034        48.2195 
 281   0.0000       1.772978        48.2452 
 282   0.0000       1.777139        48.3584 
 283   0.0000       1.783843        48.5408 
 284   0.0000       1.799112        48.9563 
 285   0.0000       1.799750        48.9737 
 286   0.0000       1.834155        49.9099 
 287   0.0000       1.834866        49.9293 
 288   0.0000       1.849923        50.3390 
 289   0.0000       1.861309        50.6488 
 290   0.0000       1.863481        50.7079 
 291   0.0000       1.878238        51.1094 
 292   0.0000       1.896021        51.5934 
 293   0.0000       1.907060        51.8937 
 294   0.0000       1.908356        51.9290 
 295   0.0000       1.917815        52.1864 
 296   0.0000       1.918884        52.2155 
 297   0.0000       1.934184        52.6318 
 298   0.0000       1.934711        52.6462 
 299   0.0000       1.952736        53.1366 
 300   0.0000       1.954323        53.1798 
 301   0.0000       1.963513        53.4299 
 302   0.0000       1.965551        53.4854 
 303   0.0000       1.992417        54.2164 
 304   0.0000       2.004595        54.5478 
 305   0.0000       2.015803        54.8528 
 306   0.0000       2.021239        55.0007 
 307   0.0000       2.021861        55.0176 
 308   0.0000       2.025633        55.1203 
 309   0.0000       2.043987        55.6197 
 310   0.0000       2.046473        55.6874 
 311   0.0000       2.048306        55.7372 
 312   0.0000       2.058614        56.0177 
 313   0.0000       2.072224        56.3881 
 314   0.0000       2.074039        56.4375 
 315   0.0000       2.078414        56.5565 
 316   0.0000       2.082695        56.6730 
 317   0.0000       2.083425        56.6929 
 318   0.0000       2.084239        56.7150 
 319   0.0000       2.099314        57.1252 
 320   0.0000       2.117923        57.6316 
 321   0.0000       2.136691        58.1423 
 322   0.0000       2.139978        58.2318 
 323   0.0000       2.141142        58.2634 
 324   0.0000       2.145787        58.3898 
 325   0.0000       2.164964        58.9117 
 326   0.0000       2.173691        59.1491 
 327   0.0000       2.173903        59.1549 
 328   0.0000       2.195567        59.7444 
 329   0.0000       2.206509        60.0422 
 330   0.0000       2.207276        60.0630 
 331   0.0000       2.225452        60.5576 
 332   0.0000       2.233196        60.7684 
 333   0.0000       2.234818        60.8125 
 334   0.0000       2.235707        60.8367 
 335   0.0000       2.237076        60.8739 
 336   0.0000       2.251681        61.2713 
 337   0.0000       2.258513        61.4573 
 338   0.0000       2.259198        61.4759 
 339   0.0000       2.267553        61.7032 
 340   0.0000       2.287252        62.2393 
 341   0.0000       2.289863        62.3104 
 342   0.0000       2.292301        62.3767 
 343   0.0000       2.301127        62.6168 
 344   0.0000       2.310492        62.8717 
 345   0.0000       2.319543        63.1180 
 346   0.0000       2.320689        63.1492 
 347   0.0000       2.322448        63.1970 
 348   0.0000       2.335048        63.5399 
 349   0.0000       2.337317        63.6016 
 350   0.0000       2.338458        63.6327 
 351   0.0000       2.342336        63.7382 
 352   0.0000       2.343255        63.7632 
 353   0.0000       2.349784        63.9409 
 354   0.0000       2.353222        64.0344 
 355   0.0000       2.376004        64.6543 
 356   0.0000       2.379855        64.7592 
 357   0.0000       2.380063        64.7648 
 358   0.0000       2.389412        65.0192 
 359   0.0000       2.390078        65.0373 
 360   0.0000       2.391105        65.0653 
 361   0.0000       2.392653        65.1074 
 362   0.0000       2.402540        65.3764 
 363   0.0000       2.408064        65.5268 
 364   0.0000       2.409050        65.5536 
 365   0.0000       2.411853        65.6299 
 366   0.0000       2.412759        65.6545 
 367   0.0000       2.432464        66.1907 
 368   0.0000       2.436844        66.3099 
 369   0.0000       2.437777        66.3353 
 370   0.0000       2.438764        66.3621 
 371   0.0000       2.460451        66.9523 
 372   0.0000       2.461872        66.9910 
 373   0.0000       2.476722        67.3950 
 374   0.0000       2.480774        67.5053 
 375   0.0000       2.482193        67.5439 
 376   0.0000       2.491085        67.7859 
 377   0.0000       2.515464        68.4493 
 378   0.0000       2.517677        68.5095 
 379   0.0000       2.519081        68.5477 
 380   0.0000       2.546399        69.2911 
 381   0.0000       2.567592        69.8677 
 382   0.0000       2.585507        70.3552 
 383   0.0000       2.586103        70.3714 
 384   0.0000       2.601418        70.7882 
 385   0.0000       2.604046        70.8597 
 386   0.0000       2.607239        70.9466 
 387   0.0000       2.607839        70.9629 
 388   0.0000       2.628668        71.5297 
 389   0.0000       2.633592        71.6637 
 390   0.0000       2.634443        71.6868 
 391   0.0000       2.639477        71.8238 
 392   0.0000       2.653365        72.2017 
 393   0.0000       2.656987        72.3003 
 394   0.0000       2.673278        72.7436 
 395   0.0000       2.674581        72.7791 
 396   0.0000       2.676665        72.8358 
 397   0.0000       2.697402        73.4000 
 398   0.0000       2.707420        73.6726 
 399   0.0000       2.708467        73.7011 
 400   0.0000       2.728610        74.2493 
 401   0.0000       2.730821        74.3094 
 402   0.0000       2.744919        74.6930 
 403   0.0000       2.747189        74.7548 
 404   0.0000       2.747668        74.7678 
 405   0.0000       2.773196        75.4625 
 406   0.0000       2.773597        75.4734 
 407   0.0000       2.776059        75.5404 
 408   0.0000       2.781963        75.7011 
 409   0.0000       2.854768        77.6822 
 410   0.0000       2.859861        77.8208 
 411   0.0000       2.861700        77.8708 
 412   0.0000       2.865374        77.9708 
 413   0.0000       2.884597        78.4939 
 414   0.0000       2.885405        78.5159 
 415   0.0000       2.956655        80.4547 
 416   0.0000       2.957706        80.4833 
 417   0.0000       2.964740        80.6747 
 418   0.0000       2.979010        81.0630 
 419   0.0000       2.981211        81.1229 
 420   0.0000       2.986256        81.2601 
 421   0.0000       2.993316        81.4523 
 422   0.0000       3.017323        82.1055 
 423   0.0000       3.017543        82.1115 
 424   0.0000       3.024134        82.2909 
 425   0.0000       3.029813        82.4454 
 426   0.0000       3.039344        82.7048 
 427   0.0000       3.046137        82.8896 
 428   0.0000       3.048047        82.9416 
 429   0.0000       3.049957        82.9936 
 430   0.0000       3.054987        83.1304 
 431   0.0000       3.071490        83.5795 
 432   0.0000       3.072989        83.6203 
 433   0.0000       3.074069        83.6497 
 434   0.0000       3.107724        84.5655 
 435   0.0000       3.127204        85.0956 
 436   0.0000       3.132639        85.2434 
 437   0.0000       3.133615        85.2700 
 438   0.0000       3.140964        85.4700 
 439   0.0000       3.142536        85.5127 
 440   0.0000       3.180709        86.5515 
 441   0.0000       3.182870        86.6103 
 442   0.0000       3.183674        86.6322 
 443   0.0000       3.188993        86.7769 
 444   0.0000       3.193864        86.9095 
 445   0.0000       3.259963        88.7081 
 446   0.0000       3.260955        88.7351 
 447   0.0000       3.286926        89.4418 
 448   0.0000       3.748588       102.0043 
 449   0.0000       3.752895       102.1215 
 450   0.0000       3.764215       102.4295 
 451   0.0000       3.764552       102.4387 
 452   0.0000       3.781895       102.9106 
 453   0.0000       3.785369       103.0051 
 454   0.0000       3.797245       103.3283 
 455   0.0000       3.798196       103.3542 
 456   0.0000       3.801618       103.4473 
 457   0.0000       3.831124       104.2502 
 458   0.0000       3.833358       104.3110 
 459   0.0000       3.859470       105.0215 
 460   0.0000       3.861513       105.0771 
 461   0.0000       3.883207       105.6674 
 462   0.0000       3.885528       105.7306 
 463   0.0000       3.892300       105.9149 
 464   0.0000       3.897359       106.0525 
 465   0.0000       3.908334       106.3512 
 466   0.0000       3.912309       106.4593 
 467   0.0000       3.920560       106.6839 
 468   0.0000       3.938624       107.1754 
 469   0.0000       3.939015       107.1861 
 470   0.0000       3.949236       107.4642 
 471   0.0000       3.990522       108.5876 
 472   0.0000       3.992284       108.6356 
 473   0.0000       3.997468       108.7766 
 474   0.0000       3.997736       108.7839 
 475   0.0000       4.006272       109.0162 
 476   0.0000       4.047499       110.1380 
 477   0.0000       4.076527       110.9279 
 478   0.0000       4.078901       110.9925 
 479   0.0000       4.123436       112.2044 
 480   0.0000       5.088918       138.4765 
 481   0.0000       5.089284       138.4865 
 482   0.0000       5.089418       138.4901 
 483   0.0000       5.089731       138.4986 
 484   0.0000       5.091393       138.5439 
 485   0.0000       5.091725       138.5529 
 486   0.0000       5.092084       138.5627 
 487   0.0000       5.093016       138.5880 
 488   0.0000       5.094678       138.6332 
 489   0.0000       5.094867       138.6384 
 490   0.0000       5.095749       138.6624 
 491   0.0000       5.099293       138.7588 
 492   0.0000       5.109482       139.0361 
 493   0.0000       5.109810       139.0450 
 494   0.0000       5.110394       139.0609 
 495   0.0000       5.113124       139.1352 
 496   0.0000       5.198007       141.4450 
 497   0.0000       5.200417       141.5105 
 498   0.0000       5.206920       141.6875 
 499   0.0000       5.207592       141.7058 
 500   0.0000       5.211503       141.8122 
 501   0.0000       5.213810       141.8750 
 502   0.0000       5.227422       142.2454 
 503   0.0000       5.228218       142.2670 
 504   0.0000       5.233558       142.4124 
 505   0.0000       5.237873       142.5298 
 506   0.0000       5.238912       142.5580 
 507   0.0000       5.239359       142.5702 
 508   0.0000       5.240514       142.6016 
 509   0.0000       5.241752       142.6353 
 510   0.0000       5.246670       142.7691 
 511   0.0000       5.247142       142.7820 
 512   0.0000       5.313627       144.5912 
 513   0.0000       5.313805       144.5960 
 514   0.0000       5.315322       144.6373 
 515   0.0000       5.324576       144.8891 
 516   0.0000       5.332016       145.0915 
 517   0.0000       5.332963       145.1173 
 518   0.0000       5.333216       145.1242 
 519   0.0000       5.333526       145.1326 
 520   0.0000       5.343501       145.4041 
 521   0.0000       5.347765       145.5201 
 522   0.0000       5.349204       145.5592 
 523   0.0000       5.349542       145.5684 
 524   0.0000       5.352445       145.6474 
 525   0.0000       5.352871       145.6590 
 526   0.0000       5.357919       145.7964 
 527   0.0000       5.366273       146.0237 
 528   0.0000       5.372034       146.1805 
 529   0.0000       5.372698       146.1985 
 530   0.0000       5.379090       146.3725 
 531   0.0000       5.384000       146.5061 
 532   0.0000       5.386580       146.5763 
 533   0.0000       5.386694       146.5794 
 534   0.0000       5.395025       146.8061 
 535   0.0000       5.395391       146.8161 
 536   0.0000       5.398060       146.8887 
 537   0.0000       5.402328       147.0048 
 538   0.0000       5.413647       147.3128 
 539   0.0000       5.414750       147.3429 
 540   0.0000       5.415234       147.3560 
 541   0.0000       5.417703       147.4232 
 542   0.0000       5.420518       147.4998 
 543   0.0000       5.423776       147.5885 
 544   0.0000       5.426863       147.6724 
 545   0.0000       5.429353       147.7402 
 546   0.0000       5.429919       147.7556 
 547   0.0000       5.432237       147.8187 
 548   0.0000       5.434718       147.8862 
 549   0.0000       5.440455       148.0423 
 550   0.0000       5.440713       148.0493 
 551   0.0000       5.443048       148.1129 
 552   0.0000       5.446450       148.2054 
 553   0.0000       5.448293       148.2556 
 554   0.0000       5.448566       148.2630 
 555   0.0000       5.449493       148.2882 
 556   0.0000       5.484849       149.2503 
 557   0.0000       5.491765       149.4385 
 558   0.0000       5.493128       149.4756 
 559   0.0000       5.514380       150.0539 
 560   0.0000       5.876888       159.9183 
 561   0.0000       5.889356       160.2575 
 562   0.0000       5.889675       160.2662 
 563   0.0000       5.923471       161.1859 
 564   0.0000       5.931285       161.3985 
 565   0.0000       5.934470       161.4852 
 566   0.0000       5.937110       161.5570 
 567   0.0000       5.937443       161.5660 
 568   0.0000       5.944624       161.7614 
 569   0.0000       5.949122       161.8838 
 570   0.0000       5.949663       161.8986 
 571   0.0000       5.956580       162.0868 
 572   0.0000       5.964039       162.2898 
 573   0.0000       5.979159       162.7012 
 574   0.0000       5.991843       163.0463 
 575   0.0000       5.992123       163.0540 
 576   0.0000       6.076487       165.3496 
 577   0.0000       6.086546       165.6234 
 578   0.0000       6.134307       166.9230 
 579   0.0000       6.149220       167.3288 
 580   0.0000       6.159131       167.5985 
 581   0.0000       6.159977       167.6215 
 582   0.0000       6.188757       168.4046 
 583   0.0000       6.189949       168.4371 
 584   0.0000       6.202603       168.7814 
 585   0.0000       6.241003       169.8263 
 586   0.0000       6.242340       169.8627 
 587   0.0000       6.243057       169.8822 
 588   0.0000       6.282779       170.9631 
 589   0.0000       6.283492       170.9825 
 590   0.0000       6.292954       171.2400 
 591   0.0000       6.295065       171.2974 
 592   0.0000       6.297575       171.3657 
 593   0.0000       6.311700       171.7501 
 594   0.0000       6.328904       172.2182 
 595   0.0000       6.341397       172.5582 
 596   0.0000       6.343083       172.6041 
 597   0.0000       6.355624       172.9453 
 598   0.0000       6.363537       173.1606 
 599   0.0000       6.363694       173.1649 
 600   0.0000       6.369963       173.3355 
 601   0.0000       6.376455       173.5122 
 602   0.0000       6.385519       173.7588 
 603   0.0000       6.386263       173.7790 
 604   0.0000       6.387763       173.8199 
 605   0.0000       6.392540       173.9498 
 606   0.0000       6.393702       173.9815 
 607   0.0000       6.403233       174.2408 
 608   0.0000       6.404097       174.2643 
 609   0.0000       6.404541       174.2764 
 610   0.0000       6.411356       174.4619 
 611   0.0000       6.412540       174.4941 
 612   0.0000       6.426935       174.8858 
 613   0.0000       6.429502       174.9556 
 614   0.0000       6.429917       174.9669 
 615   0.0000       6.430770       174.9902 
 616   0.0000       6.443578       175.3387 
 617   0.0000       6.444645       175.3677 
 618   0.0000       6.469625       176.0475 
 619   0.0000       6.482257       176.3912 
 620   0.0000       6.484863       176.4621 
 621   0.0000       6.490492       176.6153 
 622   0.0000       6.500557       176.8892 
 623   0.0000       6.503947       176.9814 
 624   0.0000       6.527984       177.6355 
 625   0.0000       6.528511       177.6498 
 626   0.0000       6.533014       177.7724 
 627   0.0000       6.561928       178.5591 
 628   0.0000       6.575181       178.9198 
 629   0.0000       6.577057       178.9708 
 630   0.0000       6.611690       179.9132 
 631   0.0000       6.628154       180.3612 
 632   0.0000       6.637588       180.6180 
 633   0.0000       6.637851       180.6251 
 634   0.0000       6.661036       181.2560 
 635   0.0000       6.672669       181.5726 
 636   0.0000       6.761135       183.9798 
 637   0.0000       6.773954       184.3287 
 638   0.0000       6.774174       184.3346 
 639   0.0000       6.779824       184.4884 
 640   0.0000       6.863272       186.7591 
 641   0.0000       6.888024       187.4327 
 642   0.0000       6.905326       187.9035 
 643   0.0000       6.912802       188.1069 
 644   0.0000       6.937530       188.7798 
 645   0.0000       6.938384       188.8030 
 646   0.0000       6.976934       189.8520 
 647   0.0000       6.977436       189.8657 
 648   0.0000       6.984960       190.0704 
 649   0.0000       6.986314       190.1073 
 650   0.0000       7.022826       191.1008 
 651   0.0000       7.023901       191.1301 
 652   0.0000       7.048256       191.7928 
 653   0.0000       7.049585       191.8290 
 654   0.0000       7.074559       192.5085 
 655   0.0000       7.084612       192.7821 
 656   0.0000       7.090088       192.9311 
 657   0.0000       7.094563       193.0529 
 658   0.0000       7.095233       193.0711 
 659   0.0000       7.116655       193.6540 
 660   0.0000       7.122867       193.8231 
 661   0.0000       7.124906       193.8785 
 662   0.0000       7.126411       193.9195 
 663   0.0000       7.151112       194.5917 
 664   0.0000       7.152616       194.6326 
 665   0.0000       7.191611       195.6937 
 666   0.0000       7.204572       196.0464 
 667   0.0000       7.206453       196.0976 
 668   0.0000       7.210271       196.2014 
 669   0.0000       7.228006       196.6840 
 670   0.0000       7.240371       197.0205 
 671   0.0000       7.241271       197.0450 
 672   0.0000      43.417972      1181.4631 
 673   0.0000      43.420959      1181.5444 
 674   0.0000      43.465878      1182.7667 
 675   0.0000      43.466435      1182.7818 
 676   0.0000      43.492708      1183.4968 
[...]
      pz      :     0.044788  p :     0.198391
      px      :     0.078085
      py      :     0.075517
 21 O s       :     3.470099  s :     3.470099
      pz      :     1.617106  p :     4.815650
      px      :     1.621452
      py      :     1.577092
      dz2     :     0.001230  d :     0.028085
      dxz     :     0.009553
      dyz     :     0.010830
      dx2y2   :     0.000741
      dxy     :     0.005730
      f0      :     0.000183  f :     0.001934
      f+1     :     0.000223
      f-1     :     0.000224
      f+2     :     0.000057
      f-2     :     0.000903
      f+3     :     0.000224
      f-3     :     0.000121
 22 H s       :     0.669251  s :     0.669251
      pz      :     0.068925  p :     0.175182
      px      :     0.058073
      py      :     0.048184
 23 H s       :     0.664947  s :     0.664947
      pz      :     0.061749  p :     0.185617
      px      :     0.050645
      py      :     0.073224
 24 O s       :     3.465951  s :     3.465951
      pz      :     1.430142  p :     4.793588
      px      :     1.678975
      py      :     1.684471
      dz2     :     0.013810  d :     0.027921
      dxz     :     0.002538
      dyz     :     0.002437
      dx2y2   :     0.001010
      dxy     :     0.008126
      f0      :     0.001172  f :     0.002022
      f+1     :     0.000081
      f-1     :     0.000070
      f+2     :     0.000036
      f-2     :     0.000201
      f+3     :     0.000232
      f-3     :     0.000229
 25 H s       :     0.644674  s :     0.644674
      pz      :     0.034936  p :     0.204853
      px      :     0.085399
      py      :     0.084518
 26 H s       :     0.655032  s :     0.655032
      pz      :     0.085165  p :     0.157163
      px      :     0.035963
      py      :     0.036035
 27 O s       :     3.474319  s :     3.474319
      pz      :     1.489835  p :     4.811486
      px      :     1.637458
      py      :     1.684193
      dz2     :     0.001272  d :     0.028991
      dxz     :     0.012336
      dyz     :     0.006956
      dx2y2   :     0.003805
      dxy     :     0.004622
      f0      :     0.000131  f :     0.001833
      f+1     :     0.000460
      f-1     :     0.000126
      f+2     :     0.000480
      f-2     :     0.000386
      f+3     :     0.000212
      f-3     :     0.000038
 28 H s       :     0.660533  s :     0.660533
      pz      :     0.079341  p :     0.188652
      px      :     0.075258
      py      :     0.034054
 29 H s       :     0.660869  s :     0.660869
      pz      :     0.066565  p :     0.199091
      px      :     0.043344
      py      :     0.089182
 30 O s       :     3.470344  s :     3.470344
      pz      :     1.457744  p :     4.816448
      px      :     1.615392
      py      :     1.743312
      dz2     :     0.000792  d :     0.028070
      dxz     :     0.012349
      dyz     :     0.006805
      dx2y2   :     0.003591
      dxy     :     0.004533
      f0      :     0.000104  f :     0.001929
      f+1     :     0.000417
      f-1     :     0.000269
      f+2     :     0.000492
      f-2     :     0.000408
      f+3     :     0.000194
      f-3     :     0.000044
 31 H s       :     0.669108  s :     0.669108
      pz      :     0.065186  p :     0.176406
      px      :     0.073881
      py      :     0.037340
 32 H s       :     0.665236  s :     0.665236
      pz      :     0.068779  p :     0.185456
      px      :     0.042612
      py      :     0.074065
 33 O s       :     3.469282  s :     3.469282
      pz      :     1.605716  p :     4.810318
      px      :     1.662140
      py      :     1.542462
      dz2     :     0.000901  d :     0.028392
      dxz     :     0.008626
      dyz     :     0.011881
      dx2y2   :     0.001728
      dxy     :     0.005256
      f0      :     0.000190  f :     0.001867
      f+1     :     0.000149
      f-1     :     0.000213
      f+2     :     0.000185
      f-2     :     0.000793
      f+3     :     0.000246
      f-3     :     0.000091
 34 H s       :     0.664552  s :     0.664552
      pz      :     0.066060  p :     0.178433
      px      :     0.062617
      py      :     0.049756
 35 H s       :     0.659395  s :     0.659395
      pz      :     0.066179  p :     0.199332
      px      :     0.045142
      py      :     0.088011
 36 O s       :     3.469706  s :     3.469706
      pz      :     1.501126  p :     4.810511
      px      :     1.628531
      py      :     1.680855
      dz2     :     0.000980  d :     0.028376
      dxz     :     0.012106
      dyz     :     0.006600
      dx2y2   :     0.004108
      dxy     :     0.004582
      f0      :     0.000151  f :     0.001858
      f+1     :     0.000437
      f-1     :     0.000125
      f+2     :     0.000513
      f-2     :     0.000368
      f+3     :     0.000226
      f-3     :     0.000038
 37 H s       :     0.659189  s :     0.659189
      pz      :     0.066354  p :     0.199268
      px      :     0.042242
      py      :     0.090672
 38 H s       :     0.664252  s :     0.664252
      pz      :     0.072406  p :     0.179047
      px      :     0.071893
      py      :     0.034748
 39 O s       :     3.469783  s :     3.469783
      pz      :     1.487550  p :     4.815802
      px      :     1.736584
      py      :     1.591668
      dz2     :     0.005045  d :     0.028077
      dxz     :     0.009104
      dyz     :     0.004428
      dx2y2   :     0.001759
      dxy     :     0.007741
      f0      :     0.000233  f :     0.001937
      f+1     :     0.000621
      f-1     :     0.000135
      f+2     :     0.000149
      f-2     :     0.000377
      f+3     :     0.000363
      f-3     :     0.000060
 40 H s       :     0.669196  s :     0.669196
      pz      :     0.084624  p :     0.175917
      px      :     0.056677
      py      :     0.034616
 41 H s       :     0.665247  s :     0.665247
      pz      :     0.040236  p :     0.185151
      px      :     0.065618
      py      :     0.079296
 42 O s       :     3.469121  s :     3.469121
      pz      :     1.484105  p :     4.809080
      px      :     1.677898
      py      :     1.647078
      dz2     :     0.005867  d :     0.028434
      dxz     :     0.008947
      dyz     :     0.004355
      dx2y2   :     0.001465
      dxy     :     0.007801
      f0      :     0.000309  f :     0.001871
      f+1     :     0.000521
      f-1     :     0.000186
      f+2     :     0.000078
      f-2     :     0.000383
      f+3     :     0.000189
      f-3     :     0.000205
 43 H s       :     0.664597  s :     0.664597
      pz      :     0.089138  p :     0.178310
      px      :     0.051416
      py      :     0.037756
 44 H s       :     0.658805  s :     0.658805
      pz      :     0.043962  p :     0.199569
      px      :     0.079523
      py      :     0.076084
 45 O s       :     3.474533  s :     3.474533
      pz      :     1.606806  p :     4.811838
      px      :     1.640549
      py      :     1.564483
      dz2     :     0.000841  d :     0.028980
      dxz     :     0.009682
      dyz     :     0.011083
      dx2y2   :     0.002096
      dxy     :     0.005277
      f0      :     0.000188  f :     0.001836
      f+1     :     0.000161
      f-1     :     0.000193
      f+2     :     0.000214
      f-2     :     0.000763
      f+3     :     0.000200
      f-3     :     0.000116
 46 H s       :     0.660403  s :     0.660403
      pz      :     0.071505  p :     0.188901
      px      :     0.070454
      py      :     0.046942
 47 H s       :     0.661442  s :     0.661442
      pz      :     0.066371  p :     0.198558
      px      :     0.045206
      py      :     0.086981


                      *****************************
                      * MAYER POPULATION ANALYSIS *
                      *****************************

  NA   - Mulliken gross atomic population
  ZA   - Total nuclear charge
  QA   - Mulliken gross atomic charge
  VA   - Mayer's total valence
  BVA  - Mayer's bonded valence
  FA   - Mayer's free valence

  ATOM       NA         ZA         QA         VA         BVA        FA
  0 O      8.7534     8.0000    -0.7534     1.7932     1.7932    -0.0000
  1 H      0.6217     1.0000     0.3783     0.9134     0.9134    -0.0000
  2 H      0.6129     1.0000     0.3871     0.8689     0.8689    -0.0000
  3 O      8.7787     8.0000    -0.7787     1.7415     1.7415     0.0000
  4 H      0.6131     1.0000     0.3869     0.9167     0.9167     0.0000
  5 H      0.6352     1.0000     0.3648     0.9276     0.9276     0.0000
  6 O      8.7729     8.0000    -0.7729     1.7598     1.7598     0.0000
  7 H      0.6026     1.0000     0.3974     0.8931     0.8931     0.0000
  8 H      0.6307     1.0000     0.3693     0.9234     0.9234     0.0000
  9 O      8.7450     8.0000    -0.7450     1.7743     1.7743     0.0000
 10 H      0.6118     1.0000     0.3882     0.8928     0.8928     0.0000
 11 H      0.6249     1.0000     0.3751     0.9182     0.9182     0.0000
 12 O      8.7528     8.0000    -0.7528     1.7944     1.7944    -0.0000
 13 H      0.6128     1.0000     0.3872     0.8688     0.8688    -0.0000
 14 H      0.6216     1.0000     0.3784     0.9132     0.9132    -0.0000
 15 O      8.7524     8.0000    -0.7524     1.7950     1.7950     0.0000
 16 H      0.6125     1.0000     0.3875     0.8685     0.8685     0.0000
 17 H      0.6219     1.0000     0.3781     0.9139     0.9139     0.0000
 18 O      8.7782     8.0000    -0.7782     1.7425     1.7425     0.0000
 19 H      0.6132     1.0000     0.3868     0.9161     0.9161     0.0000
 20 H      0.6349     1.0000     0.3651     0.9272     0.9272     0.0000
 21 O      8.7445     8.0000    -0.7445     1.7749     1.7749    -0.0000
 22 H      0.6113     1.0000     0.3887     0.8922     0.8922    -0.0000
 23 H      0.6242     1.0000     0.3758     0.9173     0.9173    -0.0000
 24 O      8.7538     8.0000    -0.7538     1.7937     1.7937     0.0000
 25 H      0.6214     1.0000     0.3786     0.9128     0.9128     0.0000
 26 H      0.6126     1.0000     0.3874     0.8686     0.8686     0.0000
 27 O      8.7783     8.0000    -0.7783     1.7434     1.7434    -0.0000
 28 H      0.6124     1.0000     0.3876     0.9148     0.9148    -0.0000
 29 H      0.6337     1.0000     0.3663     0.9260     0.9260    -0.0000
 30 O      8.7457     8.0000    -0.7457     1.7744     1.7744    -0.0000
 31 H      0.6106     1.0000     0.3894     0.8922     0.8922    -0.0000
 32 H      0.6247     1.0000     0.3753     0.9180     0.9180    -0.0000
 33 O      8.7729     8.0000    -0.7729     1.7594     1.7594    -0.0000
 34 H      0.6024     1.0000     0.3976     0.8931     0.8931    -0.0000
 35 H      0.6306     1.0000     0.3694     0.9232     0.9232    -0.0000
 36 O      8.7740     8.0000    -0.7740     1.7592     1.7592    -0.0000
 37 H      0.6301     1.0000     0.3699     0.9224     0.9224    -0.0000
 38 H      0.6021     1.0000     0.3979     0.8929     0.8929    -0.0000
 39 O      8.7446     8.0000    -0.7446     1.7751     1.7751    -0.0000
 40 H      0.6110     1.0000     0.3890     0.8925     0.8925    -0.0000
 41 H      0.6247     1.0000     0.3753     0.9177     0.9177    -0.0000
 42 O      8.7726     8.0000    -0.7726     1.7599     1.7599     0.0000
 43 H      0.6026     1.0000     0.3974     0.8931     0.8931     0.0000
 44 H      0.6305     1.0000     0.3695     0.9228     0.9228     0.0000
 45 O      8.7775     8.0000    -0.7775     1.7431     1.7431    -0.0000
 46 H      0.6128     1.0000     0.3872     0.9154     0.9154    -0.0000
 47 H      0.6350     1.0000     0.3650     0.9274     0.9274    -0.0000

  Mayer bond orders larger than 0.1
B(  0-O ,  1-H ) :   0.7275 B(  0-O ,  2-H ) :   0.8490 B(  0-O , 11-H ) :   0.1195 
B(  0-O , 28-H ) :   0.1252 B(  1-H , 39-O ) :   0.1740 B(  3-O ,  4-H ) :   0.7708 
B(  3-O ,  5-H ) :   0.7525 B(  3-O , 35-H ) :   0.1588 B(  4-H , 15-O ) :   0.1289 
B(  5-H , 36-O ) :   0.1546 B(  6-O ,  7-H ) :   0.7959 B(  6-O ,  8-H ) :   0.7472 
B(  6-O , 47-H ) :   0.1546 B(  8-H , 27-O ) :   0.1593 B(  9-O , 10-H ) :   0.8131 
B(  9-O , 11-H ) :   0.7897 B(  9-O , 14-H ) :   0.1723 B( 12-O , 13-H ) :   0.8490 
B( 12-O , 14-H ) :   0.7289 B( 12-O , 41-H ) :   0.1187 B( 12-O , 46-H ) :   0.1256 
B( 15-O , 16-H ) :   0.8488 B( 15-O , 17-H ) :   0.7273 B( 15-O , 23-H ) :   0.1188 
B( 17-H , 30-O ) :   0.1745 B( 18-O , 19-H ) :   0.7729 B( 18-O , 20-H ) :   0.7522 
B( 18-O , 37-H ) :   0.1580 B( 19-H , 24-O ) :   0.1260 B( 20-H , 33-O ) :   0.1540 
B( 21-O , 22-H ) :   0.8132 B( 21-O , 23-H ) :   0.7896 B( 21-O , 25-H ) :   0.1730 
B( 24-O , 25-H ) :   0.7277 B( 24-O , 26-H ) :   0.8488 B( 24-O , 32-H ) :   0.1192 
B( 27-O , 28-H ) :   0.7724 B( 27-O , 29-H ) :   0.7510 B( 29-H , 42-O ) :   0.1539 
B( 30-O , 31-H ) :   0.8115 B( 30-O , 32-H ) :   0.7898 B( 33-O , 34-H ) :   0.7960 
B( 33-O , 35-H ) :   0.7479 B( 36-O , 37-H ) :   0.7478 B( 36-O , 38-H ) :   0.7942 
B( 39-O , 40-H ) :   0.8123 B( 39-O , 41-H ) :   0.7902 B( 42-O , 43-H ) :   0.7963 
B( 42-O , 44-H ) :   0.7471 B( 44-H , 45-O ) :   0.1591 B( 45-O , 46-H ) :   0.7727 
B( 45-O , 47-H ) :   0.7521 

-------
TIMINGS
-------

Total SCF time: 0 days 0 hours 1 min 16 sec 

Total time                  ....      76.130 sec
Sum of individual times     ....      79.331 sec  (104.2%)

Fock matrix formation       ....      57.023 sec  ( 74.9%)
  Coulomb formation         ....      51.292 sec  ( 90.0% of F)
  Split-RI-J                ....       5.322 sec  (  9.3% of F)
  Chain of spheres X        ....      45.605 sec  ( 80.0% of F)
  COS-X 1 center corr.      ....       0.000 sec  (  0.0% of F)
  XC integration            ....       5.583 sec  (  9.8% of F)
    Basis function eval.    ....       1.483 sec  ( 26.6% of XC)
    Density eval.           ....       1.374 sec  ( 24.6% of XC)
    XC-Functional eval.     ....       0.163 sec  (  2.9% of XC)
    XC-Potential eval.      ....       2.018 sec  ( 36.1% of XC)
Diagonalization             ....       1.248 sec  (  1.6%)
Density matrix formation    ....       0.110 sec  (  0.1%)
Population analysis         ....       0.935 sec  (  1.2%)
Initial guess               ....       2.574 sec  (  3.4%)
Orbital Transformation      ....       0.000 sec  (  0.0%)
Orbital Orthonormalization  ....       0.000 sec  (  0.0%)
DIIS solution               ....       0.432 sec  (  0.6%)
SOSCF solution              ....       0.826 sec  (  1.1%)
Grid generation             ....       6.194 sec  (  8.1%)
COSMO(total)                ....       9.990 sec  ( 13.1%)
   Initialization           ....       2.815 sec  ( 28.2% of COSMO)
   Potential evaluation     ....       4.252 sec  ( 42.6% of COSMO)
   Charge calculation       ....       0.572 sec  (  5.7% of COSMO)
   Fock-Matrix contrib.     ....       2.467 sec  ( 24.7% of COSMO)
   Outer-lying charge       ....       0.244 sec  (  2.4% of COSMO)
           ************************************************************
           *              Shut down parallel processing               *
           ************************************************************

Entering the calculation of the dispersion correction...

Checking the input atom types...

Done


-------------------------------------------------------------------------------
                          DFT DISPERSION CORRECTION                            
                                                                               
                                DFTD3 V2.1  Rev 6                               
                          USING Becke-Johnson damping                          
-------------------------------------------------------------------------------
The B3LYP functional is recognized
Active option DFTDOPT                   ...         4   

molecular C6(AA) [au] = 11389.360406 


            DFT-D V3
 parameters
 s6 scaling factor         :     1.0000 
 a1 scaling factor         :     0.3981 
 s8 scaling factor         :     1.9889 
 a2 scaling factor         :     4.4211 
 ad hoc parameters k1-k3   :    16.0000     1.3333    -4.0000 

 Edisp/kcal,au: -39.669006666555  -0.063216579310 
 E6   /kcal   : -21.924483966 
 E8   /kcal   : -17.744522701 
 % E8         :  44.731452063 

-------------------------   ----------------
Dispersion correction           -0.063216579
-------------------------   ----------------


-------------------------   --------------------
FINAL SINGLE POINT ENERGY     -1223.157781721912
-------------------------   --------------------


                            ***************************************
                            *     ORCA property calculations      *
                            ***************************************

                                    ---------------------
                                    Active property flags
                                    ---------------------
   (+) Dipole Moment


------------------------------------------------------------------------------
                       ORCA ELECTRIC PROPERTIES CALCULATION
------------------------------------------------------------------------------

Dipole Moment Calculation                       ... on
Quadrupole Moment Calculation                   ... off
Polarizability Calculation                      ... off
GBWName                                         ... 2_B3LYP_SMD_onBP86_SMD_16_waters.gbw
Electron density file                           ... 2_B3LYP_SMD_onBP86_SMD_16_waters.scfp.tmp

-------------
DIPOLE MOMENT
-------------
                                X             Y             Z
Electronic contribution:      0.00256      -0.00508       0.00615
Nuclear contribution   :      0.02100      -0.01014      -0.00522
                        -----------------------------------------
Total Dipole Moment    :      0.02356      -0.01522       0.00093
                        -----------------------------------------
Magnitude (a.u.)       :      0.02806
Magnitude (Debye)      :      0.07133

smp-n52.crc.pitt.edu.109277hfi_wait_for_device: The /dev/hfi1_0 device failed to appear after 15.0 seconds: Connection timed out
smp-n52.crc.pitt.edu.109278hfi_wait_for_device: The /dev/hfi1_0 device failed to appear after 15.0 seconds: Connection timed out
smp-n52.crc.pitt.edu.109279hfi_wait_for_device: The /dev/hfi1_0 device failed to appear after 15.0 seconds: Connection timed out
smp-n52.crc.pitt.edu.109280hfi_wait_for_device: The /dev/hfi1_0 device failed to appear after 15.0 seconds: Connection timed out
smp-n52.crc.pitt.edu.109281hfi_wait_for_device: The /dev/hfi1_0 device failed to appear after 15.0 seconds: Connection timed out
smp-n52.crc.pitt.edu.109284hfi_wait_for_device: The /dev/hfi1_0 device failed to appear after 15.0 seconds: Connection timed out
smp-n52.crc.pitt.edu.109288hfi_wait_for_device: The /dev/hfi1_0 device failed to appear after 15.0 seconds: Connection timed out
smp-n52.crc.pitt.edu.109292hfi_wait_for_device: The /dev/hfi1_0 device failed to appear after 15.0 seconds: Connection timed out
smp-n52.crc.pitt.edu.109286hfi_wait_for_device: The /dev/hfi1_0 device failed to appear after 15.0 seconds: Connection timed out
smp-n52.crc.pitt.edu.109294hfi_wait_for_device: The /dev/hfi1_0 device failed to appear after 15.0 seconds: Connection timed out
smp-n52.crc.pitt.edu.109282hfi_wait_for_device: The /dev/hfi1_0 device failed to appear after 15.0 seconds: Connection timed out
smp-n52.crc.pitt.edu.109290hfi_wait_for_device: The /dev/hfi1_0 device failed to appear after 15.0 seconds: Connection timed out

Timings for individual modules:

Sum of individual times         ...      110.303 sec (=   1.838 min)
GTO integral calculation        ...       15.989 sec (=   0.266 min)  14.5 %
SCF iterations                  ...       94.313 sec (=   1.572 min)  85.5 %
                             ****ORCA TERMINATED NORMALLY****
TOTAL RUN TIME: 0 days 0 hours 2 minutes 5 seconds 878 msec
cp: cannot stat ‘/scratch/slurm-1328780/*.{prop}’: No such file or directory
