
                                 *****************
                                 * O   R   C   A *
                                 *****************

           --- An Ab Initio, DFT and Semiempirical electronic structure package ---

                  #######################################################
                  #                        -***-                        #
                  #  Department of molecular theory and spectroscopy    #
                  #              Directorship: Frank Neese              #
                  # Max Planck Institute for Chemical Energy Conversion #
                  #                  D-45470 Muelheim/Ruhr              #
                  #                       Germany                       #
                  #                                                     #
                  #                  All rights reserved                #
                  #                        -***-                        #
                  #######################################################


                         Program Version 3.0.3 - RELEASE   -


 With contributions from (in alphabetic order):
   Ute Becker             : Parallelization
   Dmytro Bykov           : SCF Hessian
   Dmitry Ganyushin       : Spin-Orbit,Spin-Spin,Magnetic field MRCI
   Andreas Hansen         : Spin unrestricted coupled pair/coupled cluster methods
   Dimitrios Liakos       : Extrapolation schemes; parallel MDCI
   Robert Izsak           : Overlap fitted RIJCOSX, COSX-SCS-MP3
   Christian Kollmar      : KDIIS, OOCD, Brueckner-CCSD(T), CCSD density
   Simone Kossmann        : Meta GGA functionals, TD-DFT gradient, OOMP2, MP2 Hessian
   Taras Petrenko         : DFT Hessian,TD-DFT gradient, ASA and ECA modules, normal mode analysis, Resonance Raman, ABS, FL, XAS/XES, NRVS
   Christoph Reimann      : Effective Core Potentials
   Michael Roemelt        : Restricted open shell CIS
   Christoph Riplinger    : Improved optimizer, TS searches, QM/MM, DLPNO-CCSD
   Barbara Sandhoefer     : DKH picture change effects
   Igor Schapiro          : Molecular dynamics
   Kantharuban Sivalingam : CASSCF convergence, NEVPT2
   Boris Wezisla          : Elementary symmetry handling
   Frank Wennmohs         : Technical directorship


 We gratefully acknowledge several colleagues who have allowed us to
 interface, adapt or use parts of their codes:
   Stefan Grimme, W. Hujo, H. Kruse, T. Risthaus : VdW corrections, initial TS optimization,
                                                   DFT functionals, gCP
   Ed Valeev                                     : LibInt (2-el integral package), F12 methods
   Garnet Chan, S. Sharma, R. Olivares           : DMRG
   Ulf Ekstrom                                   : XCFun DFT Library
   Mihaly Kallay                                 : mrcc  (arbitrary order and MRCC methods)
   Andreas Klamt, Michael Diedenhofen            : otool_cosmo (COSMO solvation model)
   Frank Weinhold                                : gennbo (NPA and NBO analysis)
   Christopher J. Cramer and Donald G. Truhlar   : smd solvation model


 Your calculation uses the libint2 library for the computation of 2-el integrals
 For citations please refer to: http://libint.valeyev.net

 This ORCA versions uses:
   CBLAS   interface :  Fast vector & matrix operations
   LAPACKE interface :  Fast linear algebra routines
   SCALAPACK package :  Parallel linear algebra routines


Your calculation utilizes the basis: Ahlrichs-TZV
Cite in your paper:
H - Kr: A. Schaefer, H. Horn and R. Ahlrichs, J. Chem. Phys. 97, 2571 (1992).

The def2-TZV basis will be loaded
Cite in your paper:
 	F. Weigend, R. Ahlrichs, Phys. Chem. Chem. Phys. 2005, 7, 3297.

Your calculation utilizes the atom-pairwise dispersion correction
with the zero-damping scheme (D30)
Cite in your paper:
S.Grimme, J.Antony, S.Ehrlich and H.Krieg, J.Chem.Phys., 132, (2010), 154104 
   

XCFun DFT library Copyright 2009-2010 Ulf Ekstrom and contributors.
See http://admol.org/xcfun for more information. This is free soft-
ware; see the source code for copying conditions. There is ABSOLUTELY
NO WARRANTY; not even for MERCHANTABILITY or FITNESS FOR A PARTICULAR
PURPOSE. For details see the documentation. Scientific users of this 
library should cite U. Ekstrom, L. Visscher, R. Bast, A. J. Thorvald-
sen and K. Ruud; J.Chem.Theor.Comp. 2010, DOI: 10.1021/ct100117s
XCFun Version 0.99 
================================================================================
                                        WARNINGS
                       Please study these warnings very carefully!
================================================================================
Now building the actual basis set


INFO   : the flag for use of LIBINT has been found!

================================================================================
                                       INPUT FILE
================================================================================
NAME = 0_wB97X_SMD_onB3LYP_SMD_12_waters.inp
|  1> ! wB97X-D3 Def2-TZVP def2-TZVP/J RIJCOSX TightSCF Grid4 COSMO
|  2> 
|  3> %pal nprocs 12 end
|  4> 
|  5> %scf
|  6>         maxiter 400
|  7> end
|  8> 
|  9> %cosmo
| 10>         SMD true
| 11>         solvent "WATER"
| 12> end
| 13> 
| 14> * xyz  0  1
| 15> O  1.372181	-0.946534	2.961247
| 16> H  2.132167	-0.649670	2.406272
| 17> H  0.813554	-1.436466	2.320162
| 18> O  -1.621895	0.495212	0.949167
| 19> H  -1.306120	0.909015	1.787347
| 20> H  -1.095104	-0.349797	0.933987
| 21> O  1.798421	2.442640	1.318712
| 22> H  1.275936	2.407626	0.490139
| 23> H  1.139863	2.179368	2.006044
| 24> O  0.114298	1.686798	-0.744066
| 25> H  -0.361347	1.682102	-1.609235
| 26> H  -0.570477	1.322853	-0.121106
| 27> O  -0.072898	-1.690885	0.767424
| 28> H  0.584187	-1.328226	0.112865
| 29> H  -0.684898	-2.195705	0.177385
| 30> O  3.126450	0.130358	1.154069
| 31> H  2.749583	1.054960	1.225549
| 32> H  4.086044	0.224455	1.255878
| 33> O  1.599123	-0.541967	-0.972209
| 34> H  1.115822	0.328098	-0.939645
| 35> H  2.355782	-0.402780	-0.352280
| 36> O  -0.039486	-1.369802	-3.063562
| 37> H  0.723188	-1.177530	-2.478734
| 38> H  -0.487251	-0.496933	-3.170023
| 39> O  -3.230502	-0.155547	-1.248016
| 40> H  -2.902038	0.197968	-0.394511
| 41> H  -2.825213	-1.055130	-1.266760
| 42> O  -1.405037	0.988969	-2.861516
| 43> H  -2.165483	0.627070	-2.323765
| 44> H  -1.806850	1.534578	-3.555005
| 45> O  -1.656626	-2.406052	-1.248500
| 46> H  -1.968948	-3.284580	-1.514057
| 47> H  -1.049931	-2.103759	-1.987155
| 48> O  -0.030036	1.307782	2.995362
| 49> H  0.487477	0.454856	3.089090
| 50> H  -0.193935	1.616654	3.899446
| 51> **                         ****END OF INPUT****
================================================================================

                       ****************************
                       * Single Point Calculation *
                       ****************************

---------------------------------
CARTESIAN COORDINATES (ANGSTROEM)
---------------------------------
  O      1.372181   -0.946534    2.961247
  H      2.132167   -0.649670    2.406272
  H      0.813554   -1.436466    2.320162
  O     -1.621895    0.495212    0.949167
  H     -1.306120    0.909015    1.787347
  H     -1.095104   -0.349797    0.933987
  O      1.798421    2.442640    1.318712
  H      1.275936    2.407626    0.490139
  H      1.139863    2.179368    2.006044
  O      0.114298    1.686798   -0.744066
  H     -0.361347    1.682102   -1.609235
  H     -0.570477    1.322853   -0.121106
  O     -0.072898   -1.690885    0.767424
  H      0.584187   -1.328226    0.112865
  H     -0.684898   -2.195705    0.177385
  O      3.126450    0.130358    1.154069
  H      2.749583    1.054960    1.225549
  H      4.086044    0.224455    1.255878
  O      1.599123   -0.541967   -0.972209
  H      1.115822    0.328098   -0.939645
  H      2.355782   -0.402780   -0.352280
  O     -0.039486   -1.369802   -3.063562
  H      0.723188   -1.177530   -2.478734
  H     -0.487251   -0.496933   -3.170023
  O     -3.230502   -0.155547   -1.248016
  H     -2.902038    0.197968   -0.394511
  H     -2.825213   -1.055130   -1.266760
  O     -1.405037    0.988969   -2.861516
  H     -2.165483    0.627070   -2.323765
  H     -1.806850    1.534578   -3.555005
  O     -1.656626   -2.406052   -1.248500
  H     -1.968948   -3.284580   -1.514057
  H     -1.049931   -2.103759   -1.987155
  O     -0.030036    1.307782    2.995362
  H      0.487477    0.454856    3.089090
  H     -0.193935    1.616654    3.899446

----------------------------
CARTESIAN COORDINATES (A.U.)
----------------------------
  NO LB      ZA    FRAG    MASS        X           Y           Z
   0 O     8.0000    0    15.999          2.593046296170197         -1.788690036445018          5.595945844895905
   1 H     1.0000    0     1.008          4.029211701784473         -1.227698377424620          4.547195083722958
   2 H     1.0000    0     1.008          1.537394255156170         -2.714527340689325          4.384470766330999
   3 O     8.0000    0    15.999         -3.064937367976209          0.935815058231411          1.793665685355633
   4 H     1.0000    0     1.008         -2.468209098037225          1.717789401626427          3.377596336285747
   5 H     1.0000    0     1.008         -2.069446648161699         -0.661020532467252          1.764979642642708
   6 O     8.0000    0    15.999          3.398523163492791          4.615920643761406          2.492004529515562
   7 H     1.0000    0     1.008          2.411169604410946          4.549753772908288          0.926228477554028
   8 H     1.0000    0     1.008          2.154028900189880          4.118408665031691          3.790873772595924
   9 O     8.0000    0    15.999          0.215991917654931          3.187586263246100         -1.406080965562250
  10 H     1.0000    0     1.008         -0.682846869314042          3.178712109321205         -3.041013435120765
  11 H     1.0000    0     1.008         -1.078045295700994          2.499829885436130         -0.228857173174667
  12 O     8.0000    0    15.999         -0.137757255710591         -3.195309573955436          1.450221188598383
  13 H     1.0000    0     1.008          1.103953440997054         -2.509983383953688          0.213283940105022
  14 H     1.0000    0     1.008         -1.294269649670397         -4.149281120881562          0.335209070265621
  15 O     8.0000    0    15.999          5.908134271398097          0.246340919365707          2.180874349648365
  16 H     1.0000    0     1.008          5.195958852485597          1.993585482241564          2.315951973701056
  17 H     1.0000    0     1.008          7.721504131152127          0.424158479389295          2.373265477616754
  18 O     8.0000    0    15.999          3.021904524454554         -1.024169203622899         -1.837208754933446
  19 H     1.0000    0     1.008          2.108597994204279          0.620015365087295         -1.775671713108435
  20 H     1.0000    0     1.008          4.451782811221274         -0.761143892220802         -0.665712722457778
  21 O     8.0000    0    15.999         -0.074617726124015         -2.588550637697598         -5.789293174288058
  22 H     1.0000    0     1.008          1.366627263338242         -2.225209214476291         -4.684128418839160
  23 H     1.0000    0     1.008         -0.920770948479264         -0.939067276907889         -5.990475308231448
  24 O     8.0000    0    15.999         -6.104764055084871         -0.293941230953049         -2.358408450751865
  25 H     1.0000    0     1.008         -5.484057050232561          0.374105303280122         -0.745517746819407
  26 H     1.0000    0     1.008         -5.338878839994061         -1.993906735684330         -2.393829477406085
  27 O     8.0000    0    15.999         -2.655135138026314          1.868880564937966         -5.407481567833805
  28 H     1.0000    0     1.008         -4.092169817662194          1.184990566797999         -4.391279449591517
  29 H     1.0000    0     1.008         -3.414451665075614          2.899932151140606         -6.717985854720720
  30 O     8.0000    0    15.999         -3.130569446333427         -4.546779343973495         -2.359323078200683
  31 H     1.0000    0     1.008         -3.720772491931981         -6.206956664955065         -2.861153081146409
  32 H     1.0000    0     1.008         -1.984082049514074         -3.975528361772039         -3.755178735652285
  33 O     8.0000    0    15.999         -0.056759814158459          2.471349822871802          5.660413851954629
  34 H     1.0000    0     1.008          0.921198026585530          0.859553270370885          5.837534103034799
  35 H     1.0000    0     1.008         -0.366484037782018          3.055033313308327          7.368885014014690

--------------------------------
INTERNAL COORDINATES (ANGSTROEM)
--------------------------------
 O      0   0   0   0.000000     0.000     0.000
 H      1   0   0   0.986765     0.000     0.000
 H      1   2   0   0.981370   102.780     0.000
 O      3   1   2   3.397414   112.819   265.642
 H      4   3   1   0.986657    70.502   340.113
 H      4   3   1   0.995881    31.187   166.554
 O      2   1   3   3.294929   112.953    96.971
 H      7   2   1   0.980178   107.427   274.089
 H      7   2   1   0.987642    65.648    10.685
 O      8   7   2   1.841808   156.439    20.698
 H     10   8   7   0.987308   153.242   185.118
 H     10   8   7   0.994712    99.074    41.868
 O      6   4   3   1.694451   172.822   264.690
 H     13   6   4   0.995856   100.046     0.648
 H     13   6   4   0.988703    95.126   257.823
 O      2   1   3   1.779060   163.377    61.123
 H     16   2   1   1.001013    98.297    47.699
 H     16   2   1   0.969557   121.452   162.252
 O     14  13   6   1.680977   173.215     5.886
 H     19  14  13   0.995818    95.424   356.672
 H     19  14  13   0.988037    97.081   100.716
 O     19  14  13   2.782824    89.452   266.798
 H     22  19  14   0.980135    15.212   230.414
 H     22  19  14   0.986776    94.883   102.181
 O      4   3   1   2.799771   126.613   168.284
 H     25   4   3   0.980476    16.377   145.168
 H     25   4   3   0.986843    89.474     5.027
 O     11  10   8   1.771420   154.848   173.723
 H     28  11  10   0.999212   102.102    45.163
 H     28  11  10   0.969572   121.980   162.774
 O     15  13   6   1.738289   153.810    56.751
 H     31  15  13   0.969473   120.960   164.081
 H     31  15  13   1.002532   103.273    46.650
 O      9   7   2   1.762690   164.787   320.398
 H     34   9   7   1.002042    97.505    46.704
 H     34   9   7   0.969347   118.563   159.241

---------------------------
INTERNAL COORDINATES (A.U.)
---------------------------
 O      0   0   0   0.000000     0.000     0.000
 H      1   0   0   1.864715     0.000     0.000
 H      1   2   0   1.854521   102.780     0.000
 O      3   1   2   6.420181   112.819   265.642
 H      4   3   1   1.864512    70.502   340.113
 H      4   3   1   1.881943    31.187   166.554
 O      2   1   3   6.226513   112.953    96.971
 H      7   2   1   1.852269   107.427   274.089
 H      7   2   1   1.866372    65.648    10.685
 O      8   7   2   3.480513   156.439    20.698
 H     10   8   7   1.865742   153.242   185.118
 H     10   8   7   1.879733    99.074    41.868
 O      6   4   3   3.202049   172.822   264.690
 H     13   6   4   1.881896   100.046     0.648
 H     13   6   4   1.868378    95.126   257.823
 O      2   1   3   3.361936   163.377    61.123
 H     16   2   1   1.891640    98.297    47.699
 H     16   2   1   1.832196   121.452   162.252
 O     14  13   6   3.176586   173.215     5.886
 H     19  14  13   1.881823    95.424   356.672
 H     19  14  13   1.867120    97.081   100.716
 O     19  14  13   5.258775    89.452   266.798
 H     22  19  14   1.852186    15.212   230.414
 H     22  19  14   1.864737    94.883   102.181
 O      4   3   1   5.290800   126.613   168.284
 H     25   4   3   1.852830    16.377   145.168
 H     25   4   3   1.864864    89.474     5.027
 O     11  10   8   3.347499   154.848   173.723
 H     28  11  10   1.888238   102.102    45.163
 H     28  11  10   1.832226   121.980   162.774
 O     15  13   6   3.284890   153.810    56.751
 H     31  15  13   1.832038   120.960   164.081
 H     31  15  13   1.894512   103.273    46.650
 O      9   7   2   3.331001   164.787   320.398
 H     34   9   7   1.893584    97.505    46.704
 H     34   9   7   1.831799   118.563   159.241

---------------------
BASIS SET INFORMATION
---------------------
There are 2 groups of distinct atoms

 Group   1 Type O   : 11s6p2d1f contracted to 5s3p2d1f pattern {62111/411/11/1}
 Group   2 Type H   : 5s1p contracted to 3s1p pattern {311/1}

Atom   0O    basis set group =>   1
Atom   1H    basis set group =>   2
Atom   2H    basis set group =>   2
Atom   3O    basis set group =>   1
Atom   4H    basis set group =>   2
Atom   5H    basis set group =>   2
Atom   6O    basis set group =>   1
Atom   7H    basis set group =>   2
Atom   8H    basis set group =>   2
Atom   9O    basis set group =>   1
Atom  10H    basis set group =>   2
Atom  11H    basis set group =>   2
Atom  12O    basis set group =>   1
Atom  13H    basis set group =>   2
Atom  14H    basis set group =>   2
Atom  15O    basis set group =>   1
Atom  16H    basis set group =>   2
Atom  17H    basis set group =>   2
Atom  18O    basis set group =>   1
Atom  19H    basis set group =>   2
Atom  20H    basis set group =>   2
Atom  21O    basis set group =>   1
Atom  22H    basis set group =>   2
Atom  23H    basis set group =>   2
Atom  24O    basis set group =>   1
Atom  25H    basis set group =>   2
Atom  26H    basis set group =>   2
Atom  27O    basis set group =>   1
Atom  28H    basis set group =>   2
Atom  29H    basis set group =>   2
Atom  30O    basis set group =>   1
Atom  31H    basis set group =>   2
Atom  32H    basis set group =>   2
Atom  33O    basis set group =>   1
Atom  34H    basis set group =>   2
Atom  35H    basis set group =>   2
-------------------------------
AUXILIARY BASIS SET INFORMATION
-------------------------------
There are 2 groups of distinct atoms

 Group   1 Type O   : 12s5p4d2f1g contracted to 6s4p3d1f1g pattern {711111/2111/211/2/1}
 Group   2 Type H   : 5s2p1d contracted to 3s1p1d pattern {311/2/1}

Atom   0O    basis set group =>   1
Atom   1H    basis set group =>   2
Atom   2H    basis set group =>   2
Atom   3O    basis set group =>   1
Atom   4H    basis set group =>   2
Atom   5H    basis set group =>   2
Atom   6O    basis set group =>   1
Atom   7H    basis set group =>   2
Atom   8H    basis set group =>   2
Atom   9O    basis set group =>   1
Atom  10H    basis set group =>   2
Atom  11H    basis set group =>   2
Atom  12O    basis set group =>   1
Atom  13H    basis set group =>   2
Atom  14H    basis set group =>   2
Atom  15O    basis set group =>   1
Atom  16H    basis set group =>   2
Atom  17H    basis set group =>   2
Atom  18O    basis set group =>   1
Atom  19H    basis set group =>   2
Atom  20H    basis set group =>   2
Atom  21O    basis set group =>   1
Atom  22H    basis set group =>   2
Atom  23H    basis set group =>   2
Atom  24O    basis set group =>   1
Atom  25H    basis set group =>   2
Atom  26H    basis set group =>   2
Atom  27O    basis set group =>   1
Atom  28H    basis set group =>   2
Atom  29H    basis set group =>   2
Atom  30O    basis set group =>   1
Atom  31H    basis set group =>   2
Atom  32H    basis set group =>   2
Atom  33O    basis set group =>   1
Atom  34H    basis set group =>   2
Atom  35H    basis set group =>   2
smp-n113.crc.pitt.edu.381974hfi_wait_for_device: The /dev/hfi1_0 device failed to appear after 15.0 seconds: Connection timed out
smp-n113.crc.pitt.edu.381978hfi_wait_for_device: The /dev/hfi1_0 device failed to appear after 15.0 seconds: Connection timed out
smp-n113.crc.pitt.edu.381987hfi_wait_for_device: The /dev/hfi1_0 device failed to appear after 15.0 seconds: Connection timed out
smp-n113.crc.pitt.edu.381958hfi_wait_for_device: The /dev/hfi1_0 device failed to appear after 15.0 seconds: Connection timed out
smp-n113.crc.pitt.edu.381966hfi_wait_for_device: The /dev/hfi1_0 device failed to appear after 15.0 seconds: Connection timed out
smp-n113.crc.pitt.edu.381967hfi_wait_for_device: The /dev/hfi1_0 device failed to appear after 15.0 seconds: Connection timed out
smp-n113.crc.pitt.edu.381970hfi_wait_for_device: The /dev/hfi1_0 device failed to appear after 15.0 seconds: Connection timed out
smp-n113.crc.pitt.edu.381972hfi_wait_for_device: The /dev/hfi1_0 device failed to appear after 15.0 seconds: Connection timed out
smp-n113.crc.pitt.edu.381984hfi_wait_for_device: The /dev/hfi1_0 device failed to appear after 15.0 seconds: Connection timed out
smp-n113.crc.pitt.edu.381962hfi_wait_for_device: The /dev/hfi1_0 device failed to appear after 15.0 seconds: Connection timed out
smp-n113.crc.pitt.edu.381964hfi_wait_for_device: The /dev/hfi1_0 device failed to appear after 15.0 seconds: Connection timed out
smp-n113.crc.pitt.edu.381961hfi_wait_for_device: The /dev/hfi1_0 device failed to appear after 15.0 seconds: Connection timed out


           ************************************************************
           *        Program running with 12 parallel MPI-processes    *
           *              working on a common directory               *
           ************************************************************
------------------------------------------------------------------------------
                           ORCA GTO INTEGRAL CALCULATION
                           -- RI-GTO INTEGRALS CHOSEN --
------------------------------------------------------------------------------

                         BASIS SET STATISTICS AND STARTUP INFO

Gaussian basis set:
 # of primitive gaussian shells          ...  384
 # of primitive gaussian functions       ...  744
 # of contracted shells                  ...  228
 # of contracted basis functions         ...  516
 Highest angular momentum                ...    3
 Maximum contraction depth               ...    6
Auxiliary gaussian basis set:
 # of primitive gaussian shells          ...  480
 # of primitive gaussian functions       ... 1224
 # of contracted shells                  ...  300
 # of contracted aux-basis functions     ...  852
 Highest angular momentum                ...    4
 Maximum contraction depth               ...    7
Ratio of auxiliary to basis functions    ...  1.65
Integral package used                  ... LIBINT
 One Electron integrals                  ... done
 Ordering auxiliary basis shells         ... done
 Integral threshhold             Thresh  ...  2.500e-11
 Primitive cut-off               TCut    ...  2.500e-12
 Pre-screening matrix                    ... done
 Shell pair data                         ... 
 Ordering of the shell pairs             ... done (   0.003 sec) 19686 of 26106 pairs
 Determination of significant pairs      ... done (   0.000 sec)
 Creation of shell pair data             ... done (   0.002 sec)
 Storage of shell pair data              ... done (   0.003 sec)
 Shell pair data done in (   0.008 sec)
 Computing two index integrals           ... done
 Cholesky decomposition of the V-matrix  ... done


Timings:
 Total evaluation time                   ...   0.382 sec (  0.006 min)
 One electron matrix time                ...   0.111 sec (  0.002 min) = 29.0%
 Schwartz matrix evaluation time         ...   0.211 sec (  0.004 min) = 55.2%
 Two index repulsion integral time       ...   0.020 sec (  0.000 min) =  5.3%
 Cholesky decomposition of V             ...   0.017 sec (  0.000 min) =  4.5%
 Three index repulsion integral time     ...   0.000 sec (  0.000 min) =  0.0%

           ************************************************************
           *              Shut down parallel processing               *
           ************************************************************
smp-n113.crc.pitt.edu.382016hfi_wait_for_device: The /dev/hfi1_0 device failed to appear after 15.0 seconds: Connection timed out
smp-n113.crc.pitt.edu.382017hfi_wait_for_device: The /dev/hfi1_0 device failed to appear after 15.0 seconds: Connection timed out
smp-n113.crc.pitt.edu.382018hfi_wait_for_device: The /dev/hfi1_0 device failed to appear after 15.0 seconds: Connection timed out
smp-n113.crc.pitt.edu.382019hfi_wait_for_device: The /dev/hfi1_0 device failed to appear after 15.0 seconds: Connection timed out
smp-n113.crc.pitt.edu.382008hfi_wait_for_device: The /dev/hfi1_0 device failed to appear after 15.0 seconds: Connection timed out
smp-n113.crc.pitt.edu.382009hfi_wait_for_device: The /dev/hfi1_0 device failed to appear after 15.0 seconds: Connection timed out
smp-n113.crc.pitt.edu.382010hfi_wait_for_device: The /dev/hfi1_0 device failed to appear after 15.0 seconds: Connection timed out
smp-n113.crc.pitt.edu.382011hfi_wait_for_device: The /dev/hfi1_0 device failed to appear after 15.0 seconds: Connection timed out
smp-n113.crc.pitt.edu.382012hfi_wait_for_device: The /dev/hfi1_0 device failed to appear after 15.0 seconds: Connection timed out
smp-n113.crc.pitt.edu.382013hfi_wait_for_device: The /dev/hfi1_0 device failed to appear after 15.0 seconds: Connection timed out
smp-n113.crc.pitt.edu.382014hfi_wait_for_device: The /dev/hfi1_0 device failed to appear after 15.0 seconds: Connection timed out
smp-n113.crc.pitt.edu.382015hfi_wait_for_device: The /dev/hfi1_0 device failed to appear after 15.0 seconds: Connection timed out


           ************************************************************
           *        Program running with 12 parallel MPI-processes    *
           *              working on a common directory               *
           ************************************************************
-------------------------------------------------------------------------------
                                 ORCA SCF
-------------------------------------------------------------------------------

------------
SCF SETTINGS
------------
Hamiltonian:
 Density Functional     Method          .... DFT(GTOs)
 Exchange Functional    Exchange        .... WB97X-D3
 Correlation Functional Correlation     .... WB97X-D3
 Gradients option       PostSCFGGA      .... off
 Hybrid DFT is turned on
   Fraction HF Exchange ScalHFX         ....  0.195728
   Scaling of DF-GGA-X  ScalDFX         ....  0.000000
   Scaling of DF-GGA-C  ScalDFC         ....  1.000000
   Scaling of DF-LDA-C  ScalLDAC        ....  1.000000
   Perturbative correction              ....  0.000000
 Long-range corrected/Screened/Range-Separated Hybrid DFT is turned on
   Amount of maximum screened exact exchange              ....  0.804272
   Range separation parameter mu (erf(mu*r12)/r12)        ....  0.250000
 RI-approximation to the Coulomb term is turned on
   Number of auxiliary basis functions  .... 852
   RIJ-COSX (HFX calculated with COS-X)).... on


General Settings:
 Integral files         IntName         .... 0_wB97X_SMD_onB3LYP_SMD_12_waters
 Hartree-Fock type      HFTyp           .... RHF
 Total Charge           Charge          ....    0
 Multiplicity           Mult            ....    1
 Number of Electrons    NEL             ....  120
 Basis Dimension        Dim             ....  516
 Nuclear Repulsion      ENuc            ....   1041.3780715289 Eh

Convergence Acceleration:
 DIIS                   CNVDIIS         .... on
   Start iteration      DIISMaxIt       ....    12
   Startup error        DIISStart       ....  0.200000
   # of expansion vecs  DIISMaxEq       ....     5
   Bias factor          DIISBfac        ....   1.050
   Max. coefficient     DIISMaxC        ....  10.000
 Newton-Raphson         CNVNR           .... off
 SOSCF                  CNVSOSCF        .... on
   Start iteration      SOSCFMaxIt      ....   150
   Startup grad/error   SOSCFStart      ....  0.003300
 Level Shifting         CNVShift        .... on
   Level shift para.    LevelShift      ....    0.2500
   Turn off err/grad.   ShiftErr        ....    0.0010
 Zerner damping         CNVZerner       .... off
 Static damping         CNVDamp         .... on
   Fraction old density DampFac         ....    0.7000
   Max. Damping (<1)    DampMax         ....    0.9800
   Min. Damping (>=0)   DampMin         ....    0.0000
   Turn off err/grad.   DampErr         ....    0.1000
 Fernandez-Rico         CNVRico         .... off

SCF Procedure:
 Maximum # iterations   MaxIter         ....   400
 SCF integral mode      SCFMode         .... Direct
   Integral package                     .... LIBINT
 Reset frequeny         DirectResetFreq ....    20
 Integral Threshold     Thresh          ....  2.500e-11 Eh
 Primitive CutOff       TCut            ....  2.500e-12 Eh

Convergence Tolerance:
 Convergence Check Mode ConvCheckMode   .... Total+1el-Energy
 Energy Change          TolE            ....  1.000e-08 Eh
 1-El. energy change                    ....  1.000e-05 Eh
 Orbital Gradient       TolG            ....  1.000e-05
 Orbital Rotation angle TolX            ....  1.000e-05
 DIIS Error             TolErr          ....  5.000e-07


Diagonalization of the overlap matrix:
Smallest eigenvalue                        ... 2.018e-03
Time for diagonalization                   ...    0.053 sec
Threshold for overlap eigenvalues          ... 1.000e-08
Number of eigenvalues below threshold      ... 0
Time for construction of square roots      ...    0.025 sec
Total time needed                          ...    0.079 sec

-------------------
DFT GRID GENERATION
-------------------

General Integration Accuracy     IntAcc      ...  4.670
Radial Grid Type                 RadialGrid  ... Gauss-Chebyshev
Angular Grid (max. acc.)         AngularGrid ... Lebedev-302
Angular grid pruning method      GridPruning ... 3 (G Style)
Weight generation scheme         WeightScheme... Becke
Basis function cutoff            BFCut       ...    1.0000e-11
Integration weight cutoff        WCut        ...    1.0000e-14
Grids for H and He will be reduced by one unit

# of grid points (after initial pruning)     ... 156000 (   0.0 sec)
# of grid points (after weights+screening)   ... 137662 (   0.1 sec)
nearest neighbour list constructed           ...    0.0 sec
Grid point re-assignment to atoms done       ...    0.0 sec
Grid point division into batches done        ...    0.3 sec
Reduced shell lists constructed in    0.5 sec

Total number of grid points                  ...   137662
Total number of batches                      ...     2172
Average number of points per batch           ...       63
Average number of grid points per atom       ...     3824
Average number of shells per batch           ...    94.22 (41.32%)
Average number of basis functions per batch  ...   184.82 (35.82%)
Average number of large shells per batch     ...    60.48 (64.19%)
Average number of large basis fcns per batch ...   115.26 (62.36%)
Maximum spatial batch extension              ...  11.64, 13.93, 15.02 au
Average spatial batch extension              ...   0.17,  0.18,  0.18 au

Time for grid setup =    0.786 sec

------------------------------
INITIAL GUESS: MODEL POTENTIAL
------------------------------
Loading Hartree-Fock densities                     ... done
Calculating cut-offs                               ... done
Setting up the integral package                    ... done
Initializing the effective Hamiltonian             ... done
Starting the Coulomb interaction                   ... done (   0.1 sec)
Reading the grid                                   ... done
Mapping shells                                     ... done
Starting the XC term evaluation                    ... done (   0.3 sec)
  promolecular density results
     # of electrons  =    119.988698433
     EX              =   -104.955054215
     EC              =     -3.952986518
     EX+EC           =   -108.908040733
Transforming the Hamiltonian                       ... done (   0.0 sec)
Diagonalizing the Hamiltonian                      ... done (   0.1 sec)
Back transforming the eigenvectors                 ... done (   0.0 sec)
Now organizing SCF variables                       ... done
                      ------------------
                      INITIAL GUESS DONE (   1.3 sec)
                      ------------------
--------------------
COSX GRID GENERATION
--------------------

General Integration Accuracy     IntAcc      ...  3.340
Radial Grid Type                 RadialGrid  ... Gauss-Chebyshev
Angular Grid (max. acc.)         AngularGrid ... Lebedev-50
Angular grid pruning method      GridPruning ... 3 (G Style)
Weight generation scheme         WeightScheme... Becke
Basis function cutoff            BFCut       ...    1.0000e-11
Integration weight cutoff        WCut        ...    1.0000e-14
Grids for H and He will be reduced by one unit

# of grid points (after initial pruning)     ...  14640 (   0.0 sec)
# of grid points (after weights+screening)   ...  13134 (   0.0 sec)
nearest neighbour list constructed           ...    0.0 sec
Grid point re-assignment to atoms done       ...    0.0 sec
Grid point division into batches done        ...    0.0 sec
Reduced shell lists constructed in    0.0 sec

Total number of grid points                  ...    13134
Total number of batches                      ...      220
Average number of points per batch           ...       59
Average number of grid points per atom       ...      365
Average number of shells per batch           ...   109.45 (48.00%)
Average number of basis functions per batch  ...   222.75 (43.17%)
Average number of large shells per batch     ...    71.05 (64.92%)
Average number of large basis fcns per batch ...   137.65 (61.80%)
Maximum spatial batch extension              ...  12.80, 13.58, 11.47 au
Average spatial batch extension              ...   0.36,  0.40,  0.37 au

Overlap Fitting                  UseSFitting ... on
Constructing numerical overlap ... done (      0.0 sec)
Inverting numerical overlap    ... done (      0.0 sec)
Obtaining analytic overlap     ... done (      0.0 sec)
Final contraction and storage  ... done (      0.0 sec)


General Integration Accuracy     IntAcc      ...  3.670
Radial Grid Type                 RadialGrid  ... Gauss-Chebyshev
Angular Grid (max. acc.)         AngularGrid ... Lebedev-50
Angular grid pruning method      GridPruning ... 3 (G Style)
Weight generation scheme         WeightScheme... Becke
Basis function cutoff            BFCut       ...    1.0000e-11
Integration weight cutoff        WCut        ...    1.0000e-14
Grids for H and He will be reduced by one unit

# of grid points (after initial pruning)     ...  19224 (   0.0 sec)
# of grid points (after weights+screening)   ...  17217 (   0.0 sec)
nearest neighbour list constructed           ...    0.0 sec
Grid point re-assignment to atoms done       ...    0.0 sec
Grid point division into batches done        ...    0.0 sec
Reduced shell lists constructed in    0.0 sec

Total number of grid points                  ...    17217
Total number of batches                      ...      288
Average number of points per batch           ...       59
Average number of grid points per atom       ...      478
Average number of shells per batch           ...   108.36 (47.53%)
Average number of basis functions per batch  ...   219.72 (42.58%)
Average number of large shells per batch     ...    70.28 (64.86%)
Average number of large basis fcns per batch ...   136.20 (61.99%)
Maximum spatial batch extension              ...  13.14, 13.67, 12.01 au
Average spatial batch extension              ...   0.30,  0.36,  0.31 au

Overlap Fitting                  UseSFitting ... on
Constructing numerical overlap ... done (      0.0 sec)
Inverting numerical overlap    ... done (      0.0 sec)
Obtaining analytic overlap     ... done (      0.0 sec)
Final contraction and storage  ... done (      0.0 sec)


General Integration Accuracy     IntAcc      ...  4.010
Radial Grid Type                 RadialGrid  ... Gauss-Chebyshev
Angular Grid (max. acc.)         AngularGrid ... Lebedev-110
Angular grid pruning method      GridPruning ... 3 (G Style)
Weight generation scheme         WeightScheme... Becke
Basis function cutoff            BFCut       ...    1.0000e-11
Integration weight cutoff        WCut        ...    1.0000e-14
Grids for H and He will be reduced by one unit

# of grid points (after initial pruning)     ...  33096 (   0.0 sec)
# of grid points (after weights+screening)   ...  29838 (   0.0 sec)
nearest neighbour list constructed           ...    0.0 sec
Grid point re-assignment to atoms done       ...    0.0 sec
Grid point division into batches done        ...    0.0 sec
Reduced shell lists constructed in    0.1 sec

Total number of grid points                  ...    29838
Total number of batches                      ...      482
Average number of points per batch           ...       61
Average number of grid points per atom       ...      829
Average number of shells per batch           ...   105.29 (46.18%)
Average number of basis functions per batch  ...   211.52 (40.99%)
Average number of large shells per batch     ...    68.26 (64.83%)
Average number of large basis fcns per batch ...   131.93 (62.37%)
Maximum spatial batch extension              ...  17.82, 14.97, 13.92 au
Average spatial batch extension              ...   0.29,  0.30,  0.29 au

Overlap Fitting                  UseSFitting ... on
Constructing numerical overlap ... done (      0.0 sec)
Inverting numerical overlap    ... done (      0.0 sec)
Obtaining analytic overlap     ... done (      0.0 sec)
Final contraction and storage  ... done (      0.0 sec)

Time for X-Grid setup             =    0.377 sec

--------------------
COSMO INITIALIZATION
--------------------

Epsilon                                      ...   78.3550
Refractive Index                             ...    1.3300
Potential Evaluation                         ...  ANALYTIC
Technical COSMO parameters:
  rsolv                                      ...    1.3000
  routf                                      ...    0.8500
  disex                                      ...   10.0000
  nppa                                       ... 1082   
  nspa                                       ...   92   
Solvent:                                     ... WATER
Solvent:                                     ... WATER
SMD-CDS solvent descriptors:
  Soln                                       ...    1.3328
  Soln25                                     ...    1.3323
  Sola                                       ...    0.0000
  Solb                                       ...    0.0000
  Solg                                       ...    0.0000
  Solc                                       ...    0.0000
  Solh                                       ...    0.0000
Radii:
 Radius for O  used is    2.8724 Bohr (=   1.5200 Ang.)
 Radius for H  used is    2.2677 Bohr (=   1.2000 Ang.)
Initializing COSMO package            ... done
Setting COSMO radii                   ... done
Setting atoms and making cavity       ...  USING 1082 GRID
done
Cholesky decomposition of A           ... done
--------------
SCF ITERATIONS
--------------
ITER       Energy         Delta-E        Max-DP      RMS-DP      [F,P]     Damp
               ***  Starting incremental Fock matrix formation  ***
  0   -916.7437766780   0.000000000000 0.04096306  0.00077029  0.2890299 0.7000
  1   -917.0861012632  -0.342324585144 0.02865905  0.00051069  0.1471554 0.7000
                               ***Turning on DIIS***
  2   -917.2328407593  -0.146739496080 0.04718107  0.00083439  0.0594588 0.0000
  3   -917.4610520727  -0.228211313449 0.01711022  0.00032064  0.0706575 0.0000
  4   -917.5049917755  -0.043939702808 0.00282310  0.00006108  0.0100012 0.0000
                      *** Initiating the SOSCF procedure ***
                           *** Shutting down DIIS ***
                      *** Re-Reading the Fockian *** 
                      *** Removing any level shift *** 
ITER      Energy       Delta-E        Grad      Rot      Max-DP    RMS-DP
  5   -917.50600384  -0.0010120680  0.000623  0.000623  0.000768  0.000020
               *** Restarting incremental Fock matrix formation ***
  6   -917.50605344  -0.0000495926  0.000285  0.000471  0.000455  0.000011
  7   -917.50605828  -0.0000048395  0.000137  0.000241  0.000268  0.000005
  8   -917.50606083  -0.0000025549  0.000014  0.000023  0.000048  0.000001
  9   -917.50606091  -0.0000000824  0.000007  0.000013  0.000018  0.000000
 10   -917.50606096  -0.0000000484  0.000003  0.000002  0.000009  0.000000
                  ***Gradient check signals convergence***
              ***Rediagonalizing the Fockian in SOSCF/NRSCF***

               *****************************************************
               *                     SUCCESS                       *
               *           SCF CONVERGED AFTER  11 CYCLES          *
               *****************************************************

Setting up the final grid:

General Integration Accuracy     IntAcc      ...  5.010
Radial Grid Type                 RadialGrid  ... Gauss-Chebyshev
Angular Grid (max. acc.)         AngularGrid ... Lebedev-434
Angular grid pruning method      GridPruning ... 3 (G Style)
Weight generation scheme         WeightScheme... Becke
Basis function cutoff            BFCut       ...    1.0000e-11
Integration weight cutoff        WCut        ...    1.0000e-14
Grids for H and He will be reduced by one unit

# of grid points (after initial pruning)     ... 290712 (   0.0 sec)
# of grid points (after weights+screening)   ... 255823 (   0.2 sec)
nearest neighbour list constructed           ...    0.0 sec
Grid point re-assignment to atoms done       ...    0.0 sec
Grid point division into batches done        ...    1.2 sec
Reduced shell lists constructed in    1.5 sec

Total number of grid points                  ...   255823
Total number of batches                      ...     4014
Average number of points per batch           ...       63
Average number of grid points per atom       ...     7106
Average number of shells per batch           ...    91.08 (39.95%)
Average number of basis functions per batch  ...   177.16 (34.33%)
Average number of large shells per batch     ...    58.20 (63.90%)
Average number of large basis fcns per batch ...   110.33 (62.28%)
Maximum spatial batch extension              ...  10.58, 12.70, 12.85 au
Average spatial batch extension              ...   0.14,  0.14,  0.14 au

Final grid set up in    1.8 sec
Final integration                            ... done (   0.6 sec)
Change in XC energy                          ...    -0.001192915
Integrated number of electrons               ...   120.000094788
Previous integrated no of electrons          ...   120.000118414
Old exchange energy                            =    -33.976867990 Eh
New exchange energy                            =    -33.975939210 Eh
Exchange energy change after final integration =      0.000928780 Eh
Total energy after final integration           =   -917.506325070 Eh
Final COS-X integration done in                =     4.847 sec
  0.249968679842828       -1.39219058680810        3.88451103363983     
  2.435599421763334E-003  0.187831237219878       1.296695617732736E-002
Total Energy after outlying charge correction =   -917.510796394 Eh

SMD CDS free energy correction energy :                 6.92900     Kcal/mol
Total Energy after SMD CDS correction =              -917.495283007 Eh

----------------
TOTAL SCF ENERGY
----------------

Total Energy       :         -917.49528301 Eh          -24966.31591 eV
Total Energy       :         -917.49528301 Eh          -24966.31591 eV
COSMO(ediel)       :           -0.05533482 Eh              -1.50574 eV
SMD CDS (Gcds)     :            0.01104206 Eh               0.30047 eV

Components:
Nuclear Repulsion  :         1041.37807153 Eh           28337.33797 eV
Electronic Energy  :        -1958.87335454 Eh          -53303.65388 eV

One Electron Energy:        -3338.60911335 Eh          -90848.17261 eV
Two Electron Energy:         1379.73575881 Eh           37544.51872 eV

Virial components:
Potential Energy   :        -1831.17777325 Eh          -49828.88046 eV
Kinetic Energy     :          913.68249024 Eh           24862.56455 eV
Virial Ratio       :            2.00417300


DFT components:
N(Alpha)           :       60.000047393957 electrons
N(Beta)            :       60.000047393957 electrons
N(Total)           :      120.000094787915 electrons
E(XC)              :      -77.993843087089 Eh       

---------------
SCF CONVERGENCE
---------------

  Last Energy change         ...    2.5870e-08  Tolerance :   1.0000e-08
  Last MAX-Density change    ...    1.2712e-14  Tolerance :   1.0000e-07
  Last RMS-Density change    ...    2.1620e-16  Tolerance :   5.0000e-09
  Last Orbital Gradient      ...    4.5985e-07  Tolerance :   1.0000e-05
  Last Orbital Rotation      ...    6.6219e-07  Tolerance :   1.0000e-05

             **** THE GBW FILE WAS UPDATED (0_wB97X_SMD_onB3LYP_SMD_12_waters.gbw) ****
             **** DENSITY FILE WAS UPDATED (0_wB97X_SMD_onB3LYP_SMD_12_waters.scfp.tmp) ****
             **** ENERGY FILE WAS UPDATED (0_wB97X_SMD_onB3LYP_SMD_12_waters.en.tmp) ****
----------------
ORBITAL ENERGIES
----------------

  NO   OCC          E(Eh)            E(eV) 
   0   2.0000     -19.240759      -523.5677 
   1   2.0000     -19.239566      -523.5352 
   2   2.0000     -19.238603      -523.5090 
   3   2.0000     -19.237663      -523.4834 
   4   2.0000     -19.233056      -523.3581 
   5   2.0000     -19.232858      -523.3527 
   6   2.0000     -19.232000      -523.3293 
   7   2.0000     -19.231915      -523.3270 
   8   2.0000     -19.230358      -523.2846 
   9   2.0000     -19.230297      -523.2830 
  10   2.0000     -19.228704      -523.2396 
  11   2.0000     -19.228670      -523.2387 
  12   2.0000      -1.152811       -31.3696 
  13   2.0000      -1.142005       -31.0755 
  14   2.0000      -1.135682       -30.9035 
  15   2.0000      -1.134400       -30.8686 
  16   2.0000      -1.131596       -30.7923 
  17   2.0000      -1.124190       -30.5908 
  18   2.0000      -1.123568       -30.5738 
  19   2.0000      -1.115634       -30.3580 
  20   2.0000      -1.114093       -30.3160 
  21   2.0000      -1.112553       -30.2741 
  22   2.0000      -1.107660       -30.1410 
  23   2.0000      -1.096065       -29.8254 
  24   2.0000      -0.647711       -17.6251 
  25   2.0000      -0.643110       -17.4999 
  26   2.0000      -0.642305       -17.4780 
  27   2.0000      -0.641576       -17.4582 
  28   2.0000      -0.639526       -17.4024 
  29   2.0000      -0.634431       -17.2637 
  30   2.0000      -0.633102       -17.2276 
  31   2.0000      -0.631443       -17.1824 
  32   2.0000      -0.628069       -17.0906 
  33   2.0000      -0.622342       -16.9348 
  34   2.0000      -0.619248       -16.8506 
  35   2.0000      -0.616000       -16.7622 
  36   2.0000      -0.567724       -15.4486 
  37   2.0000      -0.543820       -14.7981 
  38   2.0000      -0.537017       -14.6130 
  39   2.0000      -0.534202       -14.5364 
  40   2.0000      -0.515936       -14.0393 
  41   2.0000      -0.511892       -13.9293 
  42   2.0000      -0.510375       -13.8880 
  43   2.0000      -0.509251       -13.8574 
  44   2.0000      -0.485777       -13.2187 
  45   2.0000      -0.484692       -13.1891 
  46   2.0000      -0.480013       -13.0618 
  47   2.0000      -0.456156       -12.4126 
  48   2.0000      -0.428700       -11.6655 
  49   2.0000      -0.426679       -11.6105 
  50   2.0000      -0.426263       -11.5992 
  51   2.0000      -0.425190       -11.5700 
  52   2.0000      -0.424775       -11.5587 
  53   2.0000      -0.423695       -11.5293 
  54   2.0000      -0.421969       -11.4823 
  55   2.0000      -0.418772       -11.3954 
  56   2.0000      -0.417267       -11.3544 
  57   2.0000      -0.416119       -11.3232 
  58   2.0000      -0.414736       -11.2855 
  59   2.0000      -0.414152       -11.2697 
  60   0.0000       0.094295         2.5659 
  61   0.0000       0.125745         3.4217 
  62   0.0000       0.145163         3.9501 
  63   0.0000       0.145994         3.9727 
  64   0.0000       0.179674         4.8892 
  65   0.0000       0.182032         4.9533 
  66   0.0000       0.185064         5.0359 
  67   0.0000       0.201725         5.4892 
  68   0.0000       0.230228         6.2648 
  69   0.0000       0.239254         6.5104 
  70   0.0000       0.241945         6.5837 
  71   0.0000       0.252600         6.8736 
  72   0.0000       0.268097         7.2953 
  73   0.0000       0.282283         7.6813 
  74   0.0000       0.287081         7.8119 
  75   0.0000       0.289367         7.8741 
  76   0.0000       0.294831         8.0228 
  77   0.0000       0.297020         8.0823 
  78   0.0000       0.304483         8.2854 
  79   0.0000       0.309143         8.4122 
  80   0.0000       0.315632         8.5888 
  81   0.0000       0.317024         8.6267 
  82   0.0000       0.327674         8.9165 
  83   0.0000       0.327951         8.9240 
  84   0.0000       0.346203         9.4207 
  85   0.0000       0.369473        10.0539 
  86   0.0000       0.385606        10.4929 
  87   0.0000       0.388332        10.5671 
  88   0.0000       0.397545        10.8177 
  89   0.0000       0.408611        11.1189 
  90   0.0000       0.426414        11.6033 
  91   0.0000       0.428943        11.6721 
  92   0.0000       0.432031        11.7562 
  93   0.0000       0.433194        11.7878 
  94   0.0000       0.436896        11.8885 
  95   0.0000       0.446345        12.1457 
  96   0.0000       0.449720        12.2375 
  97   0.0000       0.461220        12.5504 
  98   0.0000       0.462720        12.5913 
  99   0.0000       0.463964        12.6251 
 100   0.0000       0.471648        12.8342 
 101   0.0000       0.473977        12.8976 
 102   0.0000       0.482713        13.1353 
 103   0.0000       0.506671        13.7872 
 104   0.0000       0.509040        13.8517 
 105   0.0000       0.519663        14.1408 
 106   0.0000       0.523888        14.2557 
 107   0.0000       0.559446        15.2233 
 108   0.0000       0.566293        15.4096 
 109   0.0000       0.578349        15.7377 
 110   0.0000       0.580588        15.7986 
 111   0.0000       0.609646        16.5893 
 112   0.0000       0.612274        16.6608 
 113   0.0000       0.614712        16.7272 
 114   0.0000       0.624251        16.9867 
 115   0.0000       0.629410        17.1271 
 116   0.0000       0.647171        17.6104 
 117   0.0000       0.651709        17.7339 
 118   0.0000       0.653094        17.7716 
 119   0.0000       0.664420        18.0798 
 120   0.0000       0.669049        18.2057 
 121   0.0000       0.688737        18.7415 
 122   0.0000       0.706106        19.2141 
 123   0.0000       0.711744        19.3675 
 124   0.0000       0.719188        19.5701 
 125   0.0000       0.723522        19.6880 
 126   0.0000       0.726197        19.7608 
 127   0.0000       0.734717        19.9927 
 128   0.0000       0.745783        20.2938 
 129   0.0000       0.746464        20.3123 
 130   0.0000       0.761646        20.7254 
 131   0.0000       0.768795        20.9200 
 132   0.0000       0.771275        20.9875 
 133   0.0000       0.772740        21.0273 
 134   0.0000       0.773534        21.0489 
 135   0.0000       0.789817        21.4920 
 136   0.0000       0.797336        21.6966 
 137   0.0000       0.834144        22.6982 
 138   0.0000       0.835475        22.7344 
 139   0.0000       0.844569        22.9819 
 140   0.0000       0.874738        23.8028 
 141   0.0000       0.915384        24.9089 
 142   0.0000       0.925072        25.1725 
 143   0.0000       0.929127        25.2828 
 144   0.0000       0.946151        25.7461 
 145   0.0000       0.959429        26.1074 
 146   0.0000       0.968314        26.3492 
 147   0.0000       0.987237        26.8641 
 148   0.0000       0.993388        27.0315 
 149   0.0000       0.997477        27.1427 
 150   0.0000       1.000161        27.2158 
 151   0.0000       1.055604        28.7244 
 152   0.0000       1.061627        28.8883 
 153   0.0000       1.089572        29.6488 
 154   0.0000       1.107233        30.1293 
 155   0.0000       1.188292        32.3351 
 156   0.0000       1.206446        32.8291 
 157   0.0000       1.228112        33.4186 
 158   0.0000       1.239531        33.7294 
 159   0.0000       1.243145        33.8277 
 160   0.0000       1.252307        34.0770 
 161   0.0000       1.258090        34.2344 
 162   0.0000       1.262982        34.3675 
 163   0.0000       1.270311        34.5669 
 164   0.0000       1.277727        34.7687 
 165   0.0000       1.282292        34.8929 
 166   0.0000       1.283988        34.9391 
 167   0.0000       1.290966        35.1290 
 168   0.0000       1.297269        35.3005 
 169   0.0000       1.299132        35.3512 
 170   0.0000       1.313276        35.7360 
 171   0.0000       1.353441        36.8290 
 172   0.0000       1.361719        37.0542 
 173   0.0000       1.379488        37.5378 
 174   0.0000       1.389069        37.7985 
 175   0.0000       1.400310        38.1044 
 176   0.0000       1.412472        38.4353 
 177   0.0000       1.413120        38.4530 
 178   0.0000       1.419527        38.6273 
 179   0.0000       1.436625        39.0925 
 180   0.0000       1.437622        39.1197 
 181   0.0000       1.440868        39.2080 
 182   0.0000       1.443101        39.2688 
 183   0.0000       1.446575        39.3633 
 184   0.0000       1.460970        39.7550 
 185   0.0000       1.462619        39.7999 
 186   0.0000       1.468831        39.9689 
 187   0.0000       1.478620        40.2353 
 188   0.0000       1.482201        40.3327 
 189   0.0000       1.484394        40.3924 
 190   0.0000       1.492825        40.6218 
 191   0.0000       1.529017        41.6067 
 192   0.0000       1.652766        44.9741 
 193   0.0000       1.654974        45.0341 
 194   0.0000       1.743896        47.4538 
 195   0.0000       1.746040        47.5122 
 196   0.0000       1.754778        47.7499 
 197   0.0000       1.757660        47.8284 
 198   0.0000       1.763522        47.9879 
 199   0.0000       1.772544        48.2334 
 200   0.0000       1.780293        48.4442 
 201   0.0000       1.783539        48.5326 
 202   0.0000       1.787441        48.6387 
 203   0.0000       1.799042        48.9544 
 204   0.0000       1.799680        48.9718 
 205   0.0000       1.815461        49.4012 
 206   0.0000       1.820717        49.5442 
 207   0.0000       1.836102        49.9629 
 208   0.0000       1.842575        50.1390 
 209   0.0000       1.844558        50.1930 
 210   0.0000       1.851480        50.3813 
 211   0.0000       1.863483        50.7079 
 212   0.0000       1.868945        50.8566 
 213   0.0000       1.893826        51.5336 
 214   0.0000       1.898824        51.6696 
 215   0.0000       1.911531        52.0154 
 216   0.0000       1.945662        52.9442 
 217   0.0000       1.978813        53.8463 
 218   0.0000       2.001383        54.4604 
 219   0.0000       2.006853        54.6093 
 220   0.0000       2.007966        54.6395 
 221   0.0000       2.019634        54.9570 
 222   0.0000       2.023847        55.0717 
 223   0.0000       2.030910        55.2639 
 224   0.0000       2.037630        55.4467 
 225   0.0000       2.058597        56.0173 
 226   0.0000       2.063691        56.1559 
 227   0.0000       2.079854        56.5957 
 228   0.0000       2.092104        56.9291 
 229   0.0000       2.097239        57.0688 
 230   0.0000       2.102388        57.2089 
 231   0.0000       2.106110        57.3102 
 232   0.0000       2.114075        57.5269 
 233   0.0000       2.134582        58.0849 
 234   0.0000       2.162216        58.8369 
 235   0.0000       2.163480        58.8713 
 236   0.0000       2.174794        59.1792 
 237   0.0000       2.178770        59.2873 
 238   0.0000       2.180831        59.3434 
 239   0.0000       2.189801        59.5875 
 240   0.0000       2.204417        59.9852 
 241   0.0000       2.221315        60.4451 
 242   0.0000       2.223763        60.5117 
 243   0.0000       2.237632        60.8891 
 244   0.0000       2.253011        61.3075 
 245   0.0000       2.273567        61.8669 
 246   0.0000       2.276635        61.9504 
 247   0.0000       2.281708        62.0884 
 248   0.0000       2.309265        62.8383 
 249   0.0000       2.311189        62.8907 
 250   0.0000       2.318524        63.0902 
 251   0.0000       2.334522        63.5256 
 252   0.0000       2.336092        63.5683 
 253   0.0000       2.348388        63.9029 
 254   0.0000       2.359756        64.2122 
 255   0.0000       2.362679        64.2918 
 256   0.0000       2.396313        65.2070 
 257   0.0000       2.398423        65.2644 
 258   0.0000       2.403545        65.4038 
 259   0.0000       2.411834        65.6293 
 260   0.0000       2.412679        65.6523 
 261   0.0000       2.420481        65.8646 
 262   0.0000       2.422538        65.9206 
 263   0.0000       2.439721        66.3882 
 264   0.0000       2.445893        66.5561 
 265   0.0000       2.452627        66.7394 
 266   0.0000       2.460745        66.9603 
 267   0.0000       2.475850        67.3713 
 268   0.0000       2.479099        67.4597 
 269   0.0000       2.485737        67.6403 
 270   0.0000       2.488443        67.7140 
 271   0.0000       2.489255        67.7361 
 272   0.0000       2.499400        68.0121 
 273   0.0000       2.504724        68.1570 
 274   0.0000       2.513439        68.3942 
 275   0.0000       2.516840        68.4867 
 276   0.0000       2.518983        68.5450 
 277   0.0000       2.526841        68.7588 
 278   0.0000       2.530151        68.8489 
 279   0.0000       2.539796        69.1113 
 280   0.0000       2.542298        69.1795 
 281   0.0000       2.583129        70.2905 
 282   0.0000       2.597296        70.6760 
 283   0.0000       2.605469        70.8984 
 284   0.0000       2.621279        71.3286 
 285   0.0000       2.635291        71.7099 
 286   0.0000       2.640613        71.8547 
 287   0.0000       2.652303        72.1728 
 288   0.0000       2.676226        72.8238 
 289   0.0000       2.680475        72.9394 
 290   0.0000       2.688149        73.1483 
 291   0.0000       2.715070        73.8808 
 292   0.0000       2.721540        74.0569 
 293   0.0000       2.729060        74.2615 
 294   0.0000       2.740947        74.5850 
 295   0.0000       2.742891        74.6379 
 296   0.0000       2.774699        75.5034 
 297   0.0000       2.788785        75.8867 
 298   0.0000       2.791456        75.9594 
 299   0.0000       2.796475        76.0959 
 300   0.0000       2.805863        76.3514 
 301   0.0000       2.828874        76.9776 
 302   0.0000       2.831673        77.0537 
 303   0.0000       2.836493        77.1849 
 304   0.0000       2.851480        77.5927 
 305   0.0000       2.867384        78.0255 
 306   0.0000       2.880034        78.3697 
 307   0.0000       2.890628        78.6580 
 308   0.0000       2.904281        79.0295 
 309   0.0000       2.963595        80.6435 
 310   0.0000       2.971616        80.8618 
 311   0.0000       2.979067        81.0645 
 312   0.0000       3.017712        82.1161 
 313   0.0000       3.024517        82.3013 
 314   0.0000       3.041606        82.7663 
 315   0.0000       3.058197        83.2178 
 316   0.0000       3.063543        83.3633 
 317   0.0000       3.068859        83.5079 
 318   0.0000       3.088817        84.0510 
 319   0.0000       3.105413        84.5026 
 320   0.0000       3.115061        84.7651 
 321   0.0000       3.122867        84.9775 
 322   0.0000       3.130873        85.1954 
 323   0.0000       3.145969        85.6062 
 324   0.0000       3.153901        85.8220 
 325   0.0000       3.158657        85.9514 
 326   0.0000       3.174142        86.3728 
 327   0.0000       3.210177        87.3534 
 328   0.0000       3.215442        87.4966 
 329   0.0000       3.222475        87.6880 
 330   0.0000       3.236900        88.0805 
 331   0.0000       3.241459        88.2046 
 332   0.0000       3.262694        88.7824 
 333   0.0000       3.317101        90.2629 
 334   0.0000       3.336504        90.7909 
 335   0.0000       3.348350        91.1132 
 336   0.0000       3.823963       104.0553 
 337   0.0000       3.855150       104.9040 
 338   0.0000       3.856576       104.9428 
 339   0.0000       3.864477       105.1578 
 340   0.0000       3.877316       105.5071 
 341   0.0000       3.882561       105.6499 
 342   0.0000       3.885556       105.7313 
 343   0.0000       3.899981       106.1239 
 344   0.0000       3.935293       107.0848 
 345   0.0000       3.944838       107.3445 
 346   0.0000       3.970327       108.0381 
 347   0.0000       3.989919       108.5712 
 348   0.0000       4.015582       109.2695 
 349   0.0000       4.022724       109.4639 
 350   0.0000       4.034050       109.7721 
 351   0.0000       4.036931       109.8505 
 352   0.0000       4.043302       110.0238 
 353   0.0000       4.063492       110.5733 
 354   0.0000       4.091181       111.3267 
 355   0.0000       4.103350       111.6578 
 356   0.0000       4.113622       111.9373 
 357   0.0000       4.124341       112.2290 
 358   0.0000       4.149345       112.9094 
 359   0.0000       4.161736       113.2466 
 360   0.0000       5.187126       141.1489 
 361   0.0000       5.187634       141.1627 
 362   0.0000       5.188119       141.1759 
 363   0.0000       5.189306       141.2082 
 364   0.0000       5.189431       141.2116 
 365   0.0000       5.190357       141.2368 
 366   0.0000       5.191578       141.2700 
 367   0.0000       5.191991       141.2813 
 368   0.0000       5.198442       141.4568 
 369   0.0000       5.200402       141.5101 
 370   0.0000       5.201954       141.5524 
 371   0.0000       5.205745       141.6555 
 372   0.0000       5.290312       143.9567 
 373   0.0000       5.294016       144.0575 
 374   0.0000       5.300704       144.2395 
 375   0.0000       5.304941       144.3548 
 376   0.0000       5.323601       144.8625 
 377   0.0000       5.327594       144.9712 
 378   0.0000       5.332291       145.0990 
 379   0.0000       5.335259       145.1798 
 380   0.0000       5.336571       145.2155 
 381   0.0000       5.347424       145.5108 
 382   0.0000       5.353015       145.6629 
 383   0.0000       5.354953       145.7157 
 384   0.0000       5.437238       147.9548 
 385   0.0000       5.439098       148.0054 
 386   0.0000       5.441273       148.0646 
 387   0.0000       5.443341       148.1208 
 388   0.0000       5.446104       148.1960 
 389   0.0000       5.450671       148.3203 
 390   0.0000       5.454244       148.4175 
 391   0.0000       5.458928       148.5450 
 392   0.0000       5.460556       148.5893 
 393   0.0000       5.465342       148.7195 
 394   0.0000       5.469626       148.8361 
 395   0.0000       5.471107       148.8764 
 396   0.0000       5.481073       149.1476 
 397   0.0000       5.488795       149.3577 
 398   0.0000       5.490293       149.3985 
 399   0.0000       5.496936       149.5792 
 400   0.0000       5.498764       149.6290 
 401   0.0000       5.502029       149.7178 
 402   0.0000       5.508051       149.8817 
 403   0.0000       5.518822       150.1748 
 404   0.0000       5.521164       150.2385 
 405   0.0000       5.521278       150.2416 
 406   0.0000       5.522896       150.2856 
 407   0.0000       5.526882       150.3941 
 408   0.0000       5.531588       150.5222 
 409   0.0000       5.534241       150.5944 
 410   0.0000       5.537486       150.6826 
 411   0.0000       5.543782       150.8540 
 412   0.0000       5.546260       150.9214 
 413   0.0000       5.549763       151.0167 
 414   0.0000       5.555447       151.1714 
 415   0.0000       5.558596       151.2571 
 416   0.0000       5.559099       151.2708 
 417   0.0000       5.567064       151.4875 
 418   0.0000       5.570904       151.5920 
 419   0.0000       5.583164       151.9256 
 420   0.0000       6.029581       164.0732 
 421   0.0000       6.042097       164.4138 
 422   0.0000       6.050389       164.6395 
 423   0.0000       6.054401       164.7486 
 424   0.0000       6.057619       164.8362 
 425   0.0000       6.069812       165.1680 
 426   0.0000       6.074566       165.2973 
 427   0.0000       6.077336       165.3727 
 428   0.0000       6.096254       165.8875 
 429   0.0000       6.107366       166.1899 
 430   0.0000       6.110904       166.2862 
 431   0.0000       6.120319       166.5423 
 432   0.0000       6.197284       168.6367 
 433   0.0000       6.255279       170.2148 
 434   0.0000       6.265279       170.4869 
 435   0.0000       6.286830       171.0733 
 436   0.0000       6.302264       171.4933 
 437   0.0000       6.325166       172.1165 
 438   0.0000       6.329951       172.2467 
 439   0.0000       6.331922       172.3003 
 440   0.0000       6.386569       173.7874 
 441   0.0000       6.390723       173.9004 
 442   0.0000       6.396205       174.0496 
 443   0.0000       6.398944       174.1241 
 444   0.0000       6.403009       174.2347 
 445   0.0000       6.423063       174.7804 
 446   0.0000       6.444711       175.3695 
 447   0.0000       6.448567       175.4744 
 448   0.0000       6.451737       175.5607 
 449   0.0000       6.463874       175.8910 
 450   0.0000       6.469132       176.0340 
 451   0.0000       6.474138       176.1702 
 452   0.0000       6.483821       176.4337 
 453   0.0000       6.490210       176.6076 
 454   0.0000       6.491869       176.6527 
 455   0.0000       6.498207       176.8252 
 456   0.0000       6.501554       176.9163 
 457   0.0000       6.505458       177.0225 
 458   0.0000       6.513961       177.2539 
 459   0.0000       6.517098       177.3392 
 460   0.0000       6.528025       177.6366 
 461   0.0000       6.535657       177.8443 
 462   0.0000       6.541098       177.9923 
 463   0.0000       6.543651       178.0618 
 464   0.0000       6.569284       178.7593 
 465   0.0000       6.574857       178.9110 
 466   0.0000       6.586818       179.2364 
 467   0.0000       6.588197       179.2740 
 468   0.0000       6.611719       179.9140 
 469   0.0000       6.614788       179.9975 
 470   0.0000       6.628179       180.3619 
 471   0.0000       6.642688       180.7567 
 472   0.0000       6.674574       181.6244 
 473   0.0000       6.688000       181.9897 
 474   0.0000       6.711817       182.6378 
 475   0.0000       6.730004       183.1327 
 476   0.0000       6.775194       184.3624 
 477   0.0000       6.800854       185.0606 
 478   0.0000       6.816629       185.4899 
 479   0.0000       6.834483       185.9757 
 480   0.0000       6.960987       189.4181 
 481   0.0000       6.971442       189.7026 
 482   0.0000       7.004649       190.6062 
 483   0.0000       7.042890       191.6468 
 484   0.0000       7.046711       191.7508 
 485   0.0000       7.077320       192.5837 
 486   0.0000       7.079872       192.6531 
 487   0.0000       7.085868       192.8163 
 488   0.0000       7.090812       192.9508 
 489   0.0000       7.126514       193.9223 
 490   0.0000       7.131652       194.0621 
 491   0.0000       7.177688       195.3148 
 492   0.0000       7.179745       195.3708 
 493   0.0000       7.182490       195.4455 
 494   0.0000       7.187667       195.5864 
 495   0.0000       7.196066       195.8149 
 496   0.0000       7.207670       196.1307 
 497   0.0000       7.219563       196.4543 
 498   0.0000       7.220481       196.4793 
 499   0.0000       7.238169       196.9606 
 500   0.0000       7.277929       198.0425 
 501   0.0000       7.290841       198.3939 
 502   0.0000       7.302551       198.7125 
 503   0.0000       7.330393       199.4701 
 504   0.0000      43.518704      1184.2041 
 505   0.0000      43.525964      1184.4017 
 506   0.0000      43.555968      1185.2181 
 507   0.0000      43.560548      1185.3428 
 508   0.0000      43.581606      1185.9158 
 509   0.0000      43.584867      1186.0045 
 510   0.0000      43.628960      1187.2044 
 511   0.0000      43.672419      1188.3869 
 512   0.0000      43.720399      1189.6926 
 513   0.0000      43.743630      1190.3247 
 514   0.0000      43.747678      1190.4348 
 515   0.0000      43.969355      1196.4670 

                    ********************************
                    * MULLIKEN POPULATION ANALYSIS *
                    ********************************

-----------------------
MULLIKEN ATOMIC CHARGES
-----------------------
   0 O :   -0.755139
   1 H :    0.375244
   2 H :    0.394165
   3 O :   -0.773893
   4 H :    0.394974
   5 H :    0.360314
   6 O :   -0.759301
   7 H :    0.392466
   8 H :    0.373759
   9 O :   -0.777763
  10 H :    0.396364
  11 H :    0.356445
  12 O :   -0.779257
  13 H :    0.357500
  14 H :    0.395729
  15 O :   -0.772715
  16 H :    0.379139
  17 H :    0.405720
  18 O :   -0.776219
  19 H :    0.363557
  20 H :    0.394260
  21 O :   -0.752072
  22 H :    0.394253
  23 H :    0.379412
  24 O :   -0.752959
  25 H :    0.391035
  26 H :    0.373937
  27 O :   -0.771097
  28 H :    0.374902
  29 H :    0.407206
  30 O :   -0.771698
  31 H :    0.405069
  32 H :    0.372634
  33 O :   -0.774500
  34 H :    0.374006
  35 H :    0.404524
Sum of atomic charges:   -0.0000000

--------------------------------
MULLIKEN REDUCED ORBITAL CHARGES
--------------------------------
  0 O s       :     3.791246  s :     3.791246
      pz      :     1.676743  p :     4.943255
      px      :     1.510393
      py      :     1.756119
      dz2     :     0.002472  d :     0.019611
      dxz     :     0.009372
      dyz     :     0.004736
      dx2y2   :     0.000998
      dxy     :     0.002032
      f0      :     0.000054  f :     0.001028
      f+1     :     0.000032
      f-1     :     0.000060
      f+2     :     0.000153
      f-2     :     0.000382
      f+3     :     0.000101
      f-3     :     0.000246
  1 H s       :     0.571482  s :     0.571482
      pz      :     0.017518  p :     0.053274
      px      :     0.021315
      py      :     0.014441
  2 H s       :     0.554570  s :     0.554570
      pz      :     0.019663  p :     0.051265
      px      :     0.016441
      py      :     0.015161
  3 O s       :     3.795776  s :     3.795776
      pz      :     1.626126  p :     4.958308
      px      :     1.806687
      py      :     1.525495
      dz2     :     0.005283  d :     0.018808
      dxz     :     0.003926
      dyz     :     0.001920
      dx2y2   :     0.001140
      dxy     :     0.006539
      f0      :     0.000023  f :     0.001001
      f+1     :     0.000194
      f-1     :     0.000325
      f+2     :     0.000046
      f-2     :     0.000080
      f+3     :     0.000310
      f-3     :     0.000023
  4 H s       :     0.553101  s :     0.553101
      pz      :     0.023653  p :     0.051924
      px      :     0.015008
      py      :     0.013264
  5 H s       :     0.583869  s :     0.583869
      pz      :     0.010026  p :     0.055816
      px      :     0.018696
      py      :     0.027095
  6 O s       :     3.793206  s :     3.793206
      pz      :     1.393426  p :     4.945701
      px      :     1.638358
      py      :     1.913917
      dz2     :     0.001085  d :     0.019357
      dxz     :     0.010846
      dyz     :     0.001102
      dx2y2   :     0.003450
      dxy     :     0.002874
      f0      :     0.000079  f :     0.001038
      f+1     :     0.000408
      f-1     :     0.000086
      f+2     :     0.000223
      f-2     :     0.000102
      f+3     :     0.000062
      f-3     :     0.000077
  7 H s       :     0.557075  s :     0.557075
      pz      :     0.021600  p :     0.050459
      px      :     0.015861
      py      :     0.012998
  8 H s       :     0.572323  s :     0.572323
      pz      :     0.019302  p :     0.053918
      px      :     0.019666
      py      :     0.014950
  9 O s       :     3.794405  s :     3.794405
      pz      :     1.447265  p :     4.963976
      px      :     1.637495
      py      :     1.879216
      dz2     :     0.001840  d :     0.018362
      dxz     :     0.009235
      dyz     :     0.001313
      dx2y2   :     0.002660
      dxy     :     0.003314
      f0      :     0.000123  f :     0.001021
      f+1     :     0.000334
      f-1     :     0.000082
      f+2     :     0.000155
      f-2     :     0.000167
      f+3     :     0.000043
      f-3     :     0.000118
 10 H s       :     0.550689  s :     0.550689
      pz      :     0.024441  p :     0.052947
      px      :     0.016038
      py      :     0.012468
 11 H s       :     0.588589  s :     0.588589
      pz      :     0.018780  p :     0.054966
      px      :     0.020016
      py      :     0.016170
 12 O s       :     3.794329  s :     3.794329
      pz      :     1.645392  p :     4.965303
      px      :     1.570937
      py      :     1.748975
      dz2     :     0.002184  d :     0.018624
      dxz     :     0.008823
      dyz     :     0.004922
      dx2y2   :     0.000416
      dxy     :     0.002279
      f0      :     0.000026  f :     0.001002
      f+1     :     0.000076
      f-1     :     0.000037
      f+2     :     0.000081
      f-2     :     0.000440
      f+3     :     0.000091
      f-3     :     0.000250
 13 H s       :     0.586222  s :     0.586222
      pz      :     0.019923  p :     0.056277
      px      :     0.020593
      py      :     0.015762
 14 H s       :     0.550217  s :     0.550217
      pz      :     0.020191  p :     0.054055
      px      :     0.018859
      py      :     0.015005
 15 O s       :     3.798810  s :     3.798810
      pz      :     1.915696  p :     4.954392
      px      :     1.457559
      py      :     1.581136
      dz2     :     0.003866  d :     0.018382
      dxz     :     0.001087
      dyz     :     0.001010
      dx2y2   :     0.009491
      dxy     :     0.002929
      f0      :     0.000109  f :     0.001132
      f+1     :     0.000346
      f-1     :     0.000231
      f+2     :     0.000035
      f-2     :     0.000010
      f+3     :     0.000411
      f-3     :    -0.000010
 16 H s       :     0.565546  s :     0.565546
      pz      :     0.012031  p :     0.055315
      px      :     0.013802
      py      :     0.029482
 17 H s       :     0.551464  s :     0.551464
      pz      :     0.013808  p :     0.042816
      px      :     0.018438
      py      :     0.010570
 18 O s       :     3.793521  s :     3.793521
      pz      :     1.791066  p :     4.963128
      px      :     1.580350
      py      :     1.591713
      dz2     :     0.002834  d :     0.018554
      dxz     :     0.005630
      dyz     :     0.001817
      dx2y2   :     0.003788
      dxy     :     0.004486
      f0      :     0.000112  f :     0.001016
      f+1     :     0.000197
      f-1     :     0.000132
      f+2     :     0.000247
      f-2     :     0.000051
      f+3     :     0.000280
      f-3     :    -0.000004
 19 H s       :     0.580977  s :     0.580977
      pz      :     0.010886  p :     0.055467
      px      :     0.017185
      py      :     0.027396
 20 H s       :     0.552815  s :     0.552815
      pz      :     0.021663  p :     0.052925
      px      :     0.020175
      py      :     0.011087
 21 O s       :     3.789801  s :     3.789801
      pz      :     1.793801  p :     4.941652
      px      :     1.552627
      py      :     1.595224
      dz2     :     0.002899  d :     0.019569
      dxz     :     0.005401
      dyz     :     0.002066
      dx2y2   :     0.004558
      dxy     :     0.004646
      f0      :     0.000157  f :     0.001050
      f+1     :     0.000162
      f-1     :     0.000137
      f+2     :     0.000234
      f-2     :     0.000107
      f+3     :     0.000252
      f-3     :     0.000000
 22 H s       :     0.555805  s :     0.555805
      pz      :     0.019336  p :     0.049941
      px      :     0.019614
      py      :     0.010991
 23 H s       :     0.567302  s :     0.567302
      pz      :     0.011422  p :     0.053286
      px      :     0.015574
      py      :     0.026290
 24 O s       :     3.794638  s :     3.794638
      pz      :     1.585409  p :     4.937562
      px      :     1.859765
      py      :     1.492388
      dz2     :     0.006014  d :     0.019736
      dxz     :     0.004527
      dyz     :     0.001462
      dx2y2   :     0.002376
      dxy     :     0.005356
      f0      :     0.000041  f :     0.001023
      f+1     :     0.000213
      f-1     :     0.000291
      f+2     :     0.000037
      f-2     :     0.000066
      f+3     :     0.000311
      f-3     :     0.000064
 25 H s       :     0.559443  s :     0.559443
      pz      :     0.022620  p :     0.049522
      px      :     0.014819
      py      :     0.012083
 26 H s       :     0.572881  s :     0.572881
      pz      :     0.010323  p :     0.053183
      px      :     0.016520
      py      :     0.026339
 27 O s       :     3.797482  s :     3.797482
      pz      :     1.591509  p :     4.954232
      px      :     1.624003
      py      :     1.738720
      dz2     :     0.000774  d :     0.018239
      dxz     :     0.007241
      dyz     :     0.003143
      dx2y2   :     0.002761
      dxy     :     0.004320
      f0      :     0.000111  f :     0.001143
      f+1     :     0.000062
      f-1     :     0.000320
      f+2     :     0.000126
      f-2     :     0.000425
      f+3     :     0.000028
      f-3     :     0.000072
 28 H s       :     0.570404  s :     0.570404
      pz      :     0.018228  p :     0.054693
      px      :     0.021583
      py      :     0.014882
 29 H s       :     0.549994  s :     0.549994
      pz      :     0.015690  p :     0.042800
      px      :     0.011986
      py      :     0.015124
 30 O s       :     3.797350  s :     3.797350
      pz      :     1.681816  p :     4.954649
      px      :     1.730092
      py      :     1.542741
      dz2     :     0.002947  d :     0.018589
      dxz     :     0.005741
      dyz     :     0.004058
      dx2y2   :     0.004136
      dxy     :     0.001705
      f0      :     0.000055  f :     0.001111
      f+1     :     0.000208
      f-1     :     0.000059
      f+2     :     0.000142
      f-2     :     0.000190
      f+3     :     0.000305
      f-3     :     0.000152
 31 H s       :     0.552143  s :     0.552143
      pz      :     0.011860  p :     0.042787
      px      :     0.013208
      py      :     0.017719
 32 H s       :     0.570208  s :     0.570208
      pz      :     0.023323  p :     0.057158
      px      :     0.021039
      py      :     0.012796
 33 O s       :     3.798199  s :     3.798199
      pz      :     1.560921  p :     4.956803
      px      :     1.808708
      py      :     1.587174
      dz2     :     0.009042  d :     0.018370
      dxz     :     0.001538
      dyz     :     0.002351
      dx2y2   :     0.001313
      dxy     :     0.004126
      f0      :     0.000198  f :     0.001127
      f+1     :     0.000103
      f-1     :     0.000272
      f+2     :     0.000035
      f-2     :     0.000080
      f+3     :     0.000381
      f-3     :     0.000058
 34 H s       :     0.569462  s :     0.569462
      pz      :     0.008538  p :     0.056531
      px      :     0.018741
      py      :     0.029253
 35 H s       :     0.552544  s :     0.552544
      pz      :     0.017762  p :     0.042932
      px      :     0.013080
      py      :     0.012090


                     *******************************
                     * LOEWDIN POPULATION ANALYSIS *
[...]
      dx2y2   :     0.001474
      dxy     :     0.009376
      f0      :     0.000073  f :     0.001889
      f+1     :     0.000416
      f-1     :     0.000585
      f+2     :     0.000027
      f-2     :     0.000203
      f+3     :     0.000568
      f-3     :     0.000016
  4 H s       :     0.668179  s :     0.668179
      pz      :     0.090112  p :     0.181357
      px      :     0.050173
      py      :     0.041073
  5 H s       :     0.667753  s :     0.667753
      pz      :     0.031211  p :     0.197728
      px      :     0.066753
      py      :     0.099763
  6 O s       :     3.453662  s :     3.453662
      pz      :     1.375005  p :     4.835437
      px      :     1.626447
      py      :     1.833985
      dz2     :     0.003076  d :     0.027189
      dxz     :     0.016666
      dyz     :     0.001522
      dx2y2   :     0.002607
      dxy     :     0.003318
      f0      :     0.000082  f :     0.001956
      f+1     :     0.000881
      f-1     :     0.000065
      f+2     :     0.000541
      f-2     :     0.000237
      f+3     :     0.000077
      f-3     :     0.000073
  7 H s       :     0.673412  s :     0.673412
      pz      :     0.077515  p :     0.177334
      px      :     0.056744
      py      :     0.043076
  8 H s       :     0.670560  s :     0.670560
      pz      :     0.065790  p :     0.187095
      px      :     0.072256
      py      :     0.049049
  9 O s       :     3.452381  s :     3.452381
      pz      :     1.401934  p :     4.823978
      px      :     1.618864
      py      :     1.803181
      dz2     :     0.004156  d :     0.027721
      dxz     :     0.014710
      dyz     :     0.002208
      dx2y2   :     0.002103
      dxy     :     0.004544
      f0      :     0.000188  f :     0.001902
      f+1     :     0.000735
      f-1     :     0.000057
      f+2     :     0.000355
      f-2     :     0.000371
      f+3     :     0.000050
      f-3     :     0.000146
 10 H s       :     0.666213  s :     0.666213
      pz      :     0.088540  p :     0.185037
      px      :     0.055757
      py      :     0.040740
 11 H s       :     0.668685  s :     0.668685
      pz      :     0.064285  p :     0.195391
      px      :     0.077234
      py      :     0.053873
 12 O s       :     3.453888  s :     3.453888
      pz      :     1.614900  p :     4.822557
      px      :     1.522810
      py      :     1.684848
      dz2     :     0.001979  d :     0.028245
      dxz     :     0.013611
      dyz     :     0.006317
      dx2y2   :     0.000971
      dxy     :     0.005367
      f0      :     0.000166  f :     0.001896
      f+1     :     0.000348
      f-1     :     0.000153
      f+2     :     0.000144
      f-2     :     0.000740
      f+3     :     0.000071
      f-3     :     0.000274
 13 H s       :     0.667144  s :     0.667144
      pz      :     0.076221  p :     0.200259
      px      :     0.073394
      py      :     0.050644
 14 H s       :     0.665289  s :     0.665289
      pz      :     0.071171  p :     0.188807
      px      :     0.063072
      py      :     0.054564
 15 O s       :     3.447036  s :     3.447036
      pz      :     1.830748  p :     4.810125
      px      :     1.412739
      py      :     1.566637
      dz2     :     0.005173  d :     0.027206
      dxz     :     0.002119
      dyz     :     0.001102
      dx2y2   :     0.013966
      dxy     :     0.004846
      f0      :     0.000043  f :     0.002010
      f+1     :     0.000520
      f-1     :     0.000298
      f+2     :     0.000064
      f-2     :     0.000036
      f+3     :     0.000891
      f-3     :     0.000157
 16 H s       :     0.657031  s :     0.657031
      pz      :     0.038578  p :     0.196212
      px      :     0.043995
      py      :     0.113640
 17 H s       :     0.652686  s :     0.652686
      pz      :     0.043861  p :     0.160558
      px      :     0.083968
      py      :     0.032729
 18 O s       :     3.453649  s :     3.453649
      pz      :     1.715061  p :     4.824369
      px      :     1.525670
      py      :     1.583638
      dz2     :     0.003641  d :     0.027930
      dxz     :     0.009412
      dyz     :     0.001775
      dx2y2   :     0.005527
      dxy     :     0.007575
      f0      :     0.000112  f :     0.001874
      f+1     :     0.000251
      f-1     :     0.000294
      f+2     :     0.000464
      f-2     :     0.000117
      f+3     :     0.000593
      f-3     :     0.000045
 19 H s       :     0.667714  s :     0.667714
      pz      :     0.035775  p :     0.197074
      px      :     0.056100
      py      :     0.105198
 20 H s       :     0.666844  s :     0.666844
      pz      :     0.075247  p :     0.184727
      px      :     0.075649
      py      :     0.033831
 21 O s       :     3.450877  s :     3.450877
      pz      :     1.729161  p :     4.826738
      px      :     1.515888
      py      :     1.581690
      dz2     :     0.003189  d :     0.027551
      dxz     :     0.008335
      dyz     :     0.002040
      dx2y2   :     0.006525
      dxy     :     0.007462
      f0      :     0.000193  f :     0.001956
      f+1     :     0.000178
      f-1     :     0.000293
      f+2     :     0.000429
      f-2     :     0.000188
      f+3     :     0.000568
      f-3     :     0.000108
 22 H s       :     0.672614  s :     0.672614
      pz      :     0.067043  p :     0.176000
      px      :     0.074051
      py      :     0.034906
 23 H s       :     0.669859  s :     0.669859
      pz      :     0.037569  p :     0.185160
      px      :     0.048765
      py      :     0.098826
 24 O s       :     3.456846  s :     3.456846
      pz      :     1.563178  p :     4.833747
      px      :     1.796982
      py      :     1.473588
      dz2     :     0.008783  d :     0.027436
      dxz     :     0.005061
      dyz     :     0.003121
      dx2y2   :     0.003248
      dxy     :     0.007223
      f0      :     0.000125  f :     0.001954
      f+1     :     0.000458
      f-1     :     0.000572
      f+2     :     0.000006
      f-2     :     0.000183
      f+3     :     0.000550
      f-3     :     0.000061
 25 H s       :     0.673855  s :     0.673855
      pz      :     0.086906  p :     0.173909
      px      :     0.050438
      py      :     0.036566
 26 H s       :     0.671418  s :     0.671418
      pz      :     0.030673  p :     0.184213
      px      :     0.056334
      py      :     0.097206
 27 O s       :     3.445075  s :     3.445075
      pz      :     1.534086  p :     4.808795
      px      :     1.606062
      py      :     1.668647
      dz2     :     0.001325  d :     0.027189
      dxz     :     0.011027
      dyz     :     0.005601
      dx2y2   :     0.002755
      dxy     :     0.006481
      f0      :     0.000207  f :     0.002026
      f+1     :     0.000192
      f-1     :     0.000389
      f+2     :     0.000213
      f-2     :     0.000706
      f+3     :     0.000109
      f-3     :     0.000210
 28 H s       :     0.658424  s :     0.658424
      pz      :     0.061320  p :     0.193921
      px      :     0.084199
      py      :     0.048402
 29 H s       :     0.651844  s :     0.651844
      pz      :     0.061277  p :     0.160364
      px      :     0.043923
      py      :     0.055165
 30 O s       :     3.447302  s :     3.447302
      pz      :     1.645678  p :     4.805482
      px      :     1.666824
      py      :     1.492980
      dz2     :     0.004080  d :     0.027552
      dxz     :     0.008656
      dyz     :     0.004975
      dx2y2   :     0.005863
      dxy     :     0.003978
      f0      :     0.000145  f :     0.002030
      f+1     :     0.000412
      f-1     :     0.000186
      f+2     :     0.000357
      f-2     :     0.000296
      f+3     :     0.000441
      f-3     :     0.000194
 31 H s       :     0.653067  s :     0.653067
      pz      :     0.040309  p :     0.160930
      px      :     0.042899
      py      :     0.077722
 32 H s       :     0.655546  s :     0.655546
      pz      :     0.088065  p :     0.202554
      px      :     0.074165
      py      :     0.040324
 33 O s       :     3.447655  s :     3.447655
      pz      :     1.524659  p :     4.812383
      px      :     1.737256
      py      :     1.550468
      dz2     :     0.012219  d :     0.027211
      dxz     :     0.002720
      dyz     :     0.003660
      dx2y2   :     0.001912
      dxy     :     0.006700
      f0      :     0.000515  f :     0.002014
      f+1     :     0.000203
      f-1     :     0.000580
      f+2     :     0.000042
      f-2     :     0.000098
      f+3     :     0.000566
      f-3     :     0.000010
 34 H s       :     0.656509  s :     0.656509
      pz      :     0.027614  p :     0.200263
      px      :     0.064756
      py      :     0.107894
 35 H s       :     0.653676  s :     0.653676
      pz      :     0.081809  p :     0.160853
      px      :     0.041226
      py      :     0.037818


                      *****************************
                      * MAYER POPULATION ANALYSIS *
                      *****************************

  NA   - Mulliken gross atomic population
  ZA   - Total nuclear charge
  QA   - Mulliken gross atomic charge
  VA   - Mayer's total valence
  BVA  - Mayer's bonded valence
  FA   - Mayer's free valence

  ATOM       NA         ZA         QA         VA         BVA        FA
  0 O      8.7551     8.0000    -0.7551     1.7628     1.7628    -0.0000
  1 H      0.6248     1.0000     0.3752     0.9148     0.9148     0.0000
  2 H      0.6058     1.0000     0.3942     0.8851     0.8851    -0.0000
  3 O      8.7739     8.0000    -0.7739     1.7455     1.7455    -0.0000
  4 H      0.6050     1.0000     0.3950     0.8978     0.8978    -0.0000
  5 H      0.6397     1.0000     0.3603     0.9336     0.9336     0.0000
  6 O      8.7593     8.0000    -0.7593     1.7541     1.7541     0.0000
  7 H      0.6075     1.0000     0.3925     0.8852     0.8852     0.0000
  8 H      0.6262     1.0000     0.3738     0.9179     0.9179     0.0000
  9 O      8.7778     8.0000    -0.7778     1.7362     1.7362    -0.0000
 10 H      0.6036     1.0000     0.3964     0.9000     0.9000    -0.0000
 11 H      0.6436     1.0000     0.3564     0.9387     0.9387    -0.0000
 12 O      8.7793     8.0000    -0.7793     1.7339     1.7339    -0.0000
 13 H      0.6425     1.0000     0.3575     0.9386     0.9386    -0.0000
 14 H      0.6043     1.0000     0.3957     0.9010     0.9010    -0.0000
 15 O      8.7727     8.0000    -0.7727     1.7812     1.7812    -0.0000
 16 H      0.6209     1.0000     0.3791     0.9090     0.9090     0.0000
 17 H      0.5943     1.0000     0.4057     0.8551     0.8551    -0.0000
 18 O      8.7762     8.0000    -0.7762     1.7463     1.7463    -0.0000
 19 H      0.6364     1.0000     0.3636     0.9292     0.9292    -0.0000
 20 H      0.6057     1.0000     0.3943     0.9035     0.9035    -0.0000
 21 O      8.7521     8.0000    -0.7521     1.7700     1.7700    -0.0000
 22 H      0.6057     1.0000     0.3943     0.8830     0.8830    -0.0000
 23 H      0.6206     1.0000     0.3794     0.9102     0.9102    -0.0000
 24 O      8.7530     8.0000    -0.7530     1.7672     1.7672    -0.0000
 25 H      0.6090     1.0000     0.3910     0.8844     0.8844    -0.0000
 26 H      0.6261     1.0000     0.3739     0.9155     0.9155    -0.0000
 27 O      8.7711     8.0000    -0.7711     1.7796     1.7796     0.0000
 28 H      0.6251     1.0000     0.3749     0.9146     0.9146     0.0000
 29 H      0.5928     1.0000     0.4072     0.8538     0.8538    -0.0000
 30 O      8.7717     8.0000    -0.7717     1.7722     1.7722     0.0000
 31 H      0.5949     1.0000     0.4051     0.8551     0.8551     0.0000
 32 H      0.6274     1.0000     0.3726     0.9194     0.9194     0.0000
 33 O      8.7745     8.0000    -0.7745     1.7696     1.7696     0.0000
 34 H      0.6260     1.0000     0.3740     0.9176     0.9176     0.0000
 35 H      0.5955     1.0000     0.4045     0.8558     0.8558     0.0000

  Mayer bond orders larger than 0.1
B(  0-O ,  1-H ) :   0.8070 B(  0-O ,  2-H ) :   0.8178 B(  0-O , 34-H ) :   0.1439 
B(  3-O ,  4-H ) :   0.8021 B(  3-O ,  5-H ) :   0.7755 B(  3-O , 11-H ) :   0.1396 
B(  5-H , 12-O ) :   0.1396 B(  6-O ,  7-H ) :   0.8225 B(  6-O ,  8-H ) :   0.8028 
B(  6-O , 16-H ) :   0.1302 B(  8-H , 33-O ) :   0.1062 B(  9-O , 10-H ) :   0.7933 
B(  9-O , 11-H ) :   0.7761 B(  9-O , 19-H ) :   0.1318 B( 12-O , 13-H ) :   0.7709 
B( 12-O , 14-H ) :   0.7903 B( 13-H , 18-O ) :   0.1452 B( 15-O , 16-H ) :   0.7666 
B( 15-O , 17-H ) :   0.8404 B( 18-O , 19-H ) :   0.7763 B( 18-O , 20-H ) :   0.7939 
B( 21-O , 22-H ) :   0.8220 B( 21-O , 23-H ) :   0.8041 B( 21-O , 32-H ) :   0.1475 
B( 24-O , 25-H ) :   0.8278 B( 24-O , 26-H ) :   0.8086 B( 24-O , 28-H ) :   0.1332 
B( 27-O , 28-H ) :   0.7696 B( 27-O , 29-H ) :   0.8393 B( 30-O , 31-H ) :   0.8414 
B( 30-O , 32-H ) :   0.7589 B( 33-O , 34-H ) :   0.7610 B( 33-O , 35-H ) :   0.8417 


-------
TIMINGS
-------

Total SCF time: 0 days 0 hours 0 min 48 sec 

Total time                  ....      48.436 sec
Sum of individual times     ....      49.601 sec  (102.4%)

Fock matrix formation       ....      36.549 sec  ( 75.5%)
  Coulomb formation         ....      32.292 sec  ( 88.4% of F)
  Split-RI-J                ....       2.906 sec  (  8.0% of F)
  Chain of spheres X        ....      29.896 sec  ( 81.8% of F)
  COS-X 1 center corr.      ....       0.000 sec  (  0.0% of F)
  XC integration            ....       4.182 sec  ( 11.4% of F)
    Basis function eval.    ....       1.026 sec  ( 24.5% of XC)
    Density eval.           ....       0.895 sec  ( 21.4% of XC)
    XC-Functional eval.     ....       0.442 sec  ( 10.6% of XC)
    XC-Potential eval.      ....       1.392 sec  ( 33.3% of XC)
Diagonalization             ....       0.571 sec  (  1.2%)
Density matrix formation    ....       0.041 sec  (  0.1%)
Population analysis         ....       0.402 sec  (  0.8%)
Initial guess               ....       1.344 sec  (  2.8%)
Orbital Transformation      ....       0.000 sec  (  0.0%)
Orbital Orthonormalization  ....       0.000 sec  (  0.0%)
DIIS solution               ....       0.179 sec  (  0.4%)
SOSCF solution              ....       1.503 sec  (  3.1%)
Grid generation             ....       2.934 sec  (  6.1%)
COSMO(total)                ....       6.076 sec  ( 12.5%)
   Initialization           ....       1.901 sec  ( 31.3% of COSMO)
   Potential evaluation     ....       2.105 sec  ( 34.6% of COSMO)
   Charge calculation       ....       0.409 sec  (  6.7% of COSMO)
   Fock-Matrix contrib.     ....       1.672 sec  ( 27.5% of COSMO)
   Outer-lying charge       ....       0.192 sec  (  3.2% of COSMO)
           ************************************************************
           *              Shut down parallel processing               *
           ************************************************************

Entering the calculation of the dispersion correction...

Checking the input atom types...

Done


-------------------------------------------------------------------------------
                          DFT DISPERSION CORRECTION                            
                                                                               
                                DFTD3 V2.1  Rev 6                               
                              USING zero damping                               
-------------------------------------------------------------------------------
The omegaB97X-D3 functional is recognized. Fit by Chai et al.
Active option DFTDOPT                   ...         3   

molecular C6(AA) [au] = 6407.549321 


            DFT-D V3
 parameters
 s6 scaling factor         :     1.0000 
 rs6 scaling factor        :     1.2810 
 s8 scaling factor         :     1.0000 
 rs8 scaling factor        :     1.0940 
 Damping factor alpha6     :    14.0000 
 Damping factor alpha8     :    16.0000 
 ad hoc parameters k1-k3   :    16.0000     1.3333    -4.0000 

 Edisp/kcal,au: -13.849149153604  -0.022070021647 
 E6   /kcal   :  -7.501725441 
 E8   /kcal   :  -6.347423712 
 % E8         :  45.832589729 

-------------------------   ----------------
Dispersion correction           -0.022070022
-------------------------   ----------------


-------------------------   --------------------
FINAL SINGLE POINT ENERGY      -917.517353028546
-------------------------   --------------------


                            ***************************************
                            *     ORCA property calculations      *
                            ***************************************

                                    ---------------------
                                    Active property flags
                                    ---------------------
   (+) Dipole Moment


------------------------------------------------------------------------------
                       ORCA ELECTRIC PROPERTIES CALCULATION
------------------------------------------------------------------------------

Dipole Moment Calculation                       ... on
Quadrupole Moment Calculation                   ... off
Polarizability Calculation                      ... off
GBWName                                         ... 0_wB97X_SMD_onB3LYP_SMD_12_waters.gbw
Electron density file                           ... 0_wB97X_SMD_onB3LYP_SMD_12_waters.scfp.tmp

-------------
DIPOLE MOMENT
-------------
                                X             Y             Z
Electronic contribution:     -0.00340      -0.00956      -0.09679
Nuclear contribution   :      0.11488       0.14740      -0.02026
                        -----------------------------------------
Total Dipole Moment    :      0.11149       0.13784      -0.11705
                        -----------------------------------------
Magnitude (a.u.)       :      0.21244
Magnitude (Debye)      :      0.53998

smp-n113.crc.pitt.edu.382140hfi_wait_for_device: The /dev/hfi1_0 device failed to appear after 15.0 seconds: Connection timed out
smp-n113.crc.pitt.edu.382141hfi_wait_for_device: The /dev/hfi1_0 device failed to appear after 15.0 seconds: Connection timed out
smp-n113.crc.pitt.edu.382142hfi_wait_for_device: The /dev/hfi1_0 device failed to appear after 15.0 seconds: Connection timed out
smp-n113.crc.pitt.edu.382132hfi_wait_for_device: The /dev/hfi1_0 device failed to appear after 15.0 seconds: Connection timed out
smp-n113.crc.pitt.edu.382133hfi_wait_for_device: The /dev/hfi1_0 device failed to appear after 15.0 seconds: Connection timed out
smp-n113.crc.pitt.edu.382134hfi_wait_for_device: The /dev/hfi1_0 device failed to appear after 15.0 seconds: Connection timed out
smp-n113.crc.pitt.edu.382135hfi_wait_for_device: The /dev/hfi1_0 device failed to appear after 15.0 seconds: Connection timed out
smp-n113.crc.pitt.edu.382136hfi_wait_for_device: The /dev/hfi1_0 device failed to appear after 15.0 seconds: Connection timed out
smp-n113.crc.pitt.edu.382138hfi_wait_for_device: The /dev/hfi1_0 device failed to appear after 15.0 seconds: Connection timed out
smp-n113.crc.pitt.edu.382139hfi_wait_for_device: The /dev/hfi1_0 device failed to appear after 15.0 seconds: Connection timed out
smp-n113.crc.pitt.edu.382137hfi_wait_for_device: The /dev/hfi1_0 device failed to appear after 15.0 seconds: Connection timed out
smp-n113.crc.pitt.edu.382144hfi_wait_for_device: The /dev/hfi1_0 device failed to appear after 15.0 seconds: Connection timed out

Timings for individual modules:

Sum of individual times         ...       81.505 sec (=   1.358 min)
GTO integral calculation        ...       15.790 sec (=   0.263 min)  19.4 %
SCF iterations                  ...       65.715 sec (=   1.095 min)  80.6 %
                             ****ORCA TERMINATED NORMALLY****
TOTAL RUN TIME: 0 days 0 hours 1 minutes 37 seconds 10 msec
cp: cannot stat /scratch/slurm-1321627/*.{prop}: No such file or directory
