
                                 *****************
                                 * O   R   C   A *
                                 *****************

           --- An Ab Initio, DFT and Semiempirical electronic structure package ---

                  #######################################################
                  #                        -***-                        #
                  #          Department of theory and spectroscopy      #
                  #               Directorship: Frank Neese             #
                  #        Max Planck Institute fuer Kohlenforschung    #
                  #                Kaiser Wilhelm Platz 1               #
                  #                 D-45470 Muelheim/Ruhr               #
                  #                      Germany                        #
                  #                                                     #
                  #                  All rights reserved                #
                  #                        -***-                        #
                  #######################################################


                         Program Version 4.2.0 -  RELEASE  -


 With contributions from (in alphabetic order):
   Daniel Aravena         : Magnetic Suceptibility
   Michael Atanasov       : Ab Initio Ligand Field Theory (pilot matlab implementation)
   Alexander A. Auer      : GIAO ZORA, VPT2
   Ute Becker             : Parallelization
   Giovanni Bistoni       : ED, misc. LED, open-shell LED, HFLED
   Martin Brehm           : Molecular dynamics
   Dmytro Bykov           : SCF Hessian
   Vijay G. Chilkuri      : MRCI spin determinant printing, contributions to CSF-ICE
   Dipayan Datta          : RHF DLPNO-CCSD density
   Achintya Kumar Dutta   : EOM-CC, STEOM-CC
   Dmitry Ganyushin       : Spin-Orbit,Spin-Spin,Magnetic field MRCI
   Miquel Garcia          : C-PCM Hessian, Gaussian charge scheme
   Yang Guo               : DLPNO-NEVPT2, CIM, IAO-localization
   Andreas Hansen         : Spin unrestricted coupled pair/coupled cluster methods
   Benjamin Helmich-Paris : CASSCF linear response (MC-RPA)
   Lee Huntington         : MR-EOM, pCC
   Robert Izsak           : Overlap fitted RIJCOSX, COSX-SCS-MP3, EOM
   Christian Kollmar      : KDIIS, OOCD, Brueckner-CCSD(T), CCSD density
   Simone Kossmann        : Meta GGA functionals, TD-DFT gradient, OOMP2, MP2 Hessian
   Martin Krupicka        : AUTO-CI
   Lucas Lang             : DCDCAS
   Dagmar Lenk            : GEPOL surface, SMD
   Dimitrios Liakos       : Extrapolation schemes; Compound Job, initial MDCI parallelization
   Dimitrios Manganas     : Further ROCIS development; embedding schemes
   Dimitrios Pantazis     : SARC Basis sets
   Taras Petrenko         : DFT Hessian,TD-DFT gradient, ASA, ECA, R-Raman, ABS, FL, XAS/XES, NRVS
   Peter Pinski           : DLPNO-MP2, DLPNO-MP2 Gradient
   Christoph Reimann      : Effective Core Potentials
   Marius Retegan         : Local ZFS, SOC
   Christoph Riplinger    : Optimizer, TS searches, QM/MM, DLPNO-CCSD(T), (RO)-DLPNO pert. Triples
   Tobias Risthaus        : Range-separated hybrids, TD-DFT gradient, RPA, STAB
   Michael Roemelt        : Original ROCIS implementation
   Masaaki Saitow         : Open-shell DLPNO-CCSD energy and density
   Barbara Sandhoefer     : DKH picture change effects
   Avijit Sen             : IP-ROCIS
   Kantharuban Sivalingam : CASSCF convergence, NEVPT2, FIC-MRCI
   Bernardo de Souza      : ESD, SOC TD-DFT
   Georgi Stoychev        : AutoAux, RI-MP2 NMR
   Willem Van den Heuvel  : Paramagnetic NMR
   Boris Wezisla          : Elementary symmetry handling
   Frank Wennmohs         : Technical directorship


 We gratefully acknowledge several colleagues who have allowed us to
 interface, adapt or use parts of their codes:
   Stefan Grimme, W. Hujo, H. Kruse,             : VdW corrections, initial TS optimization,
                  C. Bannwarth                     DFT functionals, gCP, sTDA/sTD-DF
   Ed Valeev, F. Pavosevic, A. Kumar             : LibInt (2-el integral package), F12 methods
   Garnet Chan, S. Sharma, J. Yang, R. Olivares  : DMRG
   Ulf Ekstrom                                   : XCFun DFT Library
   Mihaly Kallay                                 : mrcc  (arbitrary order and MRCC methods)
   Andreas Klamt, Michael Diedenhofen            : otool_cosmo (COSMO solvation model)
   Jiri Pittner, Ondrej Demel                    : Mk-CCSD
   Frank Weinhold                                : gennbo (NPA and NBO analysis)
   Christopher J. Cramer and Donald G. Truhlar   : smd solvation model
   Lars Goerigk                                  : TD-DFT with DH, B97 family of functionals
   V. Asgeirsson, H. Jonsson                     : NEB implementation
   FAccTs GmbH                                   : IRC, NEB, NEB-TS, Multilevel, MM, QM/MM, CI optimization
   S Lehtola, MJT Oliveira, MAL Marques          : LibXC Library


 Your calculation uses the libint2 library for the computation of 2-el integrals
 For citations please refer to: http://libint.valeyev.net

 Your ORCA version has been built with support for libXC version: 4.2.3
 For citations please refer to: https://tddft.org/programs/libxc/

 This ORCA versions uses:
   CBLAS   interface :  Fast vector & matrix operations
   LAPACKE interface :  Fast linear algebra routines
   SCALAPACK package :  Parallel linear algebra routines


----- Orbital basis set information -----
Your calculation utilizes the basis: def2-TZVP
   F. Weigend and R. Ahlrichs, Phys. Chem. Chem. Phys. 7, 3297 (2005).

================================================================================
                                        WARNINGS
                       Please study these warnings very carefully!
================================================================================


WARNING: The frozen-core approximation for MP2-gradient calculations is turned on by default.

INFO   : the flag for use of LIBINT has been found!

================================================================================
                                       INPUT FILE
================================================================================
NAME = 12h2o.su.etal.mol3,4,7,8,9,10-orca.engrad-mp2.def2tzvp.frozencore.inp
|  1> # 12h2o.su.etal.mol3,4,7,8,9,10
|  2> ! MP2 def2-TZVP EnGrad TightSCF
|  3> 
|  4> %pal
|  5>     nprocs 6
|  6> end
|  7> 
|  8> %maxcore 8000
|  9> 
| 10> %scf
| 11>     ConvForced true
| 12> end
| 13> 
| 14> *xyz 0 1
| 15> O  -1.752130000  -0.741530000  -2.896280000
| 16> H  -2.036450000  -0.920500000  -1.984040000
| 17> H  -0.921210000  -1.242140000  -2.984230000
| 18> O  -0.885520000   1.737840000   0.052730000
| 19> H  -1.032320000   2.090180000  -0.841890000
| 20> H  -1.284090000   0.839590000   0.017130000
| 21> O  -1.737840000  -0.885520000  -0.052730000
| 22> H  -2.090180000  -1.032320000   0.841890000
| 23> H  -0.839590000  -1.284090000  -0.017130000
| 24> O   1.752130000   0.741530000  -2.896280000
| 25> H   2.036450000   0.920500000  -1.984040000
| 26> H   0.921210000   1.242140000  -2.984230000
| 27> O   0.741530000  -1.752130000   2.896280000
| 28> H   0.920500000  -2.036450000   1.984040000
| 29> H   1.242140000  -0.921210000   2.984230000
| 30> O  -0.923410000   1.794470000  -2.768350000
| 31> H  -1.359750000   2.338250000  -3.430940000
| 32> H  -1.303000000   0.879480000  -2.865760000
| 33> *
| 34> 
| 35>                          ****END OF INPUT****
================================================================================

                     *******************************
                     * Energy+Gradient Calculation *
                     *******************************

---------------------------------
CARTESIAN COORDINATES (ANGSTROEM)
---------------------------------
  O     -1.752130   -0.741530   -2.896280
  H     -2.036450   -0.920500   -1.984040
  H     -0.921210   -1.242140   -2.984230
  O     -0.885520    1.737840    0.052730
  H     -1.032320    2.090180   -0.841890
  H     -1.284090    0.839590    0.017130
  O     -1.737840   -0.885520   -0.052730
  H     -2.090180   -1.032320    0.841890
  H     -0.839590   -1.284090   -0.017130
  O      1.752130    0.741530   -2.896280
  H      2.036450    0.920500   -1.984040
  H      0.921210    1.242140   -2.984230
  O      0.741530   -1.752130    2.896280
  H      0.920500   -2.036450    1.984040
  H      1.242140   -0.921210    2.984230
  O     -0.923410    1.794470   -2.768350
  H     -1.359750    2.338250   -3.430940
  H     -1.303000    0.879480   -2.865760

----------------------------
CARTESIAN COORDINATES (A.U.)
----------------------------
  NO LB      ZA    FRAG     MASS         X           Y           Z
   0 O     8.0000    0    15.999   -3.311046   -1.401289   -5.473176
   1 H     1.0000    0     1.008   -3.848333   -1.739493   -3.749292
   2 H     1.0000    0     1.008   -1.740835   -2.347304   -5.639377
   3 O     8.0000    0    15.999   -1.673390    3.284042    0.099645
   4 H     1.0000    0     1.008   -1.950802    3.949868   -1.590942
   5 H     1.0000    0     1.008   -2.426578    1.586595    0.032371
   6 O     8.0000    0    15.999   -3.284042   -1.673390   -0.099645
   7 H     1.0000    0     1.008   -3.949868   -1.950802    1.590942
   8 H     1.0000    0     1.008   -1.586595   -2.426578   -0.032371
   9 O     8.0000    0    15.999    3.311046    1.401289   -5.473176
  10 H     1.0000    0     1.008    3.848333    1.739493   -3.749292
  11 H     1.0000    0     1.008    1.740835    2.347304   -5.639377
  12 O     8.0000    0    15.999    1.401289   -3.311046    5.473176
  13 H     1.0000    0     1.008    1.739493   -3.848333    3.749292
  14 H     1.0000    0     1.008    2.347304   -1.740835    5.639377
  15 O     8.0000    0    15.999   -1.744992    3.391057   -5.231423
  16 H     1.0000    0     1.008   -2.569555    4.418652   -6.483537
  17 H     1.0000    0     1.008   -2.462313    1.661976   -5.415502

--------------------------------
INTERNAL COORDINATES (ANGSTROEM)
--------------------------------
 O      0   0   0     0.000000000000     0.00000000     0.00000000
 H      1   0   0     0.972136791249     0.00000000     0.00000000
 H      1   2   0     0.974050112161   103.86323780     0.00000000
 O      2   1   3     3.541164138161   107.84672602    95.40582707
 H      4   2   1     0.972645187106    72.17296994    29.09453504
 H      4   2   1     0.983350632989    33.04029707   190.88793319
 O      6   4   2     1.785153773264   170.81379649    88.00403199
 H      7   6   4     0.972645187106   101.65007623   109.44492584
 H      7   6   4     0.983350632989    99.09581498     3.33484705
 O      3   1   2     3.330079372477   112.10393238   255.21753522
 H     10   3   1     0.972136791249   111.66865871    85.41731375
 H     10   3   1     0.974050112161    67.60081190   348.80737033
 O      9   7   6     3.347679752321   121.30565948    83.11460775
 H     13   9   7     0.972136791249    46.46358234   170.36223581
 H     13   9   7     0.974050112161   101.65702229   268.49406050
 O     12  10   3     1.937600461318   161.54375213    38.18707961
 H     16  12  10     0.961828878803   121.08403650   202.75419110
 H     16  12  10     0.995381322057    95.17003195   315.21089530

---------------------------
INTERNAL COORDINATES (A.U.)
---------------------------
 O      0   0   0     0.000000000000     0.00000000     0.00000000
 H      1   0   0     1.837072300170     0.00000000     0.00000000
 H      1   2   0     1.840687952699   103.86323780     0.00000000
 O      2   1   3     6.691830416388   107.84672602    95.40582707
 H      4   2   1     1.838033029106    72.17296994    29.09453504
 H      4   2   1     1.858263389967    33.04029707   190.88793319
 O      6   4   2     3.373451738406   170.81379649    88.00403199
 H      7   6   4     1.838033029106   101.65007623   109.44492584
 H      7   6   4     1.858263389967    99.09581498     3.33484705
 O      3   1   2     6.292938018203   112.10393238   255.21753522
 H     10   3   1     1.837072300170   111.66865871    85.41731375
 H     10   3   1     1.840687952699    67.60081190   348.80737033
 O      9   7   6     6.326197915960   121.30565948    83.11460775
 H     13   9   7     1.837072300170    46.46358234   170.36223581
 H     13   9   7     1.840687952699   101.65702229   268.49406050
 O     12  10   3     3.661534228851   161.54375213    38.18707961
 H     16  12  10     1.817593168635   121.08403650   202.75419110
 H     16  12  10     1.880998097508    95.17003195   315.21089530

---------------------
BASIS SET INFORMATION
---------------------
There are 2 groups of distinct atoms

 Group   1 Type O   : 11s6p2d1f contracted to 5s3p2d1f pattern {62111/411/11/1}
 Group   2 Type H   : 5s1p contracted to 3s1p pattern {311/1}

Atom   0O    basis set group =>   1
Atom   1H    basis set group =>   2
Atom   2H    basis set group =>   2
Atom   3O    basis set group =>   1
Atom   4H    basis set group =>   2
Atom   5H    basis set group =>   2
Atom   6O    basis set group =>   1
Atom   7H    basis set group =>   2
Atom   8H    basis set group =>   2
Atom   9O    basis set group =>   1
Atom  10H    basis set group =>   2
Atom  11H    basis set group =>   2
Atom  12O    basis set group =>   1
Atom  13H    basis set group =>   2
Atom  14H    basis set group =>   2
Atom  15O    basis set group =>   1
Atom  16H    basis set group =>   2
Atom  17H    basis set group =>   2


           ************************************************************
           *        Program running with 6 parallel MPI-processes     *
           *              working on a common directory               *
           ************************************************************
------------------------------------------------------------------------------
                           ORCA GTO INTEGRAL CALCULATION
------------------------------------------------------------------------------

                         BASIS SET STATISTICS AND STARTUP INFO

 # of primitive gaussian shells          ...  192
 # of primitive gaussian functions       ...  372
 # of contracted shells                  ...  114
 # of contracted basis functions         ...  258
 Highest angular momentum                ...    3
 Maximum contraction depth               ...    6
 Integral package used                   ... LIBINT
 Integral threshhold            Thresh   ...  2.500e-11
 Primitive cut-off              TCut     ...  2.500e-12


------------------------------ INTEGRAL EVALUATION ----------------------------


 * One electron integrals 
 Pre-screening matrix                    ... done
 Shell pair data                         ... done (   0.001 sec)



           ************************************************************
           *        Program running with 6 parallel MPI-processes     *
           *              working on a common directory               *
           ************************************************************
-------------------------------------------------------------------------------
                                 ORCA SCF
-------------------------------------------------------------------------------

------------
SCF SETTINGS
------------
Hamiltonian:
 Ab initio Hamiltonian  Method          .... Hartree-Fock(GTOs)


General Settings:
 Integral files         IntName         .... 12h2o.su.etal.mol3,4,7,8,9,10-orca.engrad-mp2.def2tzvp.frozencore
 Hartree-Fock type      HFTyp           .... RHF
 Total Charge           Charge          ....    0
 Multiplicity           Mult            ....    1
 Number of Electrons    NEL             ....   60
 Basis Dimension        Dim             ....  258
 Nuclear Repulsion      ENuc            ....    265.1603339023 Eh

Convergence Acceleration:
 DIIS                   CNVDIIS         .... on
   Start iteration      DIISMaxIt       ....    12
   Startup error        DIISStart       ....  0.200000
   # of expansion vecs  DIISMaxEq       ....     5
   Bias factor          DIISBfac        ....   1.050
   Max. coefficient     DIISMaxC        ....  10.000
 Newton-Raphson         CNVNR           .... off
 SOSCF                  CNVSOSCF        .... on
   Start iteration      SOSCFMaxIt      ....   150
   Startup grad/error   SOSCFStart      ....  0.003300
 Level Shifting         CNVShift        .... on
   Level shift para.    LevelShift      ....    0.2500
   Turn off err/grad.   ShiftErr        ....    0.0010
 Zerner damping         CNVZerner       .... off
 Static damping         CNVDamp         .... on
   Fraction old density DampFac         ....    0.7000
   Max. Damping (<1)    DampMax         ....    0.9800
   Min. Damping (>=0)   DampMin         ....    0.0000
   Turn off err/grad.   DampErr         ....    0.1000
 Fernandez-Rico         CNVRico         .... off

SCF Procedure:
 Maximum # iterations   MaxIter         ....   125
 SCF integral mode      SCFMode         .... Direct
   Integral package                     .... LIBINT
 Reset frequency        DirectResetFreq ....    20
 Integral Threshold     Thresh          ....  2.500e-11 Eh
 Primitive CutOff       TCut            ....  2.500e-12 Eh

Convergence Tolerance:
 Convergence Check Mode ConvCheckMode   .... Total+1el-Energy
 Convergence forced     ConvForced      .... 1
 Energy Change          TolE            ....  1.000e-08 Eh
 1-El. energy change                    ....  1.000e-05 Eh
 Orbital Gradient       TolG            ....  1.000e-05
 Orbital Rotation angle TolX            ....  1.000e-05
 DIIS Error             TolErr          ....  5.000e-07


Diagonalization of the overlap matrix:
Smallest eigenvalue                        ... 3.799e-03
Time for diagonalization                   ...    0.011 sec
Threshold for overlap eigenvalues          ... 1.000e-08
Number of eigenvalues below threshold      ... 0
Time for construction of square roots      ...    0.005 sec
Total time needed                          ...    0.016 sec

-------------------
DFT GRID GENERATION
-------------------

General Integration Accuracy     IntAcc      ...  4.340
Radial Grid Type                 RadialGrid  ... Gauss-Chebyshev
Angular Grid (max. acc.)         AngularGrid ... Lebedev-110
Angular grid pruning method      GridPruning ... 3 (G Style)
Weight generation scheme         WeightScheme... Becke
Basis function cutoff            BFCut       ...    1.0000e-11
Integration weight cutoff        WCut        ...    1.0000e-14
Grids for H and He will be reduced by one unit

# of grid points (after initial pruning)     ...  19824 (   0.0 sec)
# of grid points (after weights+screening)   ...  18732 (   0.0 sec)
nearest neighbour list constructed           ...    0.0 sec
Grid point re-assignment to atoms done       ...    0.0 sec
Grid point division into batches done        ...    0.0 sec
Reduced shell lists constructed in    0.0 sec

Total number of grid points                  ...    18732
Total number of batches                      ...      302
Average number of points per batch           ...       62
Average number of grid points per atom       ...     1041
Average number of shells per batch           ...    62.33 (54.67%)
Average number of basis functions per batch  ...   129.33 (50.13%)
Average number of large shells per batch     ...    43.96 (70.53%)
Average number of large basis fcns per batch ...    87.15 (67.39%)
Maximum spatial batch extension              ...  15.87, 15.19, 14.40 au
Average spatial batch extension              ...   0.63,  0.68,  0.55 au

Time for grid setup =    0.058 sec

------------------------------
INITIAL GUESS: MODEL POTENTIAL
------------------------------
Loading Hartree-Fock densities                     ... done
Calculating cut-offs                               ... done
Setting up the integral package                    ... done
Initializing the effective Hamiltonian             ... done
Starting the Coulomb interaction                   ... done (   0.0 sec)
Reading the grid                                   ... done
Mapping shells                                     ... done
Starting the XC term evaluation                    ... done (   0.0 sec)
Transforming the Hamiltonian                       ... done (   0.0 sec)
Diagonalizing the Hamiltonian                      ... done (   0.0 sec)
Back transforming the eigenvectors                 ... done (   0.0 sec)
Now organizing SCF variables                       ... done
                      ------------------
                      INITIAL GUESS DONE (   0.2 sec)
                      ------------------
--------------
SCF ITERATIONS
--------------
ITER       Energy         Delta-E        Max-DP      RMS-DP      [F,P]     Damp
               ***  Starting incremental Fock matrix formation  ***
  0   -455.8292893431   0.000000000000 0.04464645  0.00097336  0.3472911 0.7000
  1   -456.0413386838  -0.212049340657 0.02953222  0.00067423  0.2169143 0.7000
                               ***Turning on DIIS***
  2   -456.1534797382  -0.112141054402 0.01651515  0.00037637  0.1638140 0.7000
  3   -457.1430073716  -0.989527633403 0.00737097  0.00017268  0.1218707 0.7000
  4   -456.9414149419   0.201592429751 0.01649792  0.00040125  0.0862193 0.0000
  5   -456.4102962920   0.531118649812 0.00231767  0.00006441  0.0057012 0.0000
                      *** Initiating the SOSCF procedure ***
                           *** Shutting down DIIS ***
                      *** Re-Reading the Fockian *** 
                      *** Removing any level shift *** 
ITER      Energy       Delta-E        Grad      Rot      Max-DP    RMS-DP
  6   -456.37835558   0.0319407150  0.000814  0.000814  0.001370  0.000039
               *** Restarting incremental Fock matrix formation ***
  7   -456.36992495   0.0084306275  0.000241  0.000356  0.000629  0.000017
  8   -456.36993379  -0.0000088411  0.000163  0.000302  0.000470  0.000014
  9   -456.36993590  -0.0000021068  0.000086  0.000042  0.000114  0.000003
 10   -456.36993607  -0.0000001752  0.000012  0.000006  0.000022  0.000000
                  ***Gradient check signals convergence***
              ***Rediagonalizing the Fockian in SOSCF/NRSCF***

               *****************************************************
               *                     SUCCESS                       *
               *           SCF CONVERGED AFTER  11 CYCLES          *
               *****************************************************


----------------
TOTAL SCF ENERGY
----------------

Total Energy       :         -456.36993608 Eh          -12418.45730 eV

Components:
Nuclear Repulsion  :          265.16033390 Eh            7215.37951 eV
Electronic Energy  :         -721.53026998 Eh          -19633.83681 eV
One Electron Energy:        -1158.05207168 Eh          -31512.19892 eV
Two Electron Energy:          436.52180170 Eh           11878.36211 eV

Virial components:
Potential Energy   :         -912.15023151 Eh          -24820.86967 eV
Kinetic Energy     :          455.78029544 Eh           12402.41237 eV
Virial Ratio       :            2.00129369


---------------
SCF CONVERGENCE
---------------

  Last Energy change         ...   -3.1225e-09  Tolerance :   1.0000e-08
  Last MAX-Density change    ...    6.5667e-06  Tolerance :   1.0000e-07
  Last RMS-Density change    ...    1.5260e-07  Tolerance :   5.0000e-09
  Last Orbital Gradient      ...    2.4181e-06  Tolerance :   1.0000e-05
  Last Orbital Rotation      ...    2.3665e-06  Tolerance :   1.0000e-05

             **** THE GBW FILE WAS UPDATED (12h2o.su.etal.mol3,4,7,8,9,10-orca.engrad-mp2.def2tzvp.frozencore.gbw) ****
             **** DENSITY FILE WAS UPDATED (12h2o.su.etal.mol3,4,7,8,9,10-orca.engrad-mp2.def2tzvp.frozencore.scfp) ****
             **** ENERGY FILE WAS UPDATED (12h2o.su.etal.mol3,4,7,8,9,10-orca.engrad-mp2.def2tzvp.frozencore.en.tmp) ****
             **** THE GBW FILE WAS UPDATED (12h2o.su.etal.mol3,4,7,8,9,10-orca.engrad-mp2.def2tzvp.frozencore.gbw) ****
             **** DENSITY FILE WAS UPDATED (12h2o.su.etal.mol3,4,7,8,9,10-orca.engrad-mp2.def2tzvp.frozencore.scfp) ****
----------------
ORBITAL ENERGIES
----------------

  NO   OCC          E(Eh)            E(eV) 
   0   2.0000     -20.628295      -561.3244 
   1   2.0000     -20.591642      -560.3271 
   2   2.0000     -20.583559      -560.1071 
   3   2.0000     -20.562167      -559.5250 
   4   2.0000     -20.534373      -558.7687 
   5   2.0000     -20.512918      -558.1849 
   6   2.0000      -1.411557       -38.4104 
   7   2.0000      -1.380812       -37.5738 
   8   2.0000      -1.362473       -37.0748 
   9   2.0000      -1.347984       -36.6805 
  10   2.0000      -1.316301       -35.8184 
  11   2.0000      -1.297329       -35.3021 
  12   2.0000      -0.771181       -20.9849 
  13   2.0000      -0.740973       -20.1629 
  14   2.0000      -0.729830       -19.8597 
  15   2.0000      -0.725300       -19.7364 
  16   2.0000      -0.686709       -18.6863 
  17   2.0000      -0.685392       -18.6505 
  18   2.0000      -0.655666       -17.8416 
  19   2.0000      -0.616748       -16.7826 
  20   2.0000      -0.599658       -16.3175 
  21   2.0000      -0.598676       -16.2908 
  22   2.0000      -0.574792       -15.6409 
  23   2.0000      -0.555676       -15.1207 
  24   2.0000      -0.531975       -14.4758 
  25   2.0000      -0.527140       -14.3442 
  26   2.0000      -0.526381       -14.3235 
  27   2.0000      -0.503069       -13.6892 
  28   2.0000      -0.482297       -13.1240 
  29   2.0000      -0.463470       -12.6117 
  30   0.0000       0.068772         1.8714 
  31   0.0000       0.122352         3.3294 
  32   0.0000       0.141706         3.8560 
  33   0.0000       0.151225         4.1151 
  34   0.0000       0.170442         4.6380 
  35   0.0000       0.175769         4.7829 
  36   0.0000       0.228062         6.2059 
  37   0.0000       0.241602         6.5743 
  38   0.0000       0.258305         7.0288 
  39   0.0000       0.297407         8.0929 
  40   0.0000       0.322227         8.7682 
  41   0.0000       0.339534         9.2392 
  42   0.0000       0.417032        11.3480 
  43   0.0000       0.468361        12.7448 
  44   0.0000       0.485190        13.2027 
  45   0.0000       0.499276        13.5860 
  46   0.0000       0.517917        14.0932 
  47   0.0000       0.530367        14.4320 
  48   0.0000       0.533168        14.5082 
  49   0.0000       0.541393        14.7321 
  50   0.0000       0.555611        15.1189 
  51   0.0000       0.564132        15.3508 
  52   0.0000       0.586686        15.9645 
  53   0.0000       0.594232        16.1699 
  54   0.0000       0.610837        16.6217 
  55   0.0000       0.618572        16.8322 
  56   0.0000       0.621891        16.9225 
  57   0.0000       0.632586        17.2136 
  58   0.0000       0.638952        17.3868 
  59   0.0000       0.678755        18.4698 
  60   0.0000       0.706143        19.2151 
  61   0.0000       0.711002        19.3474 
  62   0.0000       0.726885        19.7796 
  63   0.0000       0.739373        20.1194 
  64   0.0000       0.750014        20.4089 
  65   0.0000       0.758292        20.6342 
  66   0.0000       0.767573        20.8867 
  67   0.0000       0.780227        21.2310 
  68   0.0000       0.790478        21.5100 
  69   0.0000       0.812035        22.0966 
  70   0.0000       0.827771        22.5248 
  71   0.0000       0.864388        23.5212 
  72   0.0000       0.881427        23.9849 
  73   0.0000       0.935012        25.4430 
  74   0.0000       0.954780        25.9809 
  75   0.0000       1.035873        28.1875 
  76   0.0000       1.068766        29.0826 
  77   0.0000       1.096207        29.8293 
  78   0.0000       1.340929        36.4885 
  79   0.0000       1.343454        36.5572 
  80   0.0000       1.381389        37.5895 
  81   0.0000       1.386591        37.7311 
  82   0.0000       1.407383        38.2968 
  83   0.0000       1.426385        38.8139 
  84   0.0000       1.427937        38.8561 
  85   0.0000       1.436166        39.0801 
  86   0.0000       1.446117        39.3508 
  87   0.0000       1.499452        40.8022 
  88   0.0000       1.511791        41.1379 
  89   0.0000       1.522000        41.4157 
  90   0.0000       1.529387        41.6167 
  91   0.0000       1.563632        42.5486 
  92   0.0000       1.568851        42.6906 
  93   0.0000       1.598059        43.4854 
  94   0.0000       1.620174        44.0872 
  95   0.0000       1.664865        45.3033 
  96   0.0000       1.768441        48.1217 
  97   0.0000       1.791766        48.7564 
  98   0.0000       1.803843        49.0851 
  99   0.0000       1.819257        49.5045 
 100   0.0000       1.862248        50.6743 
 101   0.0000       1.875989        51.0483 
 102   0.0000       1.900946        51.7274 
 103   0.0000       1.924084        52.3570 
 104   0.0000       1.948802        53.0296 
 105   0.0000       1.953505        53.1576 
 106   0.0000       2.002489        54.4905 
 107   0.0000       2.011396        54.7329 
 108   0.0000       2.033915        55.3456 
 109   0.0000       2.060780        56.0767 
 110   0.0000       2.098273        57.0969 
 111   0.0000       2.130006        57.9604 
 112   0.0000       2.145804        58.3903 
 113   0.0000       2.177519        59.2533 
 114   0.0000       2.243670        61.0534 
 115   0.0000       2.279369        62.0248 
 116   0.0000       2.283047        62.1249 
 117   0.0000       2.287750        62.2529 
 118   0.0000       2.302024        62.6413 
 119   0.0000       2.329283        63.3830 
 120   0.0000       2.341164        63.7063 
 121   0.0000       2.350358        63.9565 
 122   0.0000       2.361082        64.2483 
 123   0.0000       2.363925        64.3257 
 124   0.0000       2.383388        64.8553 
 125   0.0000       2.410316        65.5880 
 126   0.0000       2.427305        66.0503 
 127   0.0000       2.462729        67.0143 
 128   0.0000       2.496370        67.9297 
 129   0.0000       2.524951        68.7074 
 130   0.0000       2.536904        69.0327 
 131   0.0000       2.553892        69.4949 
 132   0.0000       2.557698        69.5985 
 133   0.0000       2.570231        69.9396 
 134   0.0000       2.615230        71.1640 
 135   0.0000       2.629577        71.5544 
 136   0.0000       2.638918        71.8086 
 137   0.0000       2.653461        72.2044 
 138   0.0000       2.662742        72.4569 
 139   0.0000       2.672309        72.7172 
 140   0.0000       2.697787        73.4105 
 141   0.0000       2.729872        74.2836 
 142   0.0000       2.765746        75.2598 
 143   0.0000       2.791741        75.9671 
 144   0.0000       2.874426        78.2171 
 145   0.0000       2.911851        79.2355 
 146   0.0000       2.929429        79.7138 
 147   0.0000       2.939281        79.9819 
 148   0.0000       2.941047        80.0300 
 149   0.0000       2.950705        80.2928 
 150   0.0000       2.970737        80.8379 
 151   0.0000       2.994510        81.4848 
 152   0.0000       3.003700        81.7348 
 153   0.0000       3.032090        82.5074 
 154   0.0000       3.048268        82.9476 
 155   0.0000       3.061655        83.3119 
 156   0.0000       3.079619        83.8007 
 157   0.0000       3.113010        84.7093 
 158   0.0000       3.138630        85.4065 
 159   0.0000       3.146604        85.6235 
 160   0.0000       3.198795        87.0436 
 161   0.0000       3.224867        87.7531 
 162   0.0000       3.264045        88.8192 
 163   0.0000       3.277736        89.1917 
 164   0.0000       3.317813        90.2823 
 165   0.0000       3.370458        91.7148 
 166   0.0000       3.435996        93.4982 
 167   0.0000       3.516869        95.6989 
 168   0.0000       3.989048       108.5475 
 169   0.0000       4.002354       108.9096 
 170   0.0000       4.039810       109.9288 
 171   0.0000       4.068052       110.6973 
 172   0.0000       4.127508       112.3152 
 173   0.0000       4.153534       113.0234 
 174   0.0000       4.240725       115.3960 
 175   0.0000       4.285492       116.6142 
 176   0.0000       4.291438       116.7760 
 177   0.0000       4.338214       118.0488 
 178   0.0000       4.373272       119.0028 
 179   0.0000       4.385855       119.3452 
 180   0.0000       5.479961       149.1173 
 181   0.0000       5.513610       150.0330 
 182   0.0000       5.527344       150.4067 
 183   0.0000       5.543627       150.8497 
 184   0.0000       5.571635       151.6119 
 185   0.0000       5.590189       152.1168 
 186   0.0000       5.607099       152.5769 
 187   0.0000       5.631616       153.2441 
 188   0.0000       5.638846       153.4408 
 189   0.0000       5.661194       154.0489 
 190   0.0000       5.678165       154.5107 
 191   0.0000       5.699816       155.0999 
 192   0.0000       5.758211       156.6889 
 193   0.0000       5.781754       157.3295 
 194   0.0000       5.793524       157.6498 
 195   0.0000       5.800828       157.8485 
 196   0.0000       5.815044       158.2354 
 197   0.0000       5.823349       158.4614 
 198   0.0000       5.832475       158.7097 
 199   0.0000       5.837624       158.8498 
 200   0.0000       5.849181       159.1643 
 201   0.0000       5.857050       159.3784 
 202   0.0000       5.865270       159.6021 
 203   0.0000       5.873583       159.8283 
 204   0.0000       5.875813       159.8890 
 205   0.0000       5.896102       160.4411 
 206   0.0000       5.913613       160.9176 
 207   0.0000       5.922303       161.1540 
 208   0.0000       5.928013       161.3094 
 209   0.0000       5.947500       161.8397 
 210   0.0000       6.404686       174.2804 
 211   0.0000       6.456428       175.6883 
 212   0.0000       6.467478       175.9890 
 213   0.0000       6.469570       176.0460 
 214   0.0000       6.501890       176.9254 
 215   0.0000       6.514646       177.2725 
 216   0.0000       6.644945       180.8181 
 217   0.0000       6.672957       181.5804 
 218   0.0000       6.678777       181.7387 
 219   0.0000       6.710408       182.5995 
 220   0.0000       6.731307       183.1682 
 221   0.0000       6.773153       184.3069 
 222   0.0000       6.808382       185.2655 
 223   0.0000       6.824515       185.7045 
 224   0.0000       6.828342       185.8086 
 225   0.0000       6.845565       186.2773 
 226   0.0000       6.858306       186.6240 
 227   0.0000       6.865550       186.8211 
 228   0.0000       6.879566       187.2025 
 229   0.0000       6.900968       187.7849 
 230   0.0000       6.904895       187.8917 
 231   0.0000       6.924609       188.4282 
 232   0.0000       6.931561       188.6174 
 233   0.0000       6.938499       188.8062 
 234   0.0000       6.952823       189.1959 
 235   0.0000       6.981300       189.9708 
 236   0.0000       6.995340       190.3529 
 237   0.0000       7.000339       190.4889 
 238   0.0000       7.042022       191.6232 
 239   0.0000       7.074078       192.4954 
 240   0.0000       7.332974       199.5404 
 241   0.0000       7.346388       199.9054 
 242   0.0000       7.377246       200.7451 
 243   0.0000       7.424049       202.0186 
 244   0.0000       7.463708       203.0978 
 245   0.0000       7.479093       203.5165 
 246   0.0000       7.488571       203.7744 
 247   0.0000       7.491733       203.8604 
 248   0.0000       7.515372       204.5037 
 249   0.0000       7.564827       205.8494 
 250   0.0000       7.569886       205.9871 
 251   0.0000       7.639249       207.8745 
 252   0.0000      44.807243      1219.2671 
 253   0.0000      44.913737      1222.1649 
 254   0.0000      44.943464      1222.9738 
 255   0.0000      44.992306      1224.3029 
 256   0.0000      45.010510      1224.7983 
 257   0.0000      45.088943      1226.9325 

                    ********************************
                    * MULLIKEN POPULATION ANALYSIS *
                    ********************************

-----------------------
MULLIKEN ATOMIC CHARGES
-----------------------
   0 O :   -0.731273
   1 H :    0.402335
   2 H :    0.365689
   3 O :   -0.762037
   4 H :    0.382007
   5 H :    0.355773
   6 O :   -0.739231
   7 H :    0.392979
   8 H :    0.364036
   9 O :   -0.740430
  10 H :    0.339515
  11 H :    0.385167
  12 O :   -0.689784
  13 H :    0.332400
  14 H :    0.360408
  15 O :   -0.784678
  16 H :    0.357194
  17 H :    0.409932
Sum of atomic charges:    0.0000000

--------------------------------
MULLIKEN REDUCED ORBITAL CHARGES
--------------------------------
  0 O s       :     3.798100  s :     3.798100
      pz      :     1.569935  p :     4.906545
      px      :     1.551368
      py      :     1.785242
      dz2     :     0.012074  d :     0.025228
      dxz     :     0.001223
      dyz     :     0.002388
      dx2y2   :     0.002460
      dxy     :     0.007083
      f0      :     0.000230  f :     0.001400
      f+1     :     0.000383
      f-1     :     0.000156
      f+2     :     0.000050
      f-2     :     0.000055
      f+3     :     0.000051
      f-3     :     0.000475
  1 H s       :     0.549941  s :     0.549941
      pz      :     0.024598  p :     0.047725
      px      :     0.011142
      py      :     0.011984
  2 H s       :     0.590661  s :     0.590661
      pz      :     0.010473  p :     0.043650
      px      :     0.018493
      py      :     0.014685
  3 O s       :     3.804645  s :     3.804645
      pz      :     1.584914  p :     4.931642
      px      :     1.871597
      py      :     1.475130
      dz2     :     0.010935  d :     0.024343
      dxz     :     0.002499
      dyz     :     0.002782
      dx2y2   :     0.003068
      dxy     :     0.005058
      f0      :     0.000165  f :     0.001408
      f+1     :     0.000118
      f-1     :     0.000440
      f+2     :     0.000077
      f-2     :     0.000040
      f+3     :     0.000448
      f-3     :     0.000118
  4 H s       :     0.568911  s :     0.568911
      pz      :     0.024302  p :     0.049082
      px      :     0.013364
      py      :     0.011416
  5 H s       :     0.589977  s :     0.589977
      pz      :     0.010271  p :     0.054250
      px      :     0.016221
      py      :     0.027757
  6 O s       :     3.803819  s :     3.803819
      pz      :     1.580660  p :     4.909559
      px      :     1.470905
      py      :     1.857994
      dz2     :     0.010919  d :     0.024400
      dxz     :     0.002544
      dyz     :     0.002151
      dx2y2   :     0.003526
      dxy     :     0.005260
      f0      :     0.000190  f :     0.001453
      f+1     :     0.000453
      f-1     :     0.000120
      f+2     :     0.000072
      f-2     :     0.000039
      f+3     :     0.000114
      f-3     :     0.000465
  7 H s       :     0.563526  s :     0.563526
      pz      :     0.019280  p :     0.043496
      px      :     0.011355
      py      :     0.012860
  8 H s       :     0.594147  s :     0.594147
      pz      :     0.009222  p :     0.041817
      px      :     0.018616
      py      :     0.013979
  9 O s       :     3.809783  s :     3.809783
      pz      :     1.496813  p :     4.903996
      px      :     1.582970
      py      :     1.824213
      dz2     :     0.011979  d :     0.025172
      dxz     :     0.001257
      dyz     :     0.002873
      dx2y2   :     0.002011
      dxy     :     0.007052
      f0      :     0.000272  f :     0.001479
      f+1     :     0.000381
      f-1     :     0.000168
      f+2     :     0.000056
      f-2     :     0.000056
      f+3     :     0.000063
      f-3     :     0.000483
 10 H s       :     0.615874  s :     0.615874
      pz      :     0.018778  p :     0.044612
      px      :     0.012156
      py      :     0.013678
 11 H s       :     0.564758  s :     0.564758
      pz      :     0.009735  p :     0.050076
      px      :     0.024041
      py      :     0.016299
 12 O s       :     3.815146  s :     3.815146
      pz      :     1.489227  p :     4.846585
      px      :     1.818113
      py      :     1.539246
      dz2     :     0.012371  d :     0.026515
      dxz     :     0.003115
      dyz     :     0.001292
      dx2y2   :     0.002136
      dxy     :     0.007601
      f0      :     0.000271  f :     0.001538
      f+1     :     0.000175
      f-1     :     0.000385
      f+2     :     0.000056
      f-2     :     0.000057
      f+3     :     0.000525
      f-3     :     0.000070
 13 H s       :     0.622286  s :     0.622286
      pz      :     0.018710  p :     0.045314
      px      :     0.014065
      py      :     0.012539
 14 H s       :     0.595261  s :     0.595261
      pz      :     0.010421  p :     0.044331
      px      :     0.015497
      py      :     0.018413
 15 O s       :     3.808403  s :     3.808403
      pz      :     1.724644  p :     4.952565
      px      :     1.792904
      py      :     1.435018
      dz2     :     0.003725  d :     0.022320
      dxz     :     0.005130
      dyz     :     0.004441
      dx2y2   :     0.002245
      dxy     :     0.006779
      f0      :     0.000081  f :     0.001390
      f+1     :     0.000170
      f-1     :     0.000317
      f+2     :     0.000061
      f-2     :     0.000346
      f+3     :     0.000333
      f-3     :     0.000082
 16 H s       :     0.597405  s :     0.597405
      pz      :     0.016885  p :     0.045401
      px      :     0.014729
      py      :     0.013787
 17 H s       :     0.534427  s :     0.534427
      pz      :     0.010089  p :     0.055641
      px      :     0.013169
      py      :     0.032384


                     *******************************
                     * LOEWDIN POPULATION ANALYSIS *
                     *******************************

----------------------
LOEWDIN ATOMIC CHARGES
----------------------
   0 O :   -0.283127
   1 H :    0.163473
   2 H :    0.173578
   3 O :   -0.372699
   4 H :    0.150817
   5 H :    0.140030
   6 O :   -0.287575
   7 H :    0.184041
   8 H :    0.178001
   9 O :   -0.353109
  10 H :    0.159756
  11 H :    0.154355
  12 O :   -0.328419
  13 H :    0.157722
  14 H :    0.173054
  15 O :   -0.323722
  16 H :    0.157482
  17 H :    0.156342

-------------------------------
LOEWDIN REDUCED ORBITAL CHARGES
-------------------------------
  0 O s       :     3.452716  s :     3.452716
      pz      :     1.540779  p :     4.796278
      px      :     1.530857
      py      :     1.724642
      dz2     :     0.015587  d :     0.032026
      dxz     :     0.001776
      dyz     :     0.001822
      dx2y2   :     0.003680
      dxy     :     0.009161
      f0      :     0.000413  f :     0.002107
      f+1     :     0.000558
      f-1     :     0.000334
      f+2     :     0.000020
      f-2     :     0.000046
      f+3     :     0.000026
      f-3     :     0.000710
  1 H s       :     0.665590  s :     0.665590
      pz      :     0.093425  p :     0.170937
      px      :     0.036072
      py      :     0.041440
  2 H s       :     0.667939  s :     0.667939
      pz      :     0.031049  p :     0.158483
      px      :     0.072649
      py      :     0.054784
  3 O s       :     3.464782  s :     3.464782
      pz      :     1.570155  p :     4.876296
      px      :     1.835842
      py      :     1.470298
      dz2     :     0.013710  d :     0.029644
      dxz     :     0.001579
      dyz     :     0.003779
      dx2y2   :     0.004159
      dxy     :     0.006417
      f0      :     0.000345  f :     0.001978
      f+1     :     0.000189
      f-1     :     0.000707
      f+2     :     0.000043
      f-2     :     0.000042
      f+3     :     0.000583
      f-3     :     0.000070
  4 H s       :     0.676191  s :     0.676191
      pz      :     0.092738  p :     0.172991
      px      :     0.043164
      py      :     0.037089
  5 H s       :     0.677733  s :     0.677733
      pz      :     0.031163  p :     0.182238
      px      :     0.052728
      py      :     0.098346
  6 O s       :     3.461432  s :     3.461432
      pz      :     1.543487  p :     4.791804
      px      :     1.455172
      py      :     1.793144
      dz2     :     0.015016  d :     0.032238
      dxz     :     0.003731
      dyz     :     0.001364
      dx2y2   :     0.005339
      dxy     :     0.006788
      f0      :     0.000364  f :     0.002101
      f+1     :     0.000736
      f-1     :     0.000208
      f+2     :     0.000040
      f-2     :     0.000043
      f+3     :     0.000076
      f-3     :     0.000634
  7 H s       :     0.656782  s :     0.656782
      pz      :     0.081557  p :     0.159177
      px      :     0.035196
      py      :     0.042424
  8 H s       :     0.668024  s :     0.668024
      pz      :     0.029441  p :     0.153975
      px      :     0.075086
      py      :     0.049447
  9 O s       :     3.466376  s :     3.466376
      pz      :     1.506398  p :     4.853399
      px      :     1.551964
      py      :     1.795037
      dz2     :     0.016161  d :     0.031228
      dxz     :     0.002200
      dyz     :     0.002352
      dx2y2   :     0.002006
      dxy     :     0.008509
      f0      :     0.000500  f :     0.002106
      f+1     :     0.000579
      f-1     :     0.000314
      f+2     :     0.000025
      f-2     :     0.000050
      f+3     :     0.000002
      f-3     :     0.000637
 10 H s       :     0.682042  s :     0.682042
      pz      :     0.079468  p :     0.158203
      px      :     0.036390
      py      :     0.042345
 11 H s       :     0.671535  s :     0.671535
      pz      :     0.029496  p :     0.174111
      px      :     0.086558
      py      :     0.058057
 12 O s       :     3.474180  s :     3.474180
      pz      :     1.501935  p :     4.818074
      px      :     1.788232
      py      :     1.527907
      dz2     :     0.017153  d :     0.033933
      dxz     :     0.002570
      dyz     :     0.002206
      dx2y2   :     0.002287
      dxy     :     0.009718
      f0      :     0.000506  f :     0.002231
      f+1     :     0.000330
      f-1     :     0.000601
      f+2     :     0.000026
      f-2     :     0.000048
      f+3     :     0.000718
      f-3     :     0.000003
 13 H s       :     0.684783  s :     0.684783
      pz      :     0.079510  p :     0.157495
      px      :     0.042511
      py      :     0.035474
 14 H s       :     0.670288  s :     0.670288
      pz      :     0.029408  p :     0.156657
      px      :     0.054736
      py      :     0.072513
 15 O s       :     3.455938  s :     3.455938
      pz      :     1.683574  p :     4.836783
      px      :     1.750326
      py      :     1.402883
      dz2     :     0.004840  d :     0.029034
      dxz     :     0.005279
      dyz     :     0.006723
      dx2y2   :     0.003629
      dxy     :     0.008563
      f0      :     0.000088  f :     0.001966
      f+1     :     0.000260
      f-1     :     0.000431
      f+2     :     0.000032
      f-2     :     0.000609
      f+3     :     0.000462
      f-3     :     0.000083
 16 H s       :     0.677016  s :     0.677016
      pz      :     0.066238  p :     0.165502
      px      :     0.053156
      py      :     0.046107
 17 H s       :     0.646833  s :     0.646833
      pz      :     0.033453  p :     0.196826
      px      :     0.047533
      py      :     0.115839


                      *****************************
                      * MAYER POPULATION ANALYSIS *
                      *****************************

  NA   - Mulliken gross atomic population
  ZA   - Total nuclear charge
  QA   - Mulliken gross atomic charge
  VA   - Mayer's total valence
  BVA  - Mayer's bonded valence
  FA   - Mayer's free valence

  ATOM       NA         ZA         QA         VA         BVA        FA
  0 O      8.7313     8.0000    -0.7313     1.7562     1.7562     0.0000
  1 H      0.5977     1.0000     0.4023     0.8601     0.8601     0.0000
  2 H      0.6343     1.0000     0.3657     0.8839     0.8839     0.0000
  3 O      8.7620     8.0000    -0.7620     1.7107     1.7107     0.0000
  4 H      0.6180     1.0000     0.3820     0.8837     0.8837     0.0000
  5 H      0.6442     1.0000     0.3558     0.9067     0.9067    -0.0000
  6 O      8.7392     8.0000    -0.7392     1.7573     1.7573     0.0000
  7 H      0.6070     1.0000     0.3930     0.8630     0.8630     0.0000
  8 H      0.6360     1.0000     0.3640     0.8884     0.8884    -0.0000
  9 O      8.7404     8.0000    -0.7404     1.7365     1.7365    -0.0000
 10 H      0.6605     1.0000     0.3395     0.9003     0.9003    -0.0000
 11 H      0.6148     1.0000     0.3852     0.8853     0.8853    -0.0000
 12 O      8.6898     8.0000    -0.6898     1.7850     1.7850     0.0000
 13 H      0.6676     1.0000     0.3324     0.9043     0.9043    -0.0000
 14 H      0.6396     1.0000     0.3604     0.8844     0.8844    -0.0000
 15 O      8.7847     8.0000    -0.7847     1.6854     1.6854     0.0000
 16 H      0.6428     1.0000     0.3572     0.8895     0.8895     0.0000
 17 H      0.5901     1.0000     0.4099     0.8665     0.8665     0.0000

  Mayer bond orders larger than 0.100000
B(  0-O ,  1-H ) :   0.8372 B(  0-O ,  2-H ) :   0.8718 B(  3-O ,  4-H ) :   0.8535 
B(  3-O ,  5-H ) :   0.8653 B(  6-O ,  7-H ) :   0.8537 B(  6-O ,  8-H ) :   0.8685 
B(  9-O , 10-H ) :   0.8938 B(  9-O , 11-H ) :   0.8425 B( 12-O , 13-H ) :   0.8980 
B( 12-O , 14-H ) :   0.8794 B( 15-O , 16-H ) :   0.8790 B( 15-O , 17-H ) :   0.7837 


-------
TIMINGS
-------

Total SCF time: 0 days 0 hours 0 min 11 sec 

Total time                  ....      11.759 sec
Sum of individual times     ....      11.494 sec  ( 97.7%)

Fock matrix formation       ....      11.118 sec  ( 94.5%)
Diagonalization             ....       0.075 sec  (  0.6%)
Density matrix formation    ....       0.010 sec  (  0.1%)
Population analysis         ....       0.025 sec  (  0.2%)
Initial guess               ....       0.149 sec  (  1.3%)
Orbital Transformation      ....       0.000 sec  (  0.0%)
Orbital Orthonormalization  ....       0.000 sec  (  0.0%)
DIIS solution               ....       0.028 sec  (  0.2%)
SOSCF solution              ....       0.032 sec  (  0.3%)


           ************************************************************
           *        Program running with 6 parallel MPI-processes     *
           *              working on a common directory               *
           ************************************************************

------------------------------------------------------------------------------
                                ORCA  MP2 
------------------------------------------------------------------------------

Freezing NCore=12 chemical core electrons
MP2 will be done in the AO integral direct mode
The Q1-step will be done using symmetric double matrices
Dimension of the basis                    ...  258
Memory devoted for MP2                    ... 8000 MB   
Memory needed for all in one shot         ...  264 MB
Number of MOs that can be treated together...  120      
MP2 density construction                  ... relaxed
The MP2 gradient is requested => amplitudes will be stored on disk
Total number of MOs              ...   24
Number of MOs treated per batch  ...    4 
Number of batches necessary      ...    1 
OPERATORS   0/  0 PASS   0
-----------------------------------------------
 MP2 CORRELATION ENERGY   :     -1.549058006 Eh
-----------------------------------------------


---------------------
MP2 DENSITY FORMATION
---------------------

Completing the external part of the density      ... done
Storing the unrelaxed density                    ... done

Calculating G(D)                                 ... done
Completing the Lagrangian                        ... done
Solving the Z-vector equations                   ... 

------------------------------------------------------------------------------
                           ORCA CP-SCF CALCULATION
------------------------------------------------------------------------------

Input orbitals are from        ... 12h2o.su.etal.mol3,4,7,8,9,10-orca.engrad-mp2.def2tzvp.frozencore.gbw
Input Perturbation             ... 12h2o.su.etal.mol3,4,7,8,9,10-orca.engrad-mp2.def2tzvp.frozencore.pin.tmp
Wavefunction output            ... 12h2o.su.etal.mol3,4,7,8,9,10-orca.engrad-mp2.def2tzvp.frozencore.pout.tmp
Perturbation mode              ... Real perturbation (singlet)
Solver                         ... POPLE
Max. number of iterations      ... 128
Convergence tolerance          ... 1.000e-08
Integral handling              ... Direct
Number of perturbations        ... 1
Number of operators            ... 1
Orbital ranges used for CP-SCF:
 Operator 0:  Orbitals   0... 29  to  30...257
Variables per vector in CP-SCF ... 6840
Number of vectors sought       ... 1
     CP-SCF ITERATION   0: 
     CP-SCF ITERATION   1:      0.000746524318
     CP-SCF ITERATION   2:      0.000018748883
     CP-SCF ITERATION   3:      0.000001048148
     CP-SCF ITERATION   4:      0.000000080514
     CP-SCF ITERATION   5:      0.000000006986
                                                 ... done
Finalizing the relaxed density                   ... done
Transforming P to the AO basis                   ... done
Storing the relaxed density                      ... done

------------------------------------
ENERGY WEIGHTED DENSITY FINALIZATION
------------------------------------

Gathering the parts of the W-matrix              ...                                                      done
Forming the Z-density                            ... done
Transforming Z to the AO basis                   ... done
Calculating G(Z)                                 ... done
Finalizing the W-matrix                          ...                                                      done
Transforming W to the AO basis and storing       ... done

                *********************************************
                * UNRELAXED MP2 DENSITY POPULATION ANALYSIS *
                *********************************************

------------------------------------------------------------------------------
                           ORCA POPULATION ANALYSIS
------------------------------------------------------------------------------
Input electron density              ... 12h2o.su.etal.mol3,4,7,8,9,10-orca.engrad-mp2.def2tzvp.frozencore.pmp2ur
BaseName (.gbw .S,...)              ... 12h2o.su.etal.mol3,4,7,8,9,10-orca.engrad-mp2.def2tzvp.frozencore

                    ********************************
                    * MULLIKEN POPULATION ANALYSIS *
                    ********************************

-----------------------
MULLIKEN ATOMIC CHARGES
-----------------------
   0 O :   -0.724511
   1 H :    0.399498
   2 H :    0.363111
   3 O :   -0.755888
   4 H :    0.378866
   5 H :    0.351766
   6 O :   -0.733198
   7 H :    0.390651
   8 H :    0.361076
   9 O :   -0.735091
  10 H :    0.337042
  11 H :    0.381709
  12 O :   -0.684865
  13 H :    0.330002
  14 H :    0.358054
  15 O :   -0.778162
  16 H :    0.354836
  17 H :    0.405104
Sum of atomic charges:    0.0000000

--------------------------------
MULLIKEN REDUCED ORBITAL CHARGES
--------------------------------
  0 O s       :     3.792944  s :     3.792944
      pz      :     1.560273  p :     4.875021
      px      :     1.541943
      py      :     1.772805
      dz2     :     0.017283  d :     0.052549
      dxz     :     0.006668
      dyz     :     0.008006
      dx2y2   :     0.008102
      dxy     :     0.012490
      f0      :     0.000614  f :     0.003997
      f+1     :     0.000752
      f-1     :     0.000534
      f+2     :     0.000413
      f-2     :     0.000422
      f+3     :     0.000426
      f-3     :     0.000835
  1 H s       :     0.551300  s :     0.551300
      pz      :     0.024653  p :     0.049201
      px      :     0.011771
      py      :     0.012777
  2 H s       :     0.591688  s :     0.591688
      pz      :     0.011252  p :     0.045201
      px      :     0.018646
      py      :     0.015303
  3 O s       :     3.799677  s :     3.799677
      pz      :     1.575067  p :     4.900739
      px      :     1.859627
      py      :     1.466045
      dz2     :     0.016166  d :     0.051486
      dxz     :     0.008069
      dyz     :     0.008204
      dx2y2   :     0.008580
      dxy     :     0.010467
      f0      :     0.000550  f :     0.003986
      f+1     :     0.000491
      f-1     :     0.000810
      f+2     :     0.000440
      f-2     :     0.000407
      f+3     :     0.000803
      f-3     :     0.000484
  4 H s       :     0.570472  s :     0.570472
      pz      :     0.024406  p :     0.050662
      px      :     0.014219
      py      :     0.012037
  5 H s       :     0.592169  s :     0.592169
      pz      :     0.011153  p :     0.056066
      px      :     0.016984
      py      :     0.027929
  6 O s       :     3.798729  s :     3.798729
      pz      :     1.570969  p :     4.878625
      px      :     1.462200
      py      :     1.845456
      dz2     :     0.016243  d :     0.051812
      dxz     :     0.007934
      dyz     :     0.007824
      dx2y2   :     0.009082
      dxy     :     0.010729
      f0      :     0.000574  f :     0.004033
      f+1     :     0.000818
      f-1     :     0.000497
      f+2     :     0.000436
      f-2     :     0.000405
      f+3     :     0.000483
      f-3     :     0.000820
  7 H s       :     0.564398  s :     0.564398
      pz      :     0.019383  p :     0.044951
      px      :     0.011906
      py      :     0.013663
  8 H s       :     0.595556  s :     0.595556
      pz      :     0.010017  p :     0.043368
      px      :     0.018638
      py      :     0.014713
  9 O s       :     3.804952  s :     3.804952
      pz      :     1.487939  p :     4.874212
      px      :     1.573598
      py      :     1.812675
      dz2     :     0.017000  d :     0.051885
      dxz     :     0.006655
      dyz     :     0.008311
      dx2y2   :     0.007561
      dxy     :     0.012358
      f0      :     0.000647  f :     0.004041
      f+1     :     0.000746
      f-1     :     0.000538
      f+2     :     0.000415
      f-2     :     0.000421
      f+3     :     0.000433
      f-3     :     0.000841
 10 H s       :     0.616652  s :     0.616652
      pz      :     0.018876  p :     0.046306
      px      :     0.012883
      py      :     0.014547
 11 H s       :     0.566658  s :     0.566658
      pz      :     0.010503  p :     0.051633
      px      :     0.024229
      py      :     0.016901
 12 O s       :     3.810347  s :     3.810347
      pz      :     1.480505  p :     4.817652
      px      :     1.806830
      py      :     1.530317
      dz2     :     0.017304  d :     0.052782
      dxz     :     0.008507
      dyz     :     0.006596
      dx2y2   :     0.007577
      dxy     :     0.012797
      f0      :     0.000644  f :     0.004083
      f+1     :     0.000545
      f-1     :     0.000747
      f+2     :     0.000413
      f-2     :     0.000419
      f+3     :     0.000878
      f-3     :     0.000437
 13 H s       :     0.622981  s :     0.622981
      pz      :     0.018822  p :     0.047017
      px      :     0.014948
      py      :     0.013247
 14 H s       :     0.596024  s :     0.596024
      pz      :     0.011189  p :     0.045922
      px      :     0.016159
      py      :     0.018574
 15 O s       :     3.803442  s :     3.803442
      pz      :     1.713578  p :     4.920525
      px      :     1.780831
      py      :     1.426116
      dz2     :     0.009401  d :     0.050208
      dxz     :     0.010662
      dyz     :     0.009966
      dx2y2   :     0.007911
      dxy     :     0.012268
      f0      :     0.000455  f :     0.003987
      f+1     :     0.000538
      f-1     :     0.000685
      f+2     :     0.000433
      f-2     :     0.000714
      f+3     :     0.000702
      f-3     :     0.000460
 16 H s       :     0.598153  s :     0.598153
      pz      :     0.017360  p :     0.047011
      px      :     0.015426
      py      :     0.014225
 17 H s       :     0.537629  s :     0.537629
      pz      :     0.010898  p :     0.057268
      px      :     0.013874
      py      :     0.032495


                     *******************************
                     * LOEWDIN POPULATION ANALYSIS *
                     *******************************

----------------------
LOEWDIN ATOMIC CHARGES
----------------------
   0 O :   -0.278689
   1 H :    0.161639
   2 H :    0.172047
   3 O :   -0.369828
   4 H :    0.148735
   5 H :    0.137509
   6 O :   -0.282969
   7 H :    0.182719
   8 H :    0.176135
   9 O :   -0.350418
  10 H :    0.158261
  11 H :    0.152170
  12 O :   -0.325488
  13 H :    0.156243
  14 H :    0.171774
  15 O :   -0.319640
  16 H :    0.156136
  17 H :    0.153665

-------------------------------
LOEWDIN REDUCED ORBITAL CHARGES
-------------------------------
  0 O s       :     3.448901  s :     3.448901
      pz      :     1.531079  p :     4.764500
      px      :     1.521277
      py      :     1.712143
      dz2     :     0.021469  d :     0.060387
      dxz     :     0.007177
      dyz     :     0.007371
      dx2y2   :     0.009303
      dxy     :     0.015068
      f0      :     0.000839  f :     0.004902
      f+1     :     0.000982
      f-1     :     0.000735
      f+2     :     0.000388
      f-2     :     0.000421
      f+3     :     0.000406
      f-3     :     0.001131
  1 H s       :     0.664651  s :     0.664651
      pz      :     0.094684  p :     0.173710
      px      :     0.036794
      py      :     0.042232
  2 H s       :     0.666415  s :     0.666415
      pz      :     0.031803  p :     0.161539
      px      :     0.073942
      py      :     0.055793
  3 O s       :     3.461119  s :     3.461119
      pz      :     1.560321  p :     4.845995
      px      :     1.824440
      py      :     1.461234
      dz2     :     0.019568  d :     0.057961
      dxz     :     0.007082
      dyz     :     0.009238
      dx2y2   :     0.009879
      dxy     :     0.012194
      f0      :     0.000761  f :     0.004753
      f+1     :     0.000577
      f-1     :     0.001146
      f+2     :     0.000414
      f-2     :     0.000415
      f+3     :     0.000994
      f-3     :     0.000447
  4 H s       :     0.675329  s :     0.675329
      pz      :     0.094107  p :     0.175936
      px      :     0.043949
      py      :     0.037880
  5 H s       :     0.677169  s :     0.677169
      pz      :     0.032043  p :     0.185322
      px      :     0.053662
      py      :     0.099617
  6 O s       :     3.457561  s :     3.457561
      pz      :     1.533186  p :     4.759848
      px      :     1.446115
      py      :     1.780547
      dz2     :     0.020947  d :     0.060683
      dxz     :     0.009150
      dyz     :     0.006955
      dx2y2   :     0.011073
      dxy     :     0.012558
      f0      :     0.000780  f :     0.004878
      f+1     :     0.001170
      f-1     :     0.000600
      f+2     :     0.000412
      f-2     :     0.000416
      f+3     :     0.000455
      f-3     :     0.001046
  7 H s       :     0.655314  s :     0.655314
      pz      :     0.082885  p :     0.161967
      px      :     0.035896
      py      :     0.043185
  8 H s       :     0.666779  s :     0.666779
      pz      :     0.030251  p :     0.157086
      px      :     0.076426
      py      :     0.050409
  9 O s       :     3.462699  s :     3.462699
      pz      :     1.497196  p :     4.823815
      px      :     1.542623
      py      :     1.783995
      dz2     :     0.021903  d :     0.059042
      dxz     :     0.007534
      dyz     :     0.007732
      dx2y2   :     0.007530
      dxy     :     0.014343
      f0      :     0.000916  f :     0.004862
      f+1     :     0.000998
      f-1     :     0.000707
      f+2     :     0.000389
      f-2     :     0.000423
      f+3     :     0.000377
      f-3     :     0.001052
 10 H s       :     0.680246  s :     0.680246
      pz      :     0.081141  p :     0.161493
      px      :     0.037185
      py      :     0.043166
 11 H s       :     0.670893  s :     0.670893
      pz      :     0.030239  p :     0.176937
      px      :     0.087721
      py      :     0.058977
 12 O s       :     3.470416  s :     3.470416
      pz      :     1.492757  p :     4.788819
      px      :     1.777275
      py      :     1.518787
      dz2     :     0.022810  d :     0.061285
      dxz     :     0.007902
      dyz     :     0.007446
      dx2y2   :     0.007711
      dxy     :     0.015416
      f0      :     0.000920  f :     0.004968
      f+1     :     0.000722
      f-1     :     0.001017
      f+2     :     0.000388
      f-2     :     0.000418
      f+3     :     0.001128
      f-3     :     0.000375
 13 H s       :     0.682923  s :     0.682923
      pz      :     0.081243  p :     0.160834
      px      :     0.043355
      py      :     0.036236
 14 H s       :     0.668513  s :     0.668513
      pz      :     0.030128  p :     0.159713
      px      :     0.055754
      py      :     0.073830
 15 O s       :     3.452294  s :     3.452294
      pz      :     1.672042  p :     4.804513
      px      :     1.738153
      py      :     1.394318
      dz2     :     0.010648  d :     0.058071
      dxz     :     0.011160
      dyz     :     0.012463
      dx2y2   :     0.009386
      dxy     :     0.014414
      f0      :     0.000473  f :     0.004762
      f+1     :     0.000648
      f-1     :     0.000848
      f+2     :     0.000411
      f-2     :     0.001021
      f+3     :     0.000885
      f-3     :     0.000475
 16 H s       :     0.675214  s :     0.675214
      pz      :     0.067477  p :     0.168650
      px      :     0.054142
      py      :     0.047031
 17 H s       :     0.647122  s :     0.647122
      pz      :     0.034290  p :     0.199213
      px      :     0.048388
      py      :     0.116535


                      *****************************
                      * MAYER POPULATION ANALYSIS *
                      *****************************

  NA   - Mulliken gross atomic population
  ZA   - Total nuclear charge
  QA   - Mulliken gross atomic charge
  VA   - Mayer's total valence
  BVA  - Mayer's bonded valence
  FA   - Mayer's free valence

  ATOM       NA         ZA         QA         VA         BVA        FA
  0 O      8.7245     8.0000    -0.7245     2.0656     1.6773     0.3882
  1 H      0.6005     1.0000     0.3995     0.8658     0.8227     0.0431
  2 H      0.6369     1.0000     0.3631     0.8898     0.8434     0.0464
  3 O      8.7559     8.0000    -0.7559     2.0242     1.6314     0.3928
  4 H      0.6211     1.0000     0.3789     0.8901     0.8450     0.0450
  5 H      0.6482     1.0000     0.3518     0.9143     0.8657     0.0486
  6 O      8.7332     8.0000    -0.7332     2.0688     1.6778     0.3910
  7 H      0.6093     1.0000     0.3907     0.8683     0.8247     0.0437
  8 H      0.6389     1.0000     0.3611     0.8949     0.8469     0.0480
  9 O      8.7351     8.0000    -0.7351     2.0459     1.6572     0.3888
 10 H      0.6630     1.0000     0.3370     0.9065     0.8582     0.0483
 11 H      0.6183     1.0000     0.3817     0.8920     0.8471     0.0450
 12 O      8.6849     8.0000    -0.6849     2.0876     1.7025     0.3851
 13 H      0.6700     1.0000     0.3300     0.9105     0.8618     0.0487
 14 H      0.6419     1.0000     0.3581     0.8901     0.8439     0.0462
 15 O      8.7782     8.0000    -0.7782     2.0040     1.6079     0.3961
 16 H      0.6452     1.0000     0.3548     0.8952     0.8487     0.0465
 17 H      0.5949     1.0000     0.4051     0.8743     0.8285     0.0458

  Mayer bond orders larger than 0.100000
B(  0-O ,  1-H ) :   0.8005 B(  0-O ,  2-H ) :   0.8320 B(  3-O ,  4-H ) :   0.8157 
B(  3-O ,  5-H ) :   0.8252 B(  6-O ,  7-H ) :   0.8160 B(  6-O ,  8-H ) :   0.8279 
B(  9-O , 10-H ) :   0.8522 B(  9-O , 11-H ) :   0.8054 B( 12-O , 13-H ) :   0.8560 
B( 12-O , 14-H ) :   0.8393 B( 15-O , 16-H ) :   0.8390 B( 15-O , 17-H ) :   0.7480 



                *******************************************
                * RELAXED MP2 DENSITY POPULATION ANALYSIS *
                *******************************************

------------------------------------------------------------------------------
                           ORCA POPULATION ANALYSIS
------------------------------------------------------------------------------
Input electron density              ... 12h2o.su.etal.mol3,4,7,8,9,10-orca.engrad-mp2.def2tzvp.frozencore.pmp2re
BaseName (.gbw .S,...)              ... 12h2o.su.etal.mol3,4,7,8,9,10-orca.engrad-mp2.def2tzvp.frozencore

                    ********************************
                    * MULLIKEN POPULATION ANALYSIS *
                    ********************************

-----------------------
MULLIKEN ATOMIC CHARGES
-----------------------
   0 O :   -0.696610
   1 H :    0.387376
   2 H :    0.356298
   3 O :   -0.732116
   4 H :    0.363606
   5 H :    0.333318
   6 O :   -0.708871
   7 H :    0.382472
   8 H :    0.352285
   9 O :   -0.717311
  10 H :    0.330560
  11 H :    0.363752
  12 O :   -0.670713
  13 H :    0.324082
  14 H :    0.351402
  15 O :   -0.748613
  16 H :    0.347577
  17 H :    0.381506
Sum of atomic charges:    0.0000000

--------------------------------
MULLIKEN REDUCED ORBITAL CHARGES
--------------------------------
  0 O s       :     3.792579  s :     3.792579
      pz      :     1.557580  p :     4.849515
      px      :     1.535470
      py      :     1.756466
      dz2     :     0.016093  d :     0.050593
      dxz     :     0.006641
      dyz     :     0.008001
      dx2y2   :     0.008037
      dxy     :     0.011820
      f0      :     0.000598  f :     0.003923
      f+1     :     0.000730
      f-1     :     0.000525
      f+2     :     0.000414
      f-2     :     0.000421
      f+3     :     0.000426
      f-3     :     0.000810
  1 H s       :     0.563059  s :     0.563059
      pz      :     0.023837  p :     0.049565
      px      :     0.012189
      py      :     0.013539
  2 H s       :     0.597859  s :     0.597859
      pz      :     0.011951  p :     0.045842
      px      :     0.018080
      py      :     0.015811
  3 O s       :     3.796397  s :     3.796397
      pz      :     1.570245  p :     4.882192
      px      :     1.852613
      py      :     1.459333
      dz2     :     0.015134  d :     0.049608
      dxz     :     0.008106
      dyz     :     0.007989
      dx2y2   :     0.008356
      dxy     :     0.010023
      f0      :     0.000538  f :     0.003920
      f+1     :     0.000485
      f-1     :     0.000783
      f+2     :     0.000440
      f-2     :     0.000405
      f+3     :     0.000785
      f-3     :     0.000483
  4 H s       :     0.585158  s :     0.585158
      pz      :     0.023726  p :     0.051235
      px      :     0.015116
      py      :     0.012393
  5 H s       :     0.610058  s :     0.610058
      pz      :     0.011944  p :     0.056624
      px      :     0.017644
      py      :     0.027035
  6 O s       :     3.802145  s :     3.802145
      pz      :     1.562269  p :     4.853084
      px      :     1.458086
      py      :     1.832729
      dz2     :     0.015077  d :     0.049682
      dxz     :     0.007661
      dyz     :     0.007874
      dx2y2   :     0.008826
      dxy     :     0.010243
      f0      :     0.000561  f :     0.003959
      f+1     :     0.000788
      f-1     :     0.000491
      f+2     :     0.000436
      f-2     :     0.000403
      f+3     :     0.000482
      f-3     :     0.000798
  7 H s       :     0.572031  s :     0.572031
      pz      :     0.018625  p :     0.045497
      px      :     0.012291
      py      :     0.014581
  8 H s       :     0.603673  s :     0.603673
      pz      :     0.010748  p :     0.044042
      px      :     0.017836
      py      :     0.015459
  9 O s       :     3.805708  s :     3.805708
      pz      :     1.481117  p :     4.857862
      px      :     1.571559
      py      :     1.805186
      dz2     :     0.015657  d :     0.049772
      dxz     :     0.006591
      dyz     :     0.008265
      dx2y2   :     0.007516
      dxy     :     0.011743
      f0      :     0.000630  f :     0.003969
      f+1     :     0.000724
      f-1     :     0.000527
      f+2     :     0.000416
      f-2     :     0.000420
      f+3     :     0.000433
      f-3     :     0.000819
 10 H s       :     0.622381  s :     0.622381
      pz      :     0.018132  p :     0.047059
      px      :     0.013463
      py      :     0.015464
 11 H s       :     0.584104  s :     0.584104
      pz      :     0.011135  p :     0.052144
      px      :     0.023669
      py      :     0.017340
 12 O s       :     3.815612  s :     3.815612
      pz      :     1.474372  p :     4.800662
      px      :     1.800958
      py      :     1.525332
      dz2     :     0.015880  d :     0.050433
      dxz     :     0.008478
      dyz     :     0.006528
      dx2y2   :     0.007495
      dxy     :     0.012053
      f0      :     0.000626  f :     0.004006
      f+1     :     0.000534
      f-1     :     0.000724
      f+2     :     0.000413
      f-2     :     0.000418
      f+3     :     0.000853
      f-3     :     0.000437
 13 H s       :     0.628050  s :     0.628050
      pz      :     0.018053  p :     0.047868
      px      :     0.015963
      py      :     0.013852
 14 H s       :     0.602010  s :     0.602010
      pz      :     0.011852  p :     0.046588
      px      :     0.016674
      py      :     0.018061
 15 O s       :     3.806050  s :     3.806050
      pz      :     1.703816  p :     4.890198
      px      :     1.767157
      py      :     1.419225
      dz2     :     0.009276  d :     0.048445
      dxz     :     0.010364
      dyz     :     0.009394
      dx2y2   :     0.007795
      dxy     :     0.011617
      f0      :     0.000453  f :     0.003919
      f+1     :     0.000530
      f-1     :     0.000667
      f+2     :     0.000433
      f-2     :     0.000694
      f+3     :     0.000684
      f-3     :     0.000458
 16 H s       :     0.604627  s :     0.604627
      pz      :     0.017491  p :     0.047796
      px      :     0.016054
      py      :     0.014251
 17 H s       :     0.561086  s :     0.561086
      pz      :     0.011604  p :     0.057407
      px      :     0.014345
      py      :     0.031458


                     *******************************
                     * LOEWDIN POPULATION ANALYSIS *
                     *******************************

----------------------
LOEWDIN ATOMIC CHARGES
----------------------
   0 O :   -0.271546
   1 H :    0.158710
   2 H :    0.173416
   3 O :   -0.369694
   4 H :    0.144433
   5 H :    0.131991
   6 O :   -0.276564
   7 H :    0.183614
   8 H :    0.176425
   9 O :   -0.352142
  10 H :    0.159786
  11 H :    0.146918
  12 O :   -0.327825
  13 H :    0.157913
  14 H :    0.173453
  15 O :   -0.312821
  16 H :    0.157867
  17 H :    0.146067

-------------------------------
LOEWDIN REDUCED ORBITAL CHARGES
-------------------------------
  0 O s       :     3.449698  s :     3.449698
      pz      :     1.532494  p :     4.757397
      px      :     1.522772
      py      :     1.702131
      dz2     :     0.020932  d :     0.059531
      dxz     :     0.007074
      dyz     :     0.007421
      dx2y2   :     0.009345
      dxy     :     0.014760
      f0      :     0.000842  f :     0.004920
      f+1     :     0.000987
      f-1     :     0.000736
      f+2     :     0.000390
      f-2     :     0.000421
      f+3     :     0.000408
      f-3     :     0.001136
  1 H s       :     0.667520  s :     0.667520
      pz      :     0.093793  p :     0.173770
      px      :     0.037114
      py      :     0.042864
  2 H s       :     0.665059  s :     0.665059
      pz      :     0.032218  p :     0.161524
      px      :     0.073191
      py      :     0.056115
  3 O s       :     3.461930  s :     3.461930
      pz      :     1.561188  p :     4.845820
      px      :     1.821291
      py      :     1.463342
      dz2     :     0.019141  d :     0.057160
      dxz     :     0.007143
      dyz     :     0.009055
      dx2y2   :     0.009784
      dxy     :     0.012037
      f0      :     0.000762  f :     0.004784
      f+1     :     0.000577
      f-1     :     0.001159
      f+2     :     0.000417
      f-2     :     0.000413
      f+3     :     0.001007
      f-3     :     0.000449
  4 H s       :     0.679136  s :     0.679136
      pz      :     0.093533  p :     0.176432
      px      :     0.044828
      py      :     0.038071
  5 H s       :     0.681724  s :     0.681724
      pz      :     0.032707  p :     0.186285
      px      :     0.054433
      py      :     0.099146
  6 O s       :     3.459052  s :     3.459052
      pz      :     1.531941  p :     4.752883
      px      :     1.449315
      py      :     1.771627
      dz2     :     0.020463  d :     0.059731
      dxz     :     0.008938
      dyz     :     0.007034
      dx2y2   :     0.010958
      dxy     :     0.012339
      f0      :     0.000780  f :     0.004898
      f+1     :     0.001177
      f-1     :     0.000601
      f+2     :     0.000414
      f-2     :     0.000414
      f+3     :     0.000458
      f-3     :     0.001053
  7 H s       :     0.654792  s :     0.654792
      pz      :     0.081883  p :     0.161594
      px      :     0.035723
      py      :     0.043988
  8 H s       :     0.666428  s :     0.666428
      pz      :     0.030658  p :     0.157147
      px      :     0.075347
      py      :     0.051141
  9 O s       :     3.464046  s :     3.464046
      pz      :     1.499138  p :     4.825297
      px      :     1.544572
      py      :     1.781588
      dz2     :     0.021170  d :     0.057916
      dxz     :     0.007387
      dyz     :     0.007743
      dx2y2   :     0.007499
      dxy     :     0.014117
      f0      :     0.000916  f :     0.004883
      f+1     :     0.001008
      f-1     :     0.000705
      f+2     :     0.000391
      f-2     :     0.000422
      f+3     :     0.000377
      f-3     :     0.001064
 10 H s       :     0.678496  s :     0.678496
      pz      :     0.080364  p :     0.161718
      px      :     0.037421
      py      :     0.043933
 11 H s       :     0.675667  s :     0.675667
      pz      :     0.030602  p :     0.177416
      px      :     0.087281
      py      :     0.059532
 12 O s       :     3.472737  s :     3.472737
      pz      :     1.494504  p :     4.790218
      px      :     1.775044
      py      :     1.520670
      dz2     :     0.021974  d :     0.059887
      dxz     :     0.007931
      dyz     :     0.007291
      dx2y2   :     0.007638
      dxy     :     0.015053
      f0      :     0.000920  f :     0.004984
      f+1     :     0.000720
      f-1     :     0.001025
      f+2     :     0.000390
      f-2     :     0.000417
      f+3     :     0.001136
      f-3     :     0.000375
 13 H s       :     0.680793  s :     0.680793
      pz      :     0.080590  p :     0.161294
      px      :     0.044328
      py      :     0.036376
 14 H s       :     0.666923  s :     0.666923
      pz      :     0.030373  p :     0.159624
      px      :     0.056209
      py      :     0.073042
 15 O s       :     3.453991  s :     3.453991
      pz      :     1.667172  p :     4.796355
      px      :     1.731148
      py      :     1.398036
      dz2     :     0.010748  d :     0.057673
      dxz     :     0.011136
      dyz     :     0.012134
      dx2y2   :     0.009431
      dxy     :     0.014224
      f0      :     0.000477  f :     0.004801
      f+1     :     0.000650
      f-1     :     0.000859
      f+2     :     0.000412
      f-2     :     0.001023
      f+3     :     0.000900
      f-3     :     0.000480
 16 H s       :     0.673479  s :     0.673479
      pz      :     0.067486  p :     0.168654
      px      :     0.054563
      py      :     0.046604
 17 H s       :     0.654567  s :     0.654567
      pz      :     0.034890  p :     0.199366
      px      :     0.048806
      py      :     0.115669


                      *****************************
                      * MAYER POPULATION ANALYSIS *
                      *****************************

  NA   - Mulliken gross atomic population
  ZA   - Total nuclear charge
  QA   - Mulliken gross atomic charge
  VA   - Mayer's total valence
  BVA  - Mayer's bonded valence
  FA   - Mayer's free valence

  ATOM       NA         ZA         QA         VA         BVA        FA
  0 O      8.6966     8.0000    -0.6966     2.1028     1.7206     0.3822
  1 H      0.6126     1.0000     0.3874     0.8820     0.8391     0.0429
  2 H      0.6437     1.0000     0.3563     0.8967     0.8504     0.0463
  3 O      8.7321     8.0000    -0.7321     2.0403     1.6527     0.3876
  4 H      0.6364     1.0000     0.3636     0.9107     0.8661     0.0446
  5 H      0.6667     1.0000     0.3333     0.9399     0.8920     0.0479
  6 O      8.7089     8.0000    -0.7089     2.1112     1.7264     0.3848
  7 H      0.6175     1.0000     0.3825     0.8757     0.8321     0.0436
  8 H      0.6477     1.0000     0.3523     0.9058     0.8582     0.0476
  9 O      8.7173     8.0000    -0.7173     2.0562     1.6725     0.3837
 10 H      0.6694     1.0000     0.3306     0.9117     0.8635     0.0483
 11 H      0.6362     1.0000     0.3638     0.9176     0.8732     0.0444
 12 O      8.6707     8.0000    -0.6707     2.0950     1.7150     0.3799
 13 H      0.6759     1.0000     0.3241     0.9150     0.8662     0.0488
 14 H      0.6486     1.0000     0.3514     0.8953     0.8489     0.0463
 15 O      8.7486     8.0000    -0.7486     2.0446     1.6549     0.3897
 16 H      0.6524     1.0000     0.3476     0.9005     0.8540     0.0465
 17 H      0.6185     1.0000     0.3815     0.9022     0.8574     0.0449

  Mayer bond orders larger than 0.100000
B(  0-O ,  1-H ) :   0.8049 B(  0-O ,  2-H ) :   0.8346 B(  3-O ,  4-H ) :   0.8208 
B(  3-O ,  5-H ) :   0.8271 B(  6-O ,  7-H ) :   0.8202 B(  6-O ,  8-H ) :   0.8308 
B(  9-O , 10-H ) :   0.8556 B(  9-O , 11-H ) :   0.8095 B( 12-O , 13-H ) :   0.8594 
B( 12-O , 14-H ) :   0.8441 B( 15-O , 16-H ) :   0.8417 B( 15-O , 17-H ) :   0.7466 



----------------------------------
MP2 DERIVATIVE INTEGRAL GENERATION
----------------------------------


Input Wavefunction Amplitudes       ... 12h2o.su.etal.mol3,4,7,8,9,10-orca.engrad-mp2.def2tzvp.frozencore.mp2tsaa.tmp
Input Correlated Electron Density   ... 12h2o.su.etal.mol3,4,7,8,9,10-orca.engrad-mp2.def2tzvp.frozencore.pmp2re
Input Energy Weighted Density       ... 12h2o.su.etal.mol3,4,7,8,9,10-orca.engrad-mp2.def2tzvp.frozencore.wmp2.tmp
Input SCF Electron Density          ... 12h2o.su.etal.mol3,4,7,8,9,10-orca.engrad-mp2.def2tzvp.frozencore.scfp

One-Electron Terms    ...
                        ... One-Electron Terms done
Prescreening matrices              ... done

Batch handling in the gradient evaluation:
Memory available                      ... 8000.0 MB
Memory per occupied orbital in Q2     ...   12.2 MB
Memory per occupied orbital in Q3     ...    0.1 MB
Total memory requirement per |i>      ...   12.3 MB
Max. Number of orbitals possible      ...    651
Number of orbitals treated per batch  ...     24
Number of batches to be done          ...      1
Batch   0: i=    6 ...    29

---------------------------------------
MP2 TOTAL ENERGY:     -457.918994081 Eh
---------------------------------------

The final MP2 gradient
  0:  -0.00785597   0.00781372  -0.00299696
  1:   0.00189807  -0.00008006   0.00134720
  2:   0.00698447  -0.00459639   0.00235627
  3:   0.00481187   0.00876333   0.00048062
  4:  -0.00293034   0.00340695  -0.00357321
  5:  -0.00576142  -0.01889937   0.00107872
  6:  -0.01447319   0.01549715  -0.00792179
  7:   0.00017574   0.00007377   0.00559229
  8:   0.01515502  -0.00726573  -0.00076531
  9:  -0.00000053   0.00042253  -0.00883186
 10:   0.00351444  -0.00003351   0.00940093
 11:  -0.00191667  -0.00010570  -0.00217949
 12:  -0.00430854  -0.00641609   0.01050357
 13:  -0.00126740  -0.00174266  -0.00993278
 14:   0.00548373   0.00809327   0.00037831
 15:   0.00200550   0.00504297   0.00221481
 16:   0.00078368  -0.00001599   0.00129070
 17:  -0.00229845  -0.00995819   0.00155800

-----------------------------------
NORM OF THE MP2 GRADIENT:  0.047582
-----------------------------------

-------------------------   --------------------
FINAL SINGLE POINT ENERGY      -457.918994081478
-------------------------   --------------------


                            ***************************************
                            *     ORCA property calculations      *
                            ***************************************

                                    ---------------------
                                    Active property flags
                                    ---------------------
   (+) Dipole Moment


------------------------------------------------------------------------------
                       ORCA ELECTRIC PROPERTIES CALCULATION
------------------------------------------------------------------------------

Dipole Moment Calculation                       ... on
Quadrupole Moment Calculation                   ... off
Polarizability Calculation                      ... off
GBWName                                         ... 12h2o.su.etal.mol3,4,7,8,9,10-orca.engrad-mp2.def2tzvp.frozencore.gbw
Electron density file                           ... 12h2o.su.etal.mol3,4,7,8,9,10-orca.engrad-mp2.def2tzvp.frozencore.scfp
The origin for moment calculation is the CENTER OF MASS  = (-0.885916,  0.265637 -1.782967)

-------------
DIPOLE MOMENT
-------------
                                X             Y             Z
Electronic contribution:     -0.32964      -0.27463       0.05249
Nuclear contribution   :     -0.11304      -0.76235       0.05351
                        -----------------------------------------
Total Dipole Moment    :     -0.44268      -1.03698       0.10600
                        -----------------------------------------
Magnitude (a.u.)       :      1.13249
Magnitude (Debye)      :      2.87856



--------------------
Rotational spectrum 
--------------------
 
Rotational constants in cm-1:     0.055332     0.024467     0.022458 
Rotational constants in MHz :  1658.812602   733.500722   673.269833 

 Dipole components along the rotational axes: 
x,y,z [a.u.] :     0.475204     0.731044     0.722698 
x,y,z [Debye]:     1.207872     1.858166     1.836953 

 

                         *** MP2 UNRELAXED DENSITY ***

------------------------------------------------------------------------------
                       ORCA ELECTRIC PROPERTIES CALCULATION
------------------------------------------------------------------------------

Dipole Moment Calculation                       ... on
Quadrupole Moment Calculation                   ... off
Polarizability Calculation                      ... off
GBWName                                         ... 12h2o.su.etal.mol3,4,7,8,9,10-orca.engrad-mp2.def2tzvp.frozencore.gbw
Electron density file                           ... 12h2o.su.etal.mol3,4,7,8,9,10-orca.engrad-mp2.def2tzvp.frozencore.pmp2ur
The origin for moment calculation is the CENTER OF MASS  = (-0.885916,  0.265637 -1.782967)

-------------
DIPOLE MOMENT
-------------
                                X             Y             Z
Electronic contribution:     -0.33206      -0.27030       0.05303
Nuclear contribution   :     -0.11304      -0.76235       0.05351
                        -----------------------------------------
Total Dipole Moment    :     -0.44510      -1.03265       0.10654
                        -----------------------------------------
Magnitude (a.u.)       :      1.12953
Magnitude (Debye)      :      2.87103



--------------------
Rotational spectrum 
--------------------
 
Rotational constants in cm-1:     0.055332     0.024467     0.022458 
Rotational constants in MHz :  1658.812602   733.500722   673.269833 

 Dipole components along the rotational axes: 
x,y,z [a.u.] :     0.473698     0.732027     0.718040 
x,y,z [Debye]:     1.204046     1.860666     1.825113 

 

                           *** MP2 RELAXED DENSITY ***

------------------------------------------------------------------------------
                       ORCA ELECTRIC PROPERTIES CALCULATION
------------------------------------------------------------------------------

Dipole Moment Calculation                       ... on
Quadrupole Moment Calculation                   ... off
Polarizability Calculation                      ... off
GBWName                                         ... 12h2o.su.etal.mol3,4,7,8,9,10-orca.engrad-mp2.def2tzvp.frozencore.gbw
Electron density file                           ... 12h2o.su.etal.mol3,4,7,8,9,10-orca.engrad-mp2.def2tzvp.frozencore.pmp2re
The origin for moment calculation is the CENTER OF MASS  = (-0.885916,  0.265637 -1.782967)

-------------
DIPOLE MOMENT
-------------
                                X             Y             Z
Electronic contribution:     -0.33616      -0.28179       0.05754
Nuclear contribution   :     -0.11304      -0.76235       0.05351
                        -----------------------------------------
Total Dipole Moment    :     -0.44920      -1.04414       0.11105
                        -----------------------------------------
Magnitude (a.u.)       :      1.14208
Magnitude (Debye)      :      2.90293



--------------------
Rotational spectrum 
--------------------
 
Rotational constants in cm-1:     0.055332     0.024467     0.022458 
Rotational constants in MHz :  1658.812602   733.500722   673.269833 

 Dipole components along the rotational axes: 
x,y,z [a.u.] :     0.482068     0.739245     0.724890 
x,y,z [Debye]:     1.225321     1.879010     1.842523 

 

Timings for individual modules:

Sum of individual times         ...       64.113 sec (=   1.069 min)
GTO integral calculation        ...        0.927 sec (=   0.015 min)   1.4 %
SCF iterations                  ...       12.421 sec (=   0.207 min)  19.4 %
MP2 module                      ...       50.765 sec (=   0.846 min)  79.2 %
                             ****ORCA TERMINATED NORMALLY****
TOTAL RUN TIME: 0 days 0 hours 1 minutes 5 seconds 48 msec
