
                                 *****************
                                 * O   R   C   A *
                                 *****************

           --- An Ab Initio, DFT and Semiempirical electronic structure package ---

                  #######################################################
                  #                        -***-                        #
                  #          Department of theory and spectroscopy      #
                  #               Directorship: Frank Neese             #
                  #        Max Planck Institute fuer Kohlenforschung    #
                  #                Kaiser Wilhelm Platz 1               #
                  #                 D-45470 Muelheim/Ruhr               #
                  #                      Germany                        #
                  #                                                     #
                  #                  All rights reserved                #
                  #                        -***-                        #
                  #######################################################


                         Program Version 4.2.0 -  RELEASE  -


 With contributions from (in alphabetic order):
   Daniel Aravena         : Magnetic Suceptibility
   Michael Atanasov       : Ab Initio Ligand Field Theory (pilot matlab implementation)
   Alexander A. Auer      : GIAO ZORA, VPT2
   Ute Becker             : Parallelization
   Giovanni Bistoni       : ED, misc. LED, open-shell LED, HFLED
   Martin Brehm           : Molecular dynamics
   Dmytro Bykov           : SCF Hessian
   Vijay G. Chilkuri      : MRCI spin determinant printing, contributions to CSF-ICE
   Dipayan Datta          : RHF DLPNO-CCSD density
   Achintya Kumar Dutta   : EOM-CC, STEOM-CC
   Dmitry Ganyushin       : Spin-Orbit,Spin-Spin,Magnetic field MRCI
   Miquel Garcia          : C-PCM Hessian, Gaussian charge scheme
   Yang Guo               : DLPNO-NEVPT2, CIM, IAO-localization
   Andreas Hansen         : Spin unrestricted coupled pair/coupled cluster methods
   Benjamin Helmich-Paris : CASSCF linear response (MC-RPA)
   Lee Huntington         : MR-EOM, pCC
   Robert Izsak           : Overlap fitted RIJCOSX, COSX-SCS-MP3, EOM
   Christian Kollmar      : KDIIS, OOCD, Brueckner-CCSD(T), CCSD density
   Simone Kossmann        : Meta GGA functionals, TD-DFT gradient, OOMP2, MP2 Hessian
   Martin Krupicka        : AUTO-CI
   Lucas Lang             : DCDCAS
   Dagmar Lenk            : GEPOL surface, SMD
   Dimitrios Liakos       : Extrapolation schemes; Compound Job, initial MDCI parallelization
   Dimitrios Manganas     : Further ROCIS development; embedding schemes
   Dimitrios Pantazis     : SARC Basis sets
   Taras Petrenko         : DFT Hessian,TD-DFT gradient, ASA, ECA, R-Raman, ABS, FL, XAS/XES, NRVS
   Peter Pinski           : DLPNO-MP2, DLPNO-MP2 Gradient
   Christoph Reimann      : Effective Core Potentials
   Marius Retegan         : Local ZFS, SOC
   Christoph Riplinger    : Optimizer, TS searches, QM/MM, DLPNO-CCSD(T), (RO)-DLPNO pert. Triples
   Tobias Risthaus        : Range-separated hybrids, TD-DFT gradient, RPA, STAB
   Michael Roemelt        : Original ROCIS implementation
   Masaaki Saitow         : Open-shell DLPNO-CCSD energy and density
   Barbara Sandhoefer     : DKH picture change effects
   Avijit Sen             : IP-ROCIS
   Kantharuban Sivalingam : CASSCF convergence, NEVPT2, FIC-MRCI
   Bernardo de Souza      : ESD, SOC TD-DFT
   Georgi Stoychev        : AutoAux, RI-MP2 NMR
   Willem Van den Heuvel  : Paramagnetic NMR
   Boris Wezisla          : Elementary symmetry handling
   Frank Wennmohs         : Technical directorship


 We gratefully acknowledge several colleagues who have allowed us to
 interface, adapt or use parts of their codes:
   Stefan Grimme, W. Hujo, H. Kruse,             : VdW corrections, initial TS optimization,
                  C. Bannwarth                     DFT functionals, gCP, sTDA/sTD-DF
   Ed Valeev, F. Pavosevic, A. Kumar             : LibInt (2-el integral package), F12 methods
   Garnet Chan, S. Sharma, J. Yang, R. Olivares  : DMRG
   Ulf Ekstrom                                   : XCFun DFT Library
   Mihaly Kallay                                 : mrcc  (arbitrary order and MRCC methods)
   Andreas Klamt, Michael Diedenhofen            : otool_cosmo (COSMO solvation model)
   Jiri Pittner, Ondrej Demel                    : Mk-CCSD
   Frank Weinhold                                : gennbo (NPA and NBO analysis)
   Christopher J. Cramer and Donald G. Truhlar   : smd solvation model
   Lars Goerigk                                  : TD-DFT with DH, B97 family of functionals
   V. Asgeirsson, H. Jonsson                     : NEB implementation
   FAccTs GmbH                                   : IRC, NEB, NEB-TS, Multilevel, MM, QM/MM, CI optimization
   S Lehtola, MJT Oliveira, MAL Marques          : LibXC Library


 Your calculation uses the libint2 library for the computation of 2-el integrals
 For citations please refer to: http://libint.valeyev.net

 Your ORCA version has been built with support for libXC version: 4.2.3
 For citations please refer to: https://tddft.org/programs/libxc/

 This ORCA versions uses:
   CBLAS   interface :  Fast vector & matrix operations
   LAPACKE interface :  Fast linear algebra routines
   SCALAPACK package :  Parallel linear algebra routines


----- Orbital basis set information -----
Your calculation utilizes the basis: def2-TZVP
   F. Weigend and R. Ahlrichs, Phys. Chem. Chem. Phys. 7, 3297 (2005).

================================================================================
                                        WARNINGS
                       Please study these warnings very carefully!
================================================================================


WARNING: The frozen-core approximation for MP2-gradient calculations is turned on by default.

INFO   : the flag for use of LIBINT has been found!

================================================================================
                                       INPUT FILE
================================================================================
NAME = 12h2o.su.etal.mol1,2,4,5,10-orca.engrad-mp2.def2tzvp.frozencore.inp
|  1> # 12h2o.su.etal.mol1,2,4,5,10
|  2> ! MP2 def2-TZVP EnGrad TightSCF
|  3> 
|  4> %pal
|  5>     nprocs 6
|  6> end
|  7> 
|  8> %maxcore 8000
|  9> 
| 10> %scf
| 11>     ConvForced true
| 12> end
| 13> 
| 14> *xyz 0 1
| 15> O  -1.794470000  -0.923410000   2.768350000
| 16> H  -2.338250000  -1.359750000   3.430940000
| 17> H  -0.879480000  -1.303000000   2.865760000
| 18> O   0.923410000  -1.794470000  -2.768350000
| 19> H   1.359750000  -2.338250000  -3.430940000
| 20> H   1.303000000  -0.879480000  -2.865760000
| 21> O  -0.885520000   1.737840000   0.052730000
| 22> H  -1.032320000   2.090180000  -0.841890000
| 23> H  -1.284090000   0.839590000   0.017130000
| 24> O   0.885520000  -1.737840000   0.052730000
| 25> H   1.284090000  -0.839590000   0.017130000
| 26> H   1.032320000  -2.090180000  -0.841890000
| 27> O  -0.923410000   1.794470000  -2.768350000
| 28> H  -1.359750000   2.338250000  -3.430940000
| 29> H  -1.303000000   0.879480000  -2.865760000
| 30> *
| 31> 
| 32>                          ****END OF INPUT****
================================================================================

                     *******************************
                     * Energy+Gradient Calculation *
                     *******************************

---------------------------------
CARTESIAN COORDINATES (ANGSTROEM)
---------------------------------
  O     -1.794470   -0.923410    2.768350
  H     -2.338250   -1.359750    3.430940
  H     -0.879480   -1.303000    2.865760
  O      0.923410   -1.794470   -2.768350
  H      1.359750   -2.338250   -3.430940
  H      1.303000   -0.879480   -2.865760
  O     -0.885520    1.737840    0.052730
  H     -1.032320    2.090180   -0.841890
  H     -1.284090    0.839590    0.017130
  O      0.885520   -1.737840    0.052730
  H      1.284090   -0.839590    0.017130
  H      1.032320   -2.090180   -0.841890
  O     -0.923410    1.794470   -2.768350
  H     -1.359750    2.338250   -3.430940
  H     -1.303000    0.879480   -2.865760

----------------------------
CARTESIAN COORDINATES (A.U.)
----------------------------
  NO LB      ZA    FRAG     MASS         X           Y           Z
   0 O     8.0000    0    15.999   -3.391057   -1.744992    5.231423
   1 H     1.0000    0     1.008   -4.418652   -2.569555    6.483537
   2 H     1.0000    0     1.008   -1.661976   -2.462313    5.415502
   3 O     8.0000    0    15.999    1.744992   -3.391057   -5.231423
   4 H     1.0000    0     1.008    2.569555   -4.418652   -6.483537
   5 H     1.0000    0     1.008    2.462313   -1.661976   -5.415502
   6 O     8.0000    0    15.999   -1.673390    3.284042    0.099645
   7 H     1.0000    0     1.008   -1.950802    3.949868   -1.590942
   8 H     1.0000    0     1.008   -2.426578    1.586595    0.032371
   9 O     8.0000    0    15.999    1.673390   -3.284042    0.099645
  10 H     1.0000    0     1.008    2.426578   -1.586595    0.032371
  11 H     1.0000    0     1.008    1.950802   -3.949868   -1.590942
  12 O     8.0000    0    15.999   -1.744992    3.391057   -5.231423
  13 H     1.0000    0     1.008   -2.569555    4.418652   -6.483537
  14 H     1.0000    0     1.008   -2.462313    1.661976   -5.415502

--------------------------------
INTERNAL COORDINATES (ANGSTROEM)
--------------------------------
 O      0   0   0     0.000000000000     0.00000000     0.00000000
 H      1   0   0     0.961828878803     0.00000000     0.00000000
 H      1   2   0     0.995381322057   106.21731035     0.00000000
 O      3   1   2     5.935920367146   102.58474291   140.89009172
 H      4   3   1     0.961828878803   146.97742434   224.01286022
 H      4   3   1     0.995381322057    97.62005672    87.72090689
 O      1   2   3     3.909352075396   156.75189195   192.19368952
 H      7   1   2     0.972645187106   148.25827701   289.33301105
 H      7   1   2     0.983350632989    46.29716176   266.74328444
 O      4   3   1     2.821902722526    17.32744736   169.52589616
 H     10   4   3     0.983350632989    88.66470709   258.45499027
 H     10   4   3     0.972645187106    21.75017499   124.29821266
 O      8   7   1     1.952064016317   147.60984291   295.81747223
 H     13   8   7     0.961828878803   124.67322417   165.49513251
 H     13   8   7     0.995381322057   102.38931089    45.51897547

---------------------------
INTERNAL COORDINATES (A.U.)
---------------------------
 O      0   0   0     0.000000000000     0.00000000     0.00000000
 H      1   0   0     1.817593168635     0.00000000     0.00000000
 H      1   2   0     1.880998097508   106.21731035     0.00000000
 O      3   1   2    11.217263846671   102.58474291   140.89009172
 H      4   3   1     1.817593168635   146.97742434   224.01286022
 H      4   3   1     1.880998097508    97.62005672    87.72090689
 O      1   2   3     7.387604783574   156.75189195   192.19368952
 H      7   1   2     1.838033029106   148.25827701   289.33301105
 H      7   1   2     1.858263389967    46.29716176   266.74328444
 O      4   3   1     5.332623322141    17.32744736   169.52589616
 H     10   4   3     1.858263389967    88.66470709   258.45499027
 H     10   4   3     1.838033029106    21.75017499   124.29821266
 O      8   7   1     3.688866386722   147.60984291   295.81747223
 H     13   8   7     1.817593168635   124.67322417   165.49513251
 H     13   8   7     1.880998097508   102.38931089    45.51897547

---------------------
BASIS SET INFORMATION
---------------------
There are 2 groups of distinct atoms

 Group   1 Type O   : 11s6p2d1f contracted to 5s3p2d1f pattern {62111/411/11/1}
 Group   2 Type H   : 5s1p contracted to 3s1p pattern {311/1}

Atom   0O    basis set group =>   1
Atom   1H    basis set group =>   2
Atom   2H    basis set group =>   2
Atom   3O    basis set group =>   1
Atom   4H    basis set group =>   2
Atom   5H    basis set group =>   2
Atom   6O    basis set group =>   1
Atom   7H    basis set group =>   2
Atom   8H    basis set group =>   2
Atom   9O    basis set group =>   1
Atom  10H    basis set group =>   2
Atom  11H    basis set group =>   2
Atom  12O    basis set group =>   1
Atom  13H    basis set group =>   2
Atom  14H    basis set group =>   2


           ************************************************************
           *        Program running with 6 parallel MPI-processes     *
           *              working on a common directory               *
           ************************************************************
------------------------------------------------------------------------------
                           ORCA GTO INTEGRAL CALCULATION
------------------------------------------------------------------------------

                         BASIS SET STATISTICS AND STARTUP INFO

 # of primitive gaussian shells          ...  160
 # of primitive gaussian functions       ...  310
 # of contracted shells                  ...   95
 # of contracted basis functions         ...  215
 Highest angular momentum                ...    3
 Maximum contraction depth               ...    6
 Integral package used                   ... LIBINT
 Integral threshhold            Thresh   ...  2.500e-11
 Primitive cut-off              TCut     ...  2.500e-12


------------------------------ INTEGRAL EVALUATION ----------------------------


 * One electron integrals 
 Pre-screening matrix                    ... done
 Shell pair data                         ... done (   0.001 sec)



           ************************************************************
           *        Program running with 6 parallel MPI-processes     *
           *              working on a common directory               *
           ************************************************************
-------------------------------------------------------------------------------
                                 ORCA SCF
-------------------------------------------------------------------------------

------------
SCF SETTINGS
------------
Hamiltonian:
 Ab initio Hamiltonian  Method          .... Hartree-Fock(GTOs)


General Settings:
 Integral files         IntName         .... 12h2o.su.etal.mol1,2,4,5,10-orca.engrad-mp2.def2tzvp.frozencore
 Hartree-Fock type      HFTyp           .... RHF
 Total Charge           Charge          ....    0
 Multiplicity           Mult            ....    1
 Number of Electrons    NEL             ....   50
 Basis Dimension        Dim             ....  215
 Nuclear Repulsion      ENuc            ....    174.5155231454 Eh

Convergence Acceleration:
 DIIS                   CNVDIIS         .... on
   Start iteration      DIISMaxIt       ....    12
   Startup error        DIISStart       ....  0.200000
   # of expansion vecs  DIISMaxEq       ....     5
   Bias factor          DIISBfac        ....   1.050
   Max. coefficient     DIISMaxC        ....  10.000
 Newton-Raphson         CNVNR           .... off
 SOSCF                  CNVSOSCF        .... on
   Start iteration      SOSCFMaxIt      ....   150
   Startup grad/error   SOSCFStart      ....  0.003300
 Level Shifting         CNVShift        .... on
   Level shift para.    LevelShift      ....    0.2500
   Turn off err/grad.   ShiftErr        ....    0.0010
 Zerner damping         CNVZerner       .... off
 Static damping         CNVDamp         .... on
   Fraction old density DampFac         ....    0.7000
   Max. Damping (<1)    DampMax         ....    0.9800
   Min. Damping (>=0)   DampMin         ....    0.0000
   Turn off err/grad.   DampErr         ....    0.1000
 Fernandez-Rico         CNVRico         .... off

SCF Procedure:
 Maximum # iterations   MaxIter         ....   125
 SCF integral mode      SCFMode         .... Direct
   Integral package                     .... LIBINT
 Reset frequency        DirectResetFreq ....    20
 Integral Threshold     Thresh          ....  2.500e-11 Eh
 Primitive CutOff       TCut            ....  2.500e-12 Eh

Convergence Tolerance:
 Convergence Check Mode ConvCheckMode   .... Total+1el-Energy
 Convergence forced     ConvForced      .... 1
 Energy Change          TolE            ....  1.000e-08 Eh
 1-El. energy change                    ....  1.000e-05 Eh
 Orbital Gradient       TolG            ....  1.000e-05
 Orbital Rotation angle TolX            ....  1.000e-05
 DIIS Error             TolErr          ....  5.000e-07


Diagonalization of the overlap matrix:
Smallest eigenvalue                        ... 8.064e-03
Time for diagonalization                   ...    0.009 sec
Threshold for overlap eigenvalues          ... 1.000e-08
Number of eigenvalues below threshold      ... 0
Time for construction of square roots      ...    0.006 sec
Total time needed                          ...    0.016 sec

-------------------
DFT GRID GENERATION
-------------------

General Integration Accuracy     IntAcc      ...  4.340
Radial Grid Type                 RadialGrid  ... Gauss-Chebyshev
Angular Grid (max. acc.)         AngularGrid ... Lebedev-110
Angular grid pruning method      GridPruning ... 3 (G Style)
Weight generation scheme         WeightScheme... Becke
Basis function cutoff            BFCut       ...    1.0000e-11
Integration weight cutoff        WCut        ...    1.0000e-14
Grids for H and He will be reduced by one unit

# of grid points (after initial pruning)     ...  16520 (   0.0 sec)
# of grid points (after weights+screening)   ...  15888 (   0.0 sec)
nearest neighbour list constructed           ...    0.0 sec
Grid point re-assignment to atoms done       ...    0.0 sec
Grid point division into batches done        ...    0.0 sec
Reduced shell lists constructed in    0.0 sec

Total number of grid points                  ...    15888
Total number of batches                      ...      254
Average number of points per batch           ...       62
Average number of grid points per atom       ...     1059
Average number of shells per batch           ...    37.86 (39.86%)
Average number of basis functions per batch  ...    74.91 (34.84%)
Average number of large shells per batch     ...    25.68 (67.83%)
Average number of large basis fcns per batch ...    53.00 (70.75%)
Maximum spatial batch extension              ...  14.53, 20.95, 17.80 au
Average spatial batch extension              ...   0.73,  0.88,  0.82 au

Time for grid setup =    0.046 sec

------------------------------
INITIAL GUESS: MODEL POTENTIAL
------------------------------
Loading Hartree-Fock densities                     ... done
Calculating cut-offs                               ... done
Setting up the integral package                    ... done
Initializing the effective Hamiltonian             ... done
Starting the Coulomb interaction                   ... done (   0.0 sec)
Reading the grid                                   ... done
Mapping shells                                     ... done
Starting the XC term evaluation                    ... done (   0.0 sec)
Transforming the Hamiltonian                       ... done (   0.0 sec)
Diagonalizing the Hamiltonian                      ... done (   0.0 sec)
Back transforming the eigenvectors                 ... done (   0.0 sec)
Now organizing SCF variables                       ... done
                      ------------------
                      INITIAL GUESS DONE (   0.1 sec)
                      ------------------
--------------
SCF ITERATIONS
--------------
ITER       Energy         Delta-E        Max-DP      RMS-DP      [F,P]     Damp
               ***  Starting incremental Fock matrix formation  ***
  0   -379.8149844019   0.000000000000 0.04361688  0.00108447  0.3452715 0.7000
  1   -380.0049531548  -0.189968752892 0.02865567  0.00074597  0.2162591 0.7000
                               ***Turning on DIIS***
  2   -380.1042591628  -0.099306008070 0.01643187  0.00040869  0.1638304 0.7000
  3   -380.9762098306  -0.871950667736 0.00759456  0.00017852  0.1218859 0.7000
  4   -380.7964100171   0.179799813495 0.01698584  0.00041136  0.0862013 0.0000
  5   -380.3344574886   0.461952528507 0.00188177  0.00006780  0.0052690 0.0000
                      *** Initiating the SOSCF procedure ***
                           *** Shutting down DIIS ***
                      *** Re-Reading the Fockian *** 
                      *** Removing any level shift *** 
ITER      Energy       Delta-E        Grad      Rot      Max-DP    RMS-DP
  6   -380.30445589   0.0300015996  0.000911  0.000911  0.000931  0.000041
               *** Restarting incremental Fock matrix formation ***
  7   -380.29458180   0.0098740843  0.000357  0.000514  0.000446  0.000018
  8   -380.29458927  -0.0000074672  0.000183  0.000367  0.000381  0.000015
  9   -380.29459100  -0.0000017312  0.000074  0.000056  0.000084  0.000003
 10   -380.29459115  -0.0000001462  0.000010  0.000009  0.000015  0.000000
                  ***Gradient check signals convergence***
              ***Rediagonalizing the Fockian in SOSCF/NRSCF***

               *****************************************************
               *                     SUCCESS                       *
               *           SCF CONVERGED AFTER  11 CYCLES          *
               *****************************************************


----------------
TOTAL SCF ENERGY
----------------

Total Energy       :         -380.29459115 Eh          -10348.34192 eV

Components:
Nuclear Repulsion  :          174.51552315 Eh            4748.80881 eV
Electronic Energy  :         -554.81011430 Eh          -15097.15073 eV
One Electron Energy:         -873.02302933 Eh          -23756.16437 eV
Two Electron Energy:          318.21291503 Eh            8659.01363 eV

Virial components:
Potential Energy   :         -759.95280939 Eh          -20679.36726 eV
Kinetic Energy     :          379.65821824 Eh           10331.02534 eV
Virial Ratio       :            2.00167617


---------------
SCF CONVERGENCE
---------------

  Last Energy change         ...   -3.7016e-09  Tolerance :   1.0000e-08
  Last MAX-Density change    ...    4.2015e-06  Tolerance :   1.0000e-07
  Last RMS-Density change    ...    1.3989e-07  Tolerance :   5.0000e-09
  Last Orbital Gradient      ...    1.5831e-06  Tolerance :   1.0000e-05
  Last Orbital Rotation      ...    2.1629e-06  Tolerance :   1.0000e-05

             **** THE GBW FILE WAS UPDATED (12h2o.su.etal.mol1,2,4,5,10-orca.engrad-mp2.def2tzvp.frozencore.gbw) ****
             **** DENSITY FILE WAS UPDATED (12h2o.su.etal.mol1,2,4,5,10-orca.engrad-mp2.def2tzvp.frozencore.scfp) ****
             **** ENERGY FILE WAS UPDATED (12h2o.su.etal.mol1,2,4,5,10-orca.engrad-mp2.def2tzvp.frozencore.en.tmp) ****
             **** THE GBW FILE WAS UPDATED (12h2o.su.etal.mol1,2,4,5,10-orca.engrad-mp2.def2tzvp.frozencore.gbw) ****
             **** DENSITY FILE WAS UPDATED (12h2o.su.etal.mol1,2,4,5,10-orca.engrad-mp2.def2tzvp.frozencore.scfp) ****
----------------
ORBITAL ENERGIES
----------------

  NO   OCC          E(Eh)            E(eV) 
   0   2.0000     -20.595054      -560.4199 
   1   2.0000     -20.591215      -560.3154 
   2   2.0000     -20.541853      -558.9722 
   3   2.0000     -20.530465      -558.6623 
   4   2.0000     -20.517767      -558.3168 
   5   2.0000      -1.372887       -37.3582 
   6   2.0000      -1.369025       -37.2531 
   7   2.0000      -1.317198       -35.8428 
   8   2.0000      -1.309462       -35.6323 
   9   2.0000      -1.296845       -35.2890 
  10   2.0000      -0.740119       -20.1397 
  11   2.0000      -0.735354       -20.0100 
  12   2.0000      -0.685489       -18.6531 
  13   2.0000      -0.679507       -18.4903 
  14   2.0000      -0.667467       -18.1627 
  15   2.0000      -0.609154       -16.5759 
  16   2.0000      -0.603951       -16.4343 
  17   2.0000      -0.560625       -15.2554 
  18   2.0000      -0.553527       -15.0622 
  19   2.0000      -0.552099       -15.0234 
  20   2.0000      -0.526714       -14.3326 
  21   2.0000      -0.518417       -14.1068 
  22   2.0000      -0.485056       -13.1990 
  23   2.0000      -0.476322       -12.9614 
  24   2.0000      -0.463073       -12.6009 
  25   0.0000       0.090992         2.4760 
  26   0.0000       0.124553         3.3892 
  27   0.0000       0.142272         3.8714 
  28   0.0000       0.171009         4.6534 
  29   0.0000       0.182586         4.9684 
  30   0.0000       0.196760         5.3541 
  31   0.0000       0.226811         6.1718 
  32   0.0000       0.236809         6.4439 
  33   0.0000       0.268483         7.3058 
  34   0.0000       0.289993         7.8911 
  35   0.0000       0.475613        12.9421 
  36   0.0000       0.503027        13.6881 
  37   0.0000       0.510801        13.8996 
  38   0.0000       0.522373        14.2145 
  39   0.0000       0.534506        14.5446 
  40   0.0000       0.548129        14.9154 
  41   0.0000       0.550076        14.9683 
  42   0.0000       0.568060        15.4577 
  43   0.0000       0.592028        16.1099 
  44   0.0000       0.605197        16.4682 
  45   0.0000       0.616205        16.7678 
  46   0.0000       0.622965        16.9517 
  47   0.0000       0.630446        17.1553 
  48   0.0000       0.634376        17.2622 
  49   0.0000       0.645617        17.5681 
  50   0.0000       0.671114        18.2619 
  51   0.0000       0.709300        19.3010 
  52   0.0000       0.715506        19.4699 
  53   0.0000       0.725707        19.7475 
  54   0.0000       0.730525        19.8786 
  55   0.0000       0.757169        20.6036 
  56   0.0000       0.791527        21.5385 
  57   0.0000       0.800058        21.7707 
  58   0.0000       0.810367        22.0512 
  59   0.0000       0.817548        22.2466 
  60   0.0000       0.870467        23.6866 
  61   0.0000       0.880645        23.9636 
  62   0.0000       0.893816        24.3220 
  63   0.0000       0.925901        25.1951 
  64   0.0000       0.933504        25.4019 
  65   0.0000       1.382279        37.6137 
  66   0.0000       1.387174        37.7469 
  67   0.0000       1.405632        38.2492 
  68   0.0000       1.409813        38.3630 
  69   0.0000       1.431990        38.9664 
  70   0.0000       1.438722        39.1496 
  71   0.0000       1.452834        39.5336 
  72   0.0000       1.455836        39.6153 
  73   0.0000       1.481514        40.3140 
  74   0.0000       1.494136        40.6575 
  75   0.0000       1.543629        42.0043 
  76   0.0000       1.554810        42.3085 
  77   0.0000       1.575477        42.8709 
  78   0.0000       1.631847        44.4048 
  79   0.0000       1.644793        44.7571 
  80   0.0000       1.795502        48.8581 
  81   0.0000       1.823748        49.6267 
  82   0.0000       1.846097        50.2349 
  83   0.0000       1.864409        50.7332 
  84   0.0000       1.867307        50.8120 
  85   0.0000       1.880293        51.1654 
  86   0.0000       1.912596        52.0444 
  87   0.0000       1.921325        52.2819 
  88   0.0000       1.970109        53.6094 
  89   0.0000       1.976672        53.7880 
  90   0.0000       2.012968        54.7756 
  91   0.0000       2.020754        54.9875 
  92   0.0000       2.030529        55.2535 
  93   0.0000       2.107104        57.3372 
  94   0.0000       2.123853        57.7930 
  95   0.0000       2.271455        61.8094 
  96   0.0000       2.279187        62.0198 
  97   0.0000       2.316498        63.0351 
  98   0.0000       2.321374        63.1678 
  99   0.0000       2.327488        63.3342 
 100   0.0000       2.335677        63.5570 
 101   0.0000       2.346168        63.8425 
 102   0.0000       2.353385        64.0389 
 103   0.0000       2.369375        64.4740 
 104   0.0000       2.378590        64.7247 
 105   0.0000       2.389639        65.0254 
 106   0.0000       2.401610        65.3511 
 107   0.0000       2.411078        65.6088 
 108   0.0000       2.480954        67.5102 
 109   0.0000       2.490240        67.7629 
 110   0.0000       2.562653        69.7333 
 111   0.0000       2.567644        69.8691 
 112   0.0000       2.603714        70.8507 
 113   0.0000       2.633811        71.6697 
 114   0.0000       2.659199        72.3605 
 115   0.0000       2.685775        73.0837 
 116   0.0000       2.696072        73.3638 
 117   0.0000       2.718601        73.9769 
 118   0.0000       2.735274        74.4306 
 119   0.0000       2.745110        74.6982 
 120   0.0000       2.874114        78.2086 
 121   0.0000       2.905084        79.0514 
 122   0.0000       2.930491        79.7427 
 123   0.0000       2.946152        80.1689 
 124   0.0000       2.968989        80.7903 
 125   0.0000       2.984126        81.2022 
 126   0.0000       2.995821        81.5204 
 127   0.0000       3.000591        81.6502 
 128   0.0000       3.007147        81.8286 
 129   0.0000       3.026032        82.3425 
 130   0.0000       3.043027        82.8050 
 131   0.0000       3.062721        83.3409 
 132   0.0000       3.071676        83.5846 
 133   0.0000       3.107252        84.5526 
 134   0.0000       3.177495        86.4640 
 135   0.0000       3.187332        86.7317 
 136   0.0000       3.216032        87.5127 
 137   0.0000       3.234616        88.0184 
 138   0.0000       3.272798        89.0574 
 139   0.0000       3.285623        89.4063 
 140   0.0000       3.968019       107.9753 
 141   0.0000       3.974011       108.1383 
 142   0.0000       4.004804       108.9763 
 143   0.0000       4.067414       110.6800 
 144   0.0000       4.086554       111.2008 
 145   0.0000       4.280621       116.4816 
 146   0.0000       4.285301       116.6090 
 147   0.0000       4.329069       117.7999 
 148   0.0000       4.334296       117.9422 
 149   0.0000       4.348496       118.3286 
 150   0.0000       5.521981       150.2607 
 151   0.0000       5.525865       150.3664 
 152   0.0000       5.572208       151.6275 
 153   0.0000       5.577993       151.7849 
 154   0.0000       5.590849       152.1347 
 155   0.0000       5.607709       152.5935 
 156   0.0000       5.611811       152.7051 
 157   0.0000       5.662591       154.0869 
 158   0.0000       5.685129       154.7002 
 159   0.0000       5.696652       155.0138 
 160   0.0000       5.782318       157.3449 
 161   0.0000       5.786417       157.4564 
 162   0.0000       5.820303       158.3785 
 163   0.0000       5.825410       158.5175 
 164   0.0000       5.834993       158.7782 
 165   0.0000       5.848564       159.1475 
 166   0.0000       5.860966       159.4850 
 167   0.0000       5.870377       159.7411 
 168   0.0000       5.885769       160.1599 
 169   0.0000       5.890399       160.2859 
 170   0.0000       5.894761       160.4046 
 171   0.0000       5.906108       160.7134 
 172   0.0000       5.923752       161.1935 
 173   0.0000       5.936141       161.5306 
 174   0.0000       5.939813       161.6305 
 175   0.0000       6.398985       174.1252 
 176   0.0000       6.404998       174.2889 
 177   0.0000       6.452672       175.5861 
 178   0.0000       6.496426       176.7767 
 179   0.0000       6.509784       177.1402 
 180   0.0000       6.663818       181.3317 
 181   0.0000       6.669971       181.4991 
 182   0.0000       6.707383       182.5172 
 183   0.0000       6.717615       182.7956 
 184   0.0000       6.720469       182.8733 
 185   0.0000       6.843256       186.2145 
 186   0.0000       6.854686       186.5255 
 187   0.0000       6.859670       186.6611 
 188   0.0000       6.860402       186.6810 
 189   0.0000       6.871155       186.9736 
 190   0.0000       6.884447       187.3353 
 191   0.0000       6.889246       187.4659 
 192   0.0000       6.892397       187.5517 
 193   0.0000       6.898067       187.7060 
 194   0.0000       6.910804       188.0526 
 195   0.0000       6.940299       188.8551 
 196   0.0000       6.945320       188.9918 
 197   0.0000       6.950092       189.1216 
 198   0.0000       6.987761       190.1466 
 199   0.0000       7.000189       190.4848 
 200   0.0000       7.346573       199.9104 
 201   0.0000       7.356385       200.1774 
 202   0.0000       7.395946       201.2539 
 203   0.0000       7.397083       201.2849 
 204   0.0000       7.411071       201.6655 
 205   0.0000       7.462639       203.0687 
 206   0.0000       7.478287       203.4945 
 207   0.0000       7.511367       204.3947 
 208   0.0000       7.583893       206.3682 
 209   0.0000       7.599121       206.7826 
 210   0.0000      44.821478      1219.6544 
 211   0.0000      44.846236      1220.3281 
 212   0.0000      44.865376      1220.8489 
 213   0.0000      44.927689      1222.5446 
 214   0.0000      44.962124      1223.4816 

                    ********************************
                    * MULLIKEN POPULATION ANALYSIS *
                    ********************************

-----------------------
MULLIKEN ATOMIC CHARGES
-----------------------
   0 O :   -0.701229
   1 H :    0.338954
   2 H :    0.362428
   3 O :   -0.721145
   4 H :    0.360531
   5 H :    0.367285
   6 O :   -0.725328
   7 H :    0.373568
   8 H :    0.345856
   9 O :   -0.725187
  10 H :    0.338861
  11 H :    0.379887
  12 O :   -0.721128
  13 H :    0.359804
  14 H :    0.366843
Sum of atomic charges:    0.0000000

--------------------------------
MULLIKEN REDUCED ORBITAL CHARGES
--------------------------------
  0 O s       :     3.813922  s :     3.813922
      pz      :     1.716424  p :     4.860234
      px      :     1.350530
      py      :     1.793280
      dz2     :     0.004407  d :     0.025521
      dxz     :     0.004860
      dyz     :     0.005949
      dx2y2   :     0.002507
      dxy     :     0.007797
      f0      :     0.000091  f :     0.001552
      f+1     :     0.000344
      f-1     :     0.000194
      f+2     :     0.000071
      f-2     :     0.000360
      f+3     :     0.000099
      f-3     :     0.000393
  1 H s       :     0.614996  s :     0.614996
      pz      :     0.017205  p :     0.046050
      px      :     0.013611
      py      :     0.015234
  2 H s       :     0.595457  s :     0.595457
      pz      :     0.011269  p :     0.042116
      px      :     0.017832
      py      :     0.013015
  3 O s       :     3.811653  s :     3.811653
      pz      :     1.719935  p :     4.883178
      px      :     1.801391
      py      :     1.361852
      dz2     :     0.004085  d :     0.024801
      dxz     :     0.005796
      dyz     :     0.004403
      dx2y2   :     0.002517
      dxy     :     0.008000
      f0      :     0.000083  f :     0.001514
      f+1     :     0.000186
      f-1     :     0.000331
      f+2     :     0.000070
      f-2     :     0.000349
      f+3     :     0.000395
      f-3     :     0.000099
  4 H s       :     0.594068  s :     0.594068
      pz      :     0.017055  p :     0.045400
      px      :     0.014847
      py      :     0.013499
  5 H s       :     0.591053  s :     0.591053
      pz      :     0.010764  p :     0.041661
      px      :     0.013082
      py      :     0.017815
  6 O s       :     3.813592  s :     3.813592
      pz      :     1.572598  p :     4.884769
      px      :     1.871601
      py      :     1.440570
      dz2     :     0.011305  d :     0.025506
      dxz     :     0.002678
      dyz     :     0.002937
      dx2y2   :     0.003184
      dxy     :     0.005402
      f0      :     0.000164  f :     0.001461
      f+1     :     0.000124
      f-1     :     0.000445
      f+2     :     0.000077
      f-2     :     0.000040
      f+3     :     0.000484
      f-3     :     0.000126
  7 H s       :     0.577321  s :     0.577321
      pz      :     0.024219  p :     0.049111
      px      :     0.013552
      py      :     0.011340
  8 H s       :     0.610364  s :     0.610364
      pz      :     0.010382  p :     0.043780
      px      :     0.015150
      py      :     0.018248
  9 O s       :     3.811933  s :     3.811933
      pz      :     1.578786  p :     4.886489
      px      :     1.871478
      py      :     1.436225
      dz2     :     0.011114  d :     0.025294
      dxz     :     0.002650
      dyz     :     0.002844
      dx2y2   :     0.003165
      dxy     :     0.005521
      f0      :     0.000167  f :     0.001471
      f+1     :     0.000124
      f-1     :     0.000446
      f+2     :     0.000078
      f-2     :     0.000040
      f+3     :     0.000487
      f-3     :     0.000128
 10 H s       :     0.617248  s :     0.617248
      pz      :     0.010386  p :     0.043891
      px      :     0.015310
      py      :     0.018196
 11 H s       :     0.571016  s :     0.571016
      pz      :     0.024266  p :     0.049097
      px      :     0.013480
      py      :     0.011351
 12 O s       :     3.811531  s :     3.811531
      pz      :     1.720838  p :     4.883260
      px      :     1.800849
      py      :     1.361573
      dz2     :     0.004124  d :     0.024821
      dxz     :     0.005790
      dyz     :     0.004437
      dx2y2   :     0.002521
      dxy     :     0.007950
      f0      :     0.000084  f :     0.001516
      f+1     :     0.000186
      f-1     :     0.000331
      f+2     :     0.000070
      f-2     :     0.000350
      f+3     :     0.000395
      f-3     :     0.000099
 13 H s       :     0.594782  s :     0.594782
      pz      :     0.017078  p :     0.045414
      px      :     0.014844
      py      :     0.013492
 14 H s       :     0.591496  s :     0.591496
      pz      :     0.010769  p :     0.041662
      px      :     0.013081
      py      :     0.017812


                     *******************************
                     * LOEWDIN POPULATION ANALYSIS *
                     *******************************

----------------------
LOEWDIN ATOMIC CHARGES
----------------------
   0 O :   -0.338298
   1 H :    0.153683
   2 H :    0.184597
   3 O :   -0.316729
   4 H :    0.162685
   5 H :    0.186233
   6 O :   -0.349965
   7 H :    0.150608
   8 H :    0.167414
   9 O :   -0.349927
  10 H :    0.165371
  11 H :    0.153319
  12 O :   -0.317200
  13 H :    0.162288
  14 H :    0.185924

-------------------------------
LOEWDIN REDUCED ORBITAL CHARGES
-------------------------------
  0 O s       :     3.475790  s :     3.475790
      pz      :     1.704351  p :     4.827553
      px      :     1.351391
      py      :     1.771810
      dz2     :     0.004985  d :     0.032812
      dxz     :     0.007439
      dyz     :     0.006112
      dx2y2   :     0.003881
      dxy     :     0.010395
      f0      :     0.000079  f :     0.002143
      f+1     :     0.000463
      f-1     :     0.000281
      f+2     :     0.000036
      f-2     :     0.000632
      f+3     :     0.000093
      f-3     :     0.000558
  1 H s       :     0.683612  s :     0.683612
      pz      :     0.065987  p :     0.162705
      px      :     0.043767
      py      :     0.052951
  2 H s       :     0.667901  s :     0.667901
      pz      :     0.033227  p :     0.147503
      px      :     0.070838
      py      :     0.043437
  3 O s       :     3.468921  s :     3.468921
      pz      :     1.682984  p :     4.813440
      px      :     1.774776
      py      :     1.355679
      dz2     :     0.005417  d :     0.032265
      dxz     :     0.005807
      dyz     :     0.006849
      dx2y2   :     0.003872
      dxy     :     0.010320
      f0      :     0.000090  f :     0.002104
      f+1     :     0.000272
      f-1     :     0.000450
      f+2     :     0.000035
      f-2     :     0.000608
      f+3     :     0.000556
      f-3     :     0.000093
  4 H s       :     0.673876  s :     0.673876
      pz      :     0.066495  p :     0.163439
      px      :     0.052752
      py      :     0.044193
  5 H s       :     0.665418  s :     0.665418
      pz      :     0.033413  p :     0.148349
      px      :     0.043633
      py      :     0.071303
  6 O s       :     3.472787  s :     3.472787
      pz      :     1.564929  p :     4.843114
      px      :     1.832550
      py      :     1.445635
      dz2     :     0.014647  d :     0.031980
      dxz     :     0.001731
      dyz     :     0.004120
      dx2y2   :     0.004458
      dxy     :     0.007024
      f0      :     0.000351  f :     0.002084
      f+1     :     0.000202
      f-1     :     0.000726
      f+2     :     0.000045
      f-2     :     0.000043
      f+3     :     0.000643
      f-3     :     0.000074
  7 H s       :     0.678568  s :     0.678568
      pz      :     0.091971  p :     0.170824
      px      :     0.043116
      py      :     0.035737
  8 H s       :     0.678968  s :     0.678968
      pz      :     0.030399  p :     0.153618
      px      :     0.049324
      py      :     0.073896
  9 O s       :     3.472592  s :     3.472592
      pz      :     1.568171  p :     4.843528
      px      :     1.831404
      py      :     1.443953
      dz2     :     0.014319  d :     0.031718
      dxz     :     0.001712
      dyz     :     0.003958
      dx2y2   :     0.004500
      dxy     :     0.007228
      f0      :     0.000347  f :     0.002089
      f+1     :     0.000201
      f-1     :     0.000725
      f+2     :     0.000045
      f-2     :     0.000041
      f+3     :     0.000654
      f-3     :     0.000074
 10 H s       :     0.681283  s :     0.681283
      pz      :     0.030519  p :     0.153346
      px      :     0.049380
      py      :     0.073448
 11 H s       :     0.675613  s :     0.675613
      pz      :     0.092494  p :     0.171068
      px      :     0.042959
      py      :     0.035614
 12 O s       :     3.469082  s :     3.469082
      pz      :     1.683378  p :     4.813691
      px      :     1.774847
      py      :     1.355466
      dz2     :     0.005461  d :     0.032320
      dxz     :     0.005805
      dyz     :     0.006884
      dx2y2   :     0.003888
      dxy     :     0.010281
      f0      :     0.000091  f :     0.002108
      f+1     :     0.000272
      f-1     :     0.000451
      f+2     :     0.000035
      f-2     :     0.000609
      f+3     :     0.000556
      f-3     :     0.000093
 13 H s       :     0.674261  s :     0.674261
      pz      :     0.066527  p :     0.163452
      px      :     0.052742
      py      :     0.044183
 14 H s       :     0.665728  s :     0.665728
      pz      :     0.033446  p :     0.148348
      px      :     0.043635
      py      :     0.071267


                      *****************************
                      * MAYER POPULATION ANALYSIS *
                      *****************************

  NA   - Mulliken gross atomic population
  ZA   - Total nuclear charge
  QA   - Mulliken gross atomic charge
  VA   - Mayer's total valence
  BVA  - Mayer's bonded valence
  FA   - Mayer's free valence

  ATOM       NA         ZA         QA         VA         BVA        FA
  0 O      8.7012     8.0000    -0.7012     1.7708     1.7708    -0.0000
  1 H      0.6610     1.0000     0.3390     0.8995     0.8995    -0.0000
  2 H      0.6376     1.0000     0.3624     0.8822     0.8822    -0.0000
  3 O      8.7211     8.0000    -0.7211     1.7664     1.7664     0.0000
  4 H      0.6395     1.0000     0.3605     0.8850     0.8850    -0.0000
  5 H      0.6327     1.0000     0.3673     0.8810     0.8810    -0.0000
  6 O      8.7253     8.0000    -0.7253     1.7521     1.7521     0.0000
  7 H      0.6264     1.0000     0.3736     0.8858     0.8858     0.0000
  8 H      0.6541     1.0000     0.3459     0.8980     0.8980     0.0000
  9 O      8.7252     8.0000    -0.7252     1.7517     1.7517     0.0000
 10 H      0.6611     1.0000     0.3389     0.9025     0.9025     0.0000
 11 H      0.6201     1.0000     0.3799     0.8823     0.8823     0.0000
 12 O      8.7211     8.0000    -0.7211     1.7661     1.7661     0.0000
 13 H      0.6402     1.0000     0.3598     0.8856     0.8856     0.0000
 14 H      0.6332     1.0000     0.3668     0.8814     0.8814    -0.0000

  Mayer bond orders larger than 0.100000
B(  0-O ,  1-H ) :   0.8938 B(  0-O ,  2-H ) :   0.8748 B(  3-O ,  4-H ) :   0.8773 
B(  3-O ,  5-H ) :   0.8682 B(  6-O ,  7-H ) :   0.8608 B(  6-O ,  8-H ) :   0.8858 
B(  9-O , 10-H ) :   0.8912 B(  9-O , 11-H ) :   0.8553 B( 12-O , 13-H ) :   0.8777 
B( 12-O , 14-H ) :   0.8686 

-------
TIMINGS
-------

Total SCF time: 0 days 0 hours 0 min 5 sec 

Total time                  ....       5.532 sec
Sum of individual times     ....       5.367 sec  ( 97.0%)

Fock matrix formation       ....       4.959 sec  ( 89.6%)
Diagonalization             ....       0.121 sec  (  2.2%)
Density matrix formation    ....       0.007 sec  (  0.1%)
Population analysis         ....       0.012 sec  (  0.2%)
Initial guess               ....       0.101 sec  (  1.8%)
Orbital Transformation      ....       0.000 sec  (  0.0%)
Orbital Orthonormalization  ....       0.000 sec  (  0.0%)
DIIS solution               ....       0.042 sec  (  0.8%)
SOSCF solution              ....       0.080 sec  (  1.4%)


           ************************************************************
           *        Program running with 6 parallel MPI-processes     *
           *              working on a common directory               *
           ************************************************************

------------------------------------------------------------------------------
                                ORCA  MP2 
------------------------------------------------------------------------------

Freezing NCore=10 chemical core electrons
MP2 will be done in the AO integral direct mode
The Q1-step will be done using symmetric double matrices
Dimension of the basis                    ...  215
Memory devoted for MP2                    ... 8000 MB   
Memory needed for all in one shot         ...  153 MB
Number of MOs that can be treated together...  209      
MP2 density construction                  ... relaxed
The MP2 gradient is requested => amplitudes will be stored on disk
Total number of MOs              ...   20
Number of MOs treated per batch  ...    4 
Number of batches necessary      ...    1 
OPERATORS   0/  0 PASS   0
-----------------------------------------------
 MP2 CORRELATION ENERGY   :     -1.284641986 Eh
-----------------------------------------------


---------------------
MP2 DENSITY FORMATION
---------------------

Completing the external part of the density      ... done
Storing the unrelaxed density                    ... done

Calculating G(D)                                 ... done
Completing the Lagrangian                        ... done
Solving the Z-vector equations                   ... 

------------------------------------------------------------------------------
                           ORCA CP-SCF CALCULATION
------------------------------------------------------------------------------

Input orbitals are from        ... 12h2o.su.etal.mol1,2,4,5,10-orca.engrad-mp2.def2tzvp.frozencore.gbw
Input Perturbation             ... 12h2o.su.etal.mol1,2,4,5,10-orca.engrad-mp2.def2tzvp.frozencore.pin.tmp
Wavefunction output            ... 12h2o.su.etal.mol1,2,4,5,10-orca.engrad-mp2.def2tzvp.frozencore.pout.tmp
Perturbation mode              ... Real perturbation (singlet)
Solver                         ... POPLE
Max. number of iterations      ... 128
Convergence tolerance          ... 1.000e-08
Integral handling              ... Direct
Number of perturbations        ... 1
Number of operators            ... 1
Orbital ranges used for CP-SCF:
 Operator 0:  Orbitals   0... 24  to  25...214
Variables per vector in CP-SCF ... 4750
Number of vectors sought       ... 1
     CP-SCF ITERATION   0: 
     CP-SCF ITERATION   1:      0.000617595395
     CP-SCF ITERATION   2:      0.000012964805
     CP-SCF ITERATION   3:      0.000000349668
     CP-SCF ITERATION   4:      0.000000026746
     CP-SCF ITERATION   5:      0.000000002780
                                                 ... done
Finalizing the relaxed density                   ... done
Transforming P to the AO basis                   ... done
Storing the relaxed density                      ... done

------------------------------------
ENERGY WEIGHTED DENSITY FINALIZATION
------------------------------------

Gathering the parts of the W-matrix              ...                                                      done
Forming the Z-density                            ... done
Transforming Z to the AO basis                   ... done
Calculating G(Z)                                 ... done
Finalizing the W-matrix                          ...                                                      done
Transforming W to the AO basis and storing       ... done

                *********************************************
                * UNRELAXED MP2 DENSITY POPULATION ANALYSIS *
                *********************************************

------------------------------------------------------------------------------
                           ORCA POPULATION ANALYSIS
------------------------------------------------------------------------------
Input electron density              ... 12h2o.su.etal.mol1,2,4,5,10-orca.engrad-mp2.def2tzvp.frozencore.pmp2ur
BaseName (.gbw .S,...)              ... 12h2o.su.etal.mol1,2,4,5,10-orca.engrad-mp2.def2tzvp.frozencore

                    ********************************
                    * MULLIKEN POPULATION ANALYSIS *
                    ********************************

-----------------------
MULLIKEN ATOMIC CHARGES
-----------------------
   0 O :   -0.696453
   1 H :    0.336815
   2 H :    0.359796
   3 O :   -0.715910
   4 H :    0.358332
   5 H :    0.364426
   6 O :   -0.719835
   7 H :    0.370707
   8 H :    0.343088
   9 O :   -0.719744
  10 H :    0.336117
  11 H :    0.377006
  12 O :   -0.715924
  13 H :    0.357596
  14 H :    0.363983
Sum of atomic charges:    0.0000000

--------------------------------
MULLIKEN REDUCED ORBITAL CHARGES
--------------------------------
  0 O s       :     3.809117  s :     3.809117
      pz      :     1.706019  p :     4.831375
      px      :     1.343185
      py      :     1.782171
      dz2     :     0.009757  d :     0.051872
      dxz     :     0.010095
      dyz     :     0.011222
      dx2y2   :     0.007821
      dxy     :     0.012976
      f0      :     0.000458  f :     0.004089
      f+1     :     0.000703
      f-1     :     0.000557
      f+2     :     0.000436
      f-2     :     0.000721
      f+3     :     0.000466
      f-3     :     0.000750
  1 H s       :     0.615473  s :     0.615473
      pz      :     0.017715  p :     0.047711
      px      :     0.014019
      py      :     0.015978
  2 H s       :     0.596515  s :     0.596515
      pz      :     0.012119  p :     0.043690
      px      :     0.017782
      py      :     0.013788
  3 O s       :     3.806832  s :     3.806832
      pz      :     1.709097  p :     4.853423
      px      :     1.790088
      py      :     1.354238
      dz2     :     0.009593  d :     0.051589
      dxz     :     0.011174
      dyz     :     0.009757
      dx2y2   :     0.007857
      dxy     :     0.013208
      f0      :     0.000454  f :     0.004067
      f+1     :     0.000551
      f-1     :     0.000692
      f+2     :     0.000437
      f-2     :     0.000713
      f+3     :     0.000752
      f-3     :     0.000467
  4 H s       :     0.594701  s :     0.594701
      pz      :     0.017526  p :     0.046967
      px      :     0.015556
      py      :     0.013884
  5 H s       :     0.592363  s :     0.592363
      pz      :     0.011597  p :     0.043211
      px      :     0.013861
      py      :     0.017754
  6 O s       :     3.808767  s :     3.808767
      pz      :     1.562905  p :     4.854910
      px      :     1.859875
      py      :     1.432130
      dz2     :     0.016428  d :     0.052141
      dxz     :     0.008176
      dyz     :     0.008237
      dx2y2   :     0.008561
      dxy     :     0.010739
      f0      :     0.000547  f :     0.004017
      f+1     :     0.000496
      f-1     :     0.000811
      f+2     :     0.000438
      f-2     :     0.000404
      f+3     :     0.000833
      f-3     :     0.000488
  7 H s       :     0.578600  s :     0.578600
      pz      :     0.024332  p :     0.050693
      px      :     0.014416
      py      :     0.011945
  8 H s       :     0.611468  s :     0.611468
      pz      :     0.011239  p :     0.045444
      px      :     0.015931
      py      :     0.018274
  9 O s       :     3.807108  s :     3.807108
      pz      :     1.569070  p :     4.856652
      px      :     1.859762
      py      :     1.427820
      dz2     :     0.016257  d :     0.051958
      dxz     :     0.008159
      dyz     :     0.008148
      dx2y2   :     0.008544
      dxy     :     0.010849
      f0      :     0.000550  f :     0.004026
      f+1     :     0.000496
      f-1     :     0.000811
      f+2     :     0.000439
      f-2     :     0.000404
      f+3     :     0.000836
      f-3     :     0.000489
 10 H s       :     0.618306  s :     0.618306
      pz      :     0.011243  p :     0.045577
      px      :     0.016107
      py      :     0.018227
 11 H s       :     0.572339  s :     0.572339
      pz      :     0.024375  p :     0.050655
      px      :     0.014335
      py      :     0.011945
 12 O s       :     3.806709  s :     3.806709
      pz      :     1.710019  p :     4.853538
      px      :     1.789550
      py      :     1.353969
      dz2     :     0.009632  d :     0.051609
      dxz     :     0.011167
      dyz     :     0.009790
      dx2y2   :     0.007862
      dxy     :     0.013159
      f0      :     0.000455  f :     0.004068
      f+1     :     0.000552
      f-1     :     0.000693
      f+2     :     0.000437
      f-2     :     0.000714
      f+3     :     0.000752
      f-3     :     0.000467
 13 H s       :     0.595420  s :     0.595420
      pz      :     0.017554  p :     0.046984
      px      :     0.015552
      py      :     0.013878
 14 H s       :     0.592803  s :     0.592803
      pz      :     0.011603  p :     0.043214
      px      :     0.013859
      py      :     0.017753


                     *******************************
                     * LOEWDIN POPULATION ANALYSIS *
                     *******************************

----------------------
LOEWDIN ATOMIC CHARGES
----------------------
   0 O :   -0.335494
   1 H :    0.152523
   2 H :    0.182946
   3 O :   -0.313171
   4 H :    0.161542
   5 H :    0.184430
   6 O :   -0.346868
   7 H :    0.148688
   8 H :    0.165638
   9 O :   -0.346823
  10 H :    0.163607
  11 H :    0.151410
  12 O :   -0.313676
  13 H :    0.161135
  14 H :    0.184113

-------------------------------
LOEWDIN REDUCED ORBITAL CHARGES
-------------------------------
  0 O s       :     3.472026  s :     3.472026
      pz      :     1.693942  p :     4.798388
      px      :     1.343530
      py      :     1.760916
      dz2     :     0.010417  d :     0.060208
      dxz     :     0.012891
      dyz     :     0.011672
      dx2y2   :     0.009306
      dxy     :     0.015922
      f0      :     0.000455  f :     0.004872
      f+1     :     0.000869
      f-1     :     0.000662
      f+2     :     0.000408
      f-2     :     0.001037
      f+3     :     0.000473
      f-3     :     0.000967
  1 H s       :     0.681580  s :     0.681580
      pz      :     0.067273  p :     0.165897
      px      :     0.044642
      py      :     0.053982
  2 H s       :     0.666449  s :     0.666449
      pz      :     0.034060  p :     0.150605
      px      :     0.072117
      py      :     0.044428
  3 O s       :     3.465159  s :     3.465159
      pz      :     1.671696  p :     4.783025
      px      :     1.763717
      py      :     1.347612
      dz2     :     0.011022  d :     0.060136
      dxz     :     0.011476
      dyz     :     0.012412
      dx2y2   :     0.009338
      dxy     :     0.015888
      f0      :     0.000472  f :     0.004850
      f+1     :     0.000656
      f-1     :     0.000858
      f+2     :     0.000409
      f-2     :     0.001015
      f+3     :     0.000966
      f-3     :     0.000474
  4 H s       :     0.672010  s :     0.672010
      pz      :     0.067706  p :     0.166448
      px      :     0.053732
      py      :     0.045010
  5 H s       :     0.664140  s :     0.664140
      pz      :     0.034250  p :     0.151430
      px      :     0.044620
      py      :     0.072560
  6 O s       :     3.469037  s :     3.469037
      pz      :     1.555135  p :     4.813249
      px      :     1.821262
      py      :     1.436852
      dz2     :     0.020390  d :     0.059749
      dxz     :     0.007162
      dyz     :     0.009462
      dx2y2   :     0.010057
      dxy     :     0.012678
      f0      :     0.000764  f :     0.004834
      f+1     :     0.000589
      f-1     :     0.001160
      f+2     :     0.000414
      f-2     :     0.000413
      f+3     :     0.001047
      f-3     :     0.000447
  7 H s       :     0.677531  s :     0.677531
      pz      :     0.093370  p :     0.173781
      px      :     0.043913
      py      :     0.036499
  8 H s       :     0.677473  s :     0.677473
      pz      :     0.031229  p :     0.156889
      px      :     0.050293
      py      :     0.075367
  9 O s       :     3.468845  s :     3.468845
      pz      :     1.558370  p :     4.813635
      px      :     1.820090
      py      :     1.435175
      dz2     :     0.020074  d :     0.059505
      dxz     :     0.007149
      dyz     :     0.009304
      dx2y2   :     0.010100
      dxy     :     0.012877
      f0      :     0.000760  f :     0.004838
      f+1     :     0.000589
      f-1     :     0.001159
      f+2     :     0.000414
      f-2     :     0.000412
      f+3     :     0.001058
      f-3     :     0.000447
 10 H s       :     0.679713  s :     0.679713
      pz      :     0.031352  p :     0.156679
      px      :     0.050375
      py      :     0.074952
 11 H s       :     0.674630  s :     0.674630
      pz      :     0.093848  p :     0.173960
      px      :     0.043749
      py      :     0.036363
 12 O s       :     3.465323  s :     3.465323
      pz      :     1.672108  p :     4.783304
      px      :     1.763791
      py      :     1.347405
      dz2     :     0.011067  d :     0.060195
      dxz     :     0.011475
      dyz     :     0.012448
      dx2y2   :     0.009354
      dxy     :     0.015851
      f0      :     0.000474  f :     0.004854
      f+1     :     0.000656
      f-1     :     0.000859
      f+2     :     0.000409
      f-2     :     0.001016
      f+3     :     0.000966
      f-3     :     0.000474
 13 H s       :     0.672395  s :     0.672395
      pz      :     0.067746  p :     0.166470
      px      :     0.053722
      py      :     0.045002
 14 H s       :     0.664452  s :     0.664452
      pz      :     0.034286  p :     0.151435
      px      :     0.044621
      py      :     0.072529


                      *****************************
                      * MAYER POPULATION ANALYSIS *
                      *****************************

  NA   - Mulliken gross atomic population
  ZA   - Total nuclear charge
  QA   - Mulliken gross atomic charge
  VA   - Mayer's total valence
  BVA  - Mayer's bonded valence
  FA   - Mayer's free valence

  ATOM       NA         ZA         QA         VA         BVA        FA
  0 O      8.6965     8.0000    -0.6965     2.0755     1.6887     0.3868
  1 H      0.6632     1.0000     0.3368     0.9054     0.8584     0.0470
  2 H      0.6402     1.0000     0.3598     0.8881     0.8403     0.0478
  3 O      8.7159     8.0000    -0.7159     2.0748     1.6852     0.3895
  4 H      0.6417     1.0000     0.3583     0.8906     0.8451     0.0455
  5 H      0.6356     1.0000     0.3644     0.8872     0.8392     0.0481
  6 O      8.7198     8.0000    -0.7198     2.0607     1.6708     0.3899
  7 H      0.6293     1.0000     0.3707     0.8919     0.8468     0.0451
  8 H      0.6569     1.0000     0.3431     0.9045     0.8554     0.0491
  9 O      8.7197     8.0000    -0.7197     2.0603     1.6705     0.3898
 10 H      0.6639     1.0000     0.3361     0.9091     0.8594     0.0496
 11 H      0.6230     1.0000     0.3770     0.8883     0.8438     0.0446
 12 O      8.7159     8.0000    -0.7159     2.0745     1.6849     0.3896
 13 H      0.6424     1.0000     0.3576     0.8913     0.8457     0.0456
 14 H      0.6360     1.0000     0.3640     0.8876     0.8395     0.0481

  Mayer bond orders larger than 0.100000
B(  0-O ,  1-H ) :   0.8532 B(  0-O ,  2-H ) :   0.8334 B(  3-O ,  4-H ) :   0.8379 
B(  3-O ,  5-H ) :   0.8270 B(  6-O ,  7-H ) :   0.8223 B(  6-O ,  8-H ) :   0.8438 
B(  9-O , 10-H ) :   0.8487 B(  9-O , 11-H ) :   0.8175 B( 12-O , 13-H ) :   0.8383 
B( 12-O , 14-H ) :   0.8274 


                *******************************************
                * RELAXED MP2 DENSITY POPULATION ANALYSIS *
                *******************************************

------------------------------------------------------------------------------
                           ORCA POPULATION ANALYSIS
------------------------------------------------------------------------------
Input electron density              ... 12h2o.su.etal.mol1,2,4,5,10-orca.engrad-mp2.def2tzvp.frozencore.pmp2re
BaseName (.gbw .S,...)              ... 12h2o.su.etal.mol1,2,4,5,10-orca.engrad-mp2.def2tzvp.frozencore

                    ********************************
                    * MULLIKEN POPULATION ANALYSIS *
                    ********************************

-----------------------
MULLIKEN ATOMIC CHARGES
-----------------------
   0 O :   -0.683156
   1 H :    0.330781
   2 H :    0.352624
   3 O :   -0.698638
   4 H :    0.351520
   5 H :    0.356865
   6 O :   -0.701129
   7 H :    0.357387
   8 H :    0.334790
   9 O :   -0.700850
  10 H :    0.328611
  11 H :    0.363010
  12 O :   -0.698926
  13 H :    0.350714
  14 H :    0.356399
Sum of atomic charges:    0.0000000

--------------------------------
MULLIKEN REDUCED ORBITAL CHARGES
--------------------------------
  0 O s       :     3.814130  s :     3.814130
      pz      :     1.699781  p :     4.815455
      px      :     1.339615
      py      :     1.776060
      dz2     :     0.009467  d :     0.049554
      dxz     :     0.009493
      dyz     :     0.010923
      dx2y2   :     0.007571
      dxy     :     0.012101
      f0      :     0.000456  f :     0.004017
      f+1     :     0.000684
      f-1     :     0.000548
      f+2     :     0.000436
      f-2     :     0.000701
      f+3     :     0.000464
      f-3     :     0.000729
  1 H s       :     0.620758  s :     0.620758
      pz      :     0.017841  p :     0.048461
      px      :     0.013967
      py      :     0.016653
  2 H s       :     0.603050  s :     0.603050
      pz      :     0.013018  p :     0.044327
      px      :     0.016794
      py      :     0.014515
  3 O s       :     3.811192  s :     3.811192
      pz      :     1.699556  p :     4.834112
      px      :     1.784066
      py      :     1.350490
      dz2     :     0.009352  d :     0.049340
      dxz     :     0.010891
      dyz     :     0.009164
      dx2y2   :     0.007606
      dxy     :     0.012327
      f0      :     0.000452  f :     0.003995
      f+1     :     0.000543
      f-1     :     0.000672
      f+2     :     0.000437
      f-2     :     0.000692
      f+3     :     0.000732
      f-3     :     0.000465
  4 H s       :     0.600834  s :     0.600834
      pz      :     0.017686  p :     0.047646
      px      :     0.016151
      py      :     0.013808
  5 H s       :     0.599304  s :     0.599304
      pz      :     0.012446  p :     0.043831
      px      :     0.014623
      py      :     0.016762
  6 O s       :     3.810533  s :     3.810533
      pz      :     1.558066  p :     4.836695
      px      :     1.854108
      py      :     1.424522
      dz2     :     0.015323  d :     0.049955
      dxz     :     0.008212
      dyz     :     0.007978
      dx2y2   :     0.008245
      dxy     :     0.010196
      f0      :     0.000535  f :     0.003946
      f+1     :     0.000489
      f-1     :     0.000782
      f+2     :     0.000438
      f-2     :     0.000402
      f+3     :     0.000812
      f-3     :     0.000487
  7 H s       :     0.591326  s :     0.591326
      pz      :     0.023644  p :     0.051287
      px      :     0.015338
      py      :     0.012305
  8 H s       :     0.618969  s :     0.618969
      pz      :     0.012043  p :     0.046241
      px      :     0.016779
      py      :     0.017419
  9 O s       :     3.808913  s :     3.808913
      pz      :     1.563580  p :     4.838216
      px      :     1.854031
      py      :     1.420605
      dz2     :     0.015163  d :     0.049766
      dxz     :     0.008187
      dyz     :     0.007896
      dx2y2   :     0.008231
      dxy     :     0.010289
      f0      :     0.000537  f :     0.003954
      f+1     :     0.000490
      f-1     :     0.000782
      f+2     :     0.000439
      f-2     :     0.000403
      f+3     :     0.000815
      f-3     :     0.000488
 10 H s       :     0.624976  s :     0.624976
      pz      :     0.012054  p :     0.046414
      px      :     0.017002
      py      :     0.017358
 11 H s       :     0.585748  s :     0.585748
      pz      :     0.023687  p :     0.051242
      px      :     0.015249
      py      :     0.012306
 12 O s       :     3.811128  s :     3.811128
      pz      :     1.700650  p :     4.834439
      px      :     1.783537
      py      :     1.350252
      dz2     :     0.009395  d :     0.049363
      dxz     :     0.010884
      dyz     :     0.009195
      dx2y2   :     0.007608
      dxy     :     0.012281
      f0      :     0.000453  f :     0.003996
      f+1     :     0.000543
      f-1     :     0.000673
      f+2     :     0.000437
      f-2     :     0.000693
      f+3     :     0.000732
      f-3     :     0.000465
 13 H s       :     0.601618  s :     0.601618
      pz      :     0.017726  p :     0.047667
      px      :     0.016142
      py      :     0.013798
 14 H s       :     0.599765  s :     0.599765
      pz      :     0.012455  p :     0.043836
      px      :     0.014617
      py      :     0.016764


                     *******************************
                     * LOEWDIN POPULATION ANALYSIS *
                     *******************************

----------------------
LOEWDIN ATOMIC CHARGES
----------------------
   0 O :   -0.338643
   1 H :    0.154387
   2 H :    0.184191
   3 O :   -0.312145
   4 H :    0.163147
   5 H :    0.185337
   6 O :   -0.347670
   7 H :    0.145301
   8 H :    0.166442
   9 O :   -0.347674
  10 H :    0.164702
  11 H :    0.147791
  12 O :   -0.312831
  13 H :    0.162691
  14 H :    0.184972

-------------------------------
LOEWDIN REDUCED ORBITAL CHARGES
-------------------------------
  0 O s       :     3.474204  s :     3.474204
      pz      :     1.693126  p :     4.800728
      px      :     1.348489
      py      :     1.759112
      dz2     :     0.010236  d :     0.058819
      dxz     :     0.012475
      dyz     :     0.011602
      dx2y2   :     0.009078
      dxy     :     0.015427
      f0      :     0.000458  f :     0.004892
      f+1     :     0.000876
      f-1     :     0.000662
      f+2     :     0.000409
      f-2     :     0.001037
      f+3     :     0.000476
      f-3     :     0.000974
  1 H s       :     0.679580  s :     0.679580
      pz      :     0.067455  p :     0.166033
      px      :     0.043893
      py      :     0.054684
  2 H s       :     0.665172  s :     0.665172
      pz      :     0.034824  p :     0.150636
      px      :     0.070626
      py      :     0.045186
  3 O s       :     3.467199  s :     3.467199
      pz      :     1.666686  p :     4.781150
      px      :     1.761874
      py      :     1.352590
      dz2     :     0.010937  d :     0.058926
      dxz     :     0.011449
      dyz     :     0.012043
      dx2y2   :     0.009104
      dxy     :     0.015394
      f0      :     0.000476  f :     0.004870
      f+1     :     0.000656
      f-1     :     0.000865
      f+2     :     0.000410
      f-2     :     0.001015
      f+3     :     0.000972
      f-3     :     0.000476
  4 H s       :     0.670537  s :     0.670537
      pz      :     0.067785  p :     0.166316
      px      :     0.054335
      py      :     0.044196
  5 H s       :     0.663181  s :     0.663181
      pz      :     0.034952  p :     0.151481
      px      :     0.045392
      py      :     0.071138
  6 O s       :     3.470547  s :     3.470547
      pz      :     1.555716  p :     4.813714
      px      :     1.818369
      py      :     1.439630
      dz2     :     0.019857  d :     0.058557
      dxz     :     0.007229
      dyz     :     0.009238
      dx2y2   :     0.009841
      dxy     :     0.012392
      f0      :     0.000764  f :     0.004853
      f+1     :     0.000589
      f-1     :     0.001170
      f+2     :     0.000416
      f-2     :     0.000411
      f+3     :     0.001054
      f-3     :     0.000449
  7 H s       :     0.680509  s :     0.680509
      pz      :     0.092849  p :     0.174190
      px      :     0.044836
      py      :     0.036505
  8 H s       :     0.676311  s :     0.676311
      pz      :     0.031831  p :     0.157247
      px      :     0.051062
      py      :     0.074353
  9 O s       :     3.470282  s :     3.470282
      pz      :     1.558912  p :     4.814223
      px      :     1.817145
      py      :     1.438167
      dz2     :     0.019551  d :     0.058310
      dxz     :     0.007209
      dyz     :     0.009088
      dx2y2   :     0.009889
      dxy     :     0.012574
      f0      :     0.000761  f :     0.004858
      f+1     :     0.000588
      f-1     :     0.001169
      f+2     :     0.000416
      f-2     :     0.000410
      f+3     :     0.001065
      f-3     :     0.000449
 10 H s       :     0.678194  s :     0.678194
      pz      :     0.031929  p :     0.157103
      px      :     0.051206
      py      :     0.073968
 11 H s       :     0.677901  s :     0.677901
      pz      :     0.093269  p :     0.174308
      px      :     0.044677
      py      :     0.036362
 12 O s       :     3.467418  s :     3.467418
      pz      :     1.667171  p :     4.781549
      px      :     1.761983
      py      :     1.352395
      dz2     :     0.010986  d :     0.058990
      dxz     :     0.011449
      dyz     :     0.012079
      dx2y2   :     0.009117
      dxy     :     0.015359
      f0      :     0.000477  f :     0.004874
      f+1     :     0.000656
      f-1     :     0.000866
      f+2     :     0.000410
      f-2     :     0.001016
      f+3     :     0.000972
      f-3     :     0.000477
 13 H s       :     0.670952  s :     0.670952
      pz      :     0.067853  p :     0.166357
      px      :     0.054319
      py      :     0.044185
 14 H s       :     0.663529  s :     0.663529
      pz      :     0.034996  p :     0.151499
      px      :     0.045387
      py      :     0.071116


                      *****************************
                      * MAYER POPULATION ANALYSIS *
                      *****************************

  NA   - Mulliken gross atomic population
  ZA   - Total nuclear charge
  QA   - Mulliken gross atomic charge
  VA   - Mayer's total valence
  BVA  - Mayer's bonded valence
  FA   - Mayer's free valence

  ATOM       NA         ZA         QA         VA         BVA        FA
  0 O      8.6832     8.0000    -0.6832     2.0806     1.6986     0.3820
  1 H      0.6692     1.0000     0.3308     0.9095     0.8624     0.0470
  2 H      0.6474     1.0000     0.3526     0.8942     0.8463     0.0478
  3 O      8.6986     8.0000    -0.6986     2.0959     1.7119     0.3839
  4 H      0.6485     1.0000     0.3515     0.8957     0.8502     0.0455
  5 H      0.6431     1.0000     0.3569     0.8949     0.8469     0.0479
  6 O      8.7011     8.0000    -0.7011     2.0740     1.6895     0.3845
  7 H      0.6426     1.0000     0.3574     0.9102     0.8653     0.0449
  8 H      0.6652     1.0000     0.3348     0.9127     0.8638     0.0489
  9 O      8.7008     8.0000    -0.7008     2.0741     1.6896     0.3845
 10 H      0.6714     1.0000     0.3286     0.9164     0.8669     0.0495
 11 H      0.6370     1.0000     0.3630     0.9072     0.8629     0.0443
 12 O      8.6989     8.0000    -0.6989     2.0955     1.7115     0.3840
 13 H      0.6493     1.0000     0.3507     0.8964     0.8508     0.0456
 14 H      0.6436     1.0000     0.3564     0.8953     0.8473     0.0480

  Mayer bond orders larger than 0.100000
B(  0-O ,  1-H ) :   0.8570 B(  0-O ,  2-H ) :   0.8378 B(  3-O ,  4-H ) :   0.8417 
B(  3-O ,  5-H ) :   0.8305 B(  6-O ,  7-H ) :   0.8276 B(  6-O ,  8-H ) :   0.8468 
B(  9-O , 10-H ) :   0.8517 B(  9-O , 11-H ) :   0.8229 B( 12-O , 13-H ) :   0.8421 
B( 12-O , 14-H ) :   0.8308 


----------------------------------
MP2 DERIVATIVE INTEGRAL GENERATION
----------------------------------


Input Wavefunction Amplitudes       ... 12h2o.su.etal.mol1,2,4,5,10-orca.engrad-mp2.def2tzvp.frozencore.mp2tsaa.tmp
Input Correlated Electron Density   ... 12h2o.su.etal.mol1,2,4,5,10-orca.engrad-mp2.def2tzvp.frozencore.pmp2re
Input Energy Weighted Density       ... 12h2o.su.etal.mol1,2,4,5,10-orca.engrad-mp2.def2tzvp.frozencore.wmp2.tmp
Input SCF Electron Density          ... 12h2o.su.etal.mol1,2,4,5,10-orca.engrad-mp2.def2tzvp.frozencore.scfp

One-Electron Terms    ...
                        ... One-Electron Terms done
Prescreening matrices              ... done

Batch handling in the gradient evaluation:
Memory available                      ... 8000.0 MB
Memory per occupied orbital in Q2     ...    7.1 MB
Memory per occupied orbital in Q3     ...    0.1 MB
Total memory requirement per |i>      ...    7.1 MB
Max. Number of orbitals possible      ...   1121
Number of orbitals treated per batch  ...     20
Number of batches to be done          ...      1
Batch   0: i=    5 ...    24

---------------------------------------
MP2 TOTAL ENERGY:     -381.579233140 Eh
---------------------------------------

The final MP2 gradient
  0:  -0.02560892   0.00794740  -0.00034164
  1:  -0.00283905   0.00176266  -0.00095362
  2:   0.02869663  -0.00970662   0.00304384
  3:  -0.00873483  -0.02610144   0.00112382
  4:  -0.00199756  -0.00148788   0.00245386
  5:   0.00994933   0.02692411   0.00009444
  6:   0.00834132   0.01479073   0.00401765
  7:  -0.00321676   0.00423479  -0.00468349
  8:  -0.00775351  -0.01703651  -0.00429279
  9:  -0.01044432  -0.01505277   0.00103165
 10:   0.00935619   0.01712226  -0.00174953
 11:   0.00356846  -0.00407251  -0.00386670
 12:   0.00818256   0.02627040   0.00202781
 13:   0.00210984   0.00151063   0.00234451
 14:  -0.00960939  -0.02710527  -0.00024981

-----------------------------------
NORM OF THE MP2 GRADIENT:  0.079636
-----------------------------------

-------------------------   --------------------
FINAL SINGLE POINT ENERGY      -381.579233139517
-------------------------   --------------------


                            ***************************************
                            *     ORCA property calculations      *
                            ***************************************

                                    ---------------------
                                    Active property flags
                                    ---------------------
   (+) Dipole Moment


------------------------------------------------------------------------------
                       ORCA ELECTRIC PROPERTIES CALCULATION
------------------------------------------------------------------------------

Dipole Moment Calculation                       ... on
Quadrupole Moment Calculation                   ... off
Polarizability Calculation                      ... off
GBWName                                         ... 12h2o.su.etal.mol1,2,4,5,10-orca.engrad-mp2.def2tzvp.frozencore.gbw
Electron density file                           ... 12h2o.su.etal.mol1,2,4,5,10-orca.engrad-mp2.def2tzvp.frozencore.scfp
The origin for moment calculation is the CENTER OF MASS  = (-0.670361, -0.366253 -1.061842)

-------------
DIPOLE MOMENT
-------------
                                X             Y             Z
Electronic contribution:     -0.04143       0.07951      -0.02355
Nuclear contribution   :      0.30898      -0.67915      -2.18115
                        -----------------------------------------
Total Dipole Moment    :      0.26755      -0.59963      -2.20470
                        -----------------------------------------
Magnitude (a.u.)       :      2.30040
Magnitude (Debye)      :      5.84715



--------------------
Rotational spectrum 
--------------------
 
Rotational constants in cm-1:     0.054774     0.036379     0.023184 
Rotational constants in MHz :  1642.070337  1090.615474   695.044427 

 Dipole components along the rotational axes: 
x,y,z [a.u.] :    -2.076958    -0.671981     0.725614 
x,y,z [Debye]:    -5.279209    -1.708041     1.844363 

 

                         *** MP2 UNRELAXED DENSITY ***

------------------------------------------------------------------------------
                       ORCA ELECTRIC PROPERTIES CALCULATION
------------------------------------------------------------------------------

Dipole Moment Calculation                       ... on
Quadrupole Moment Calculation                   ... off
Polarizability Calculation                      ... off
GBWName                                         ... 12h2o.su.etal.mol1,2,4,5,10-orca.engrad-mp2.def2tzvp.frozencore.gbw
Electron density file                           ... 12h2o.su.etal.mol1,2,4,5,10-orca.engrad-mp2.def2tzvp.frozencore.pmp2ur
The origin for moment calculation is the CENTER OF MASS  = (-0.670361, -0.366253 -1.061842)

-------------
DIPOLE MOMENT
-------------
                                X             Y             Z
Electronic contribution:     -0.04520       0.08622      -0.00418
Nuclear contribution   :      0.30898      -0.67915      -2.18115
                        -----------------------------------------
Total Dipole Moment    :      0.26378      -0.59293      -2.18533
                        -----------------------------------------
Magnitude (a.u.)       :      2.27966
Magnitude (Debye)      :      5.79442



--------------------
Rotational spectrum 
--------------------
 
Rotational constants in cm-1:     0.054774     0.036379     0.023184 
Rotational constants in MHz :  1642.070337  1090.615474   695.044427 

 Dipole components along the rotational axes: 
x,y,z [a.u.] :    -2.058557    -0.664139     0.719786 
x,y,z [Debye]:    -5.232436    -1.688106     1.829549 

 

                           *** MP2 RELAXED DENSITY ***

------------------------------------------------------------------------------
                       ORCA ELECTRIC PROPERTIES CALCULATION
------------------------------------------------------------------------------

Dipole Moment Calculation                       ... on
Quadrupole Moment Calculation                   ... off
Polarizability Calculation                      ... off
GBWName                                         ... 12h2o.su.etal.mol1,2,4,5,10-orca.engrad-mp2.def2tzvp.frozencore.gbw
Electron density file                           ... 12h2o.su.etal.mol1,2,4,5,10-orca.engrad-mp2.def2tzvp.frozencore.pmp2re
The origin for moment calculation is the CENTER OF MASS  = (-0.670361, -0.366253 -1.061842)

-------------
DIPOLE MOMENT
-------------
                                X             Y             Z
Electronic contribution:     -0.04992       0.09419       0.01200
Nuclear contribution   :      0.30898      -0.67915      -2.18115
                        -----------------------------------------
Total Dipole Moment    :      0.25906      -0.58495      -2.16915
                        -----------------------------------------
Magnitude (a.u.)       :      2.26153
Magnitude (Debye)      :      5.74834



--------------------
Rotational spectrum 
--------------------
 
Rotational constants in cm-1:     0.054774     0.036379     0.023184 
Rotational constants in MHz :  1642.070337  1090.615474   695.044427 

 Dipole components along the rotational axes: 
x,y,z [a.u.] :    -2.043117    -0.654752     0.715172 
x,y,z [Debye]:    -5.193192    -1.664248     1.817824 

 

Timings for individual modules:

Sum of individual times         ...       26.014 sec (=   0.434 min)
GTO integral calculation        ...        1.179 sec (=   0.020 min)   4.5 %
SCF iterations                  ...        6.183 sec (=   0.103 min)  23.8 %
MP2 module                      ...       18.652 sec (=   0.311 min)  71.7 %
                             ****ORCA TERMINATED NORMALLY****
TOTAL RUN TIME: 0 days 0 hours 0 minutes 29 seconds 690 msec
