
                                 *****************
                                 * O   R   C   A *
                                 *****************

           --- An Ab Initio, DFT and Semiempirical electronic structure package ---

                  #######################################################
                  #                        -***-                        #
                  #          Department of theory and spectroscopy      #
                  #               Directorship: Frank Neese             #
                  #        Max Planck Institute fuer Kohlenforschung    #
                  #                Kaiser Wilhelm Platz 1               #
                  #                 D-45470 Muelheim/Ruhr               #
                  #                      Germany                        #
                  #                                                     #
                  #                  All rights reserved                #
                  #                        -***-                        #
                  #######################################################


                         Program Version 4.2.0 -  RELEASE  -


 With contributions from (in alphabetic order):
   Daniel Aravena         : Magnetic Suceptibility
   Michael Atanasov       : Ab Initio Ligand Field Theory (pilot matlab implementation)
   Alexander A. Auer      : GIAO ZORA, VPT2
   Ute Becker             : Parallelization
   Giovanni Bistoni       : ED, misc. LED, open-shell LED, HFLED
   Martin Brehm           : Molecular dynamics
   Dmytro Bykov           : SCF Hessian
   Vijay G. Chilkuri      : MRCI spin determinant printing, contributions to CSF-ICE
   Dipayan Datta          : RHF DLPNO-CCSD density
   Achintya Kumar Dutta   : EOM-CC, STEOM-CC
   Dmitry Ganyushin       : Spin-Orbit,Spin-Spin,Magnetic field MRCI
   Miquel Garcia          : C-PCM Hessian, Gaussian charge scheme
   Yang Guo               : DLPNO-NEVPT2, CIM, IAO-localization
   Andreas Hansen         : Spin unrestricted coupled pair/coupled cluster methods
   Benjamin Helmich-Paris : CASSCF linear response (MC-RPA)
   Lee Huntington         : MR-EOM, pCC
   Robert Izsak           : Overlap fitted RIJCOSX, COSX-SCS-MP3, EOM
   Christian Kollmar      : KDIIS, OOCD, Brueckner-CCSD(T), CCSD density
   Simone Kossmann        : Meta GGA functionals, TD-DFT gradient, OOMP2, MP2 Hessian
   Martin Krupicka        : AUTO-CI
   Lucas Lang             : DCDCAS
   Dagmar Lenk            : GEPOL surface, SMD
   Dimitrios Liakos       : Extrapolation schemes; Compound Job, initial MDCI parallelization
   Dimitrios Manganas     : Further ROCIS development; embedding schemes
   Dimitrios Pantazis     : SARC Basis sets
   Taras Petrenko         : DFT Hessian,TD-DFT gradient, ASA, ECA, R-Raman, ABS, FL, XAS/XES, NRVS
   Peter Pinski           : DLPNO-MP2, DLPNO-MP2 Gradient
   Christoph Reimann      : Effective Core Potentials
   Marius Retegan         : Local ZFS, SOC
   Christoph Riplinger    : Optimizer, TS searches, QM/MM, DLPNO-CCSD(T), (RO)-DLPNO pert. Triples
   Tobias Risthaus        : Range-separated hybrids, TD-DFT gradient, RPA, STAB
   Michael Roemelt        : Original ROCIS implementation
   Masaaki Saitow         : Open-shell DLPNO-CCSD energy and density
   Barbara Sandhoefer     : DKH picture change effects
   Avijit Sen             : IP-ROCIS
   Kantharuban Sivalingam : CASSCF convergence, NEVPT2, FIC-MRCI
   Bernardo de Souza      : ESD, SOC TD-DFT
   Georgi Stoychev        : AutoAux, RI-MP2 NMR
   Willem Van den Heuvel  : Paramagnetic NMR
   Boris Wezisla          : Elementary symmetry handling
   Frank Wennmohs         : Technical directorship


 We gratefully acknowledge several colleagues who have allowed us to
 interface, adapt or use parts of their codes:
   Stefan Grimme, W. Hujo, H. Kruse,             : VdW corrections, initial TS optimization,
                  C. Bannwarth                     DFT functionals, gCP, sTDA/sTD-DF
   Ed Valeev, F. Pavosevic, A. Kumar             : LibInt (2-el integral package), F12 methods
   Garnet Chan, S. Sharma, J. Yang, R. Olivares  : DMRG
   Ulf Ekstrom                                   : XCFun DFT Library
   Mihaly Kallay                                 : mrcc  (arbitrary order and MRCC methods)
   Andreas Klamt, Michael Diedenhofen            : otool_cosmo (COSMO solvation model)
   Jiri Pittner, Ondrej Demel                    : Mk-CCSD
   Frank Weinhold                                : gennbo (NPA and NBO analysis)
   Christopher J. Cramer and Donald G. Truhlar   : smd solvation model
   Lars Goerigk                                  : TD-DFT with DH, B97 family of functionals
   V. Asgeirsson, H. Jonsson                     : NEB implementation
   FAccTs GmbH                                   : IRC, NEB, NEB-TS, Multilevel, MM, QM/MM, CI optimization
   S Lehtola, MJT Oliveira, MAL Marques          : LibXC Library


 Your calculation uses the libint2 library for the computation of 2-el integrals
 For citations please refer to: http://libint.valeyev.net

 Your ORCA version has been built with support for libXC version: 4.2.3
 For citations please refer to: https://tddft.org/programs/libxc/

 This ORCA versions uses:
   CBLAS   interface :  Fast vector & matrix operations
   LAPACKE interface :  Fast linear algebra routines
   SCALAPACK package :  Parallel linear algebra routines


----- Orbital basis set information -----
Your calculation utilizes the basis: def2-TZVP
   F. Weigend and R. Ahlrichs, Phys. Chem. Chem. Phys. 7, 3297 (2005).

================================================================================
                                        WARNINGS
                       Please study these warnings very carefully!
================================================================================


WARNING: The frozen-core approximation for MP2-gradient calculations is turned on by default.

INFO   : the flag for use of LIBINT has been found!

================================================================================
                                       INPUT FILE
================================================================================
NAME = 12h2o.su.etal.mol1,2,3,4,8,9,10,11-orca.engrad-mp2.def2tzvp.frozencore.inp
|  1> # 12h2o.su.etal.mol1,2,3,4,8,9,10,11
|  2> ! MP2 def2-TZVP EnGrad TightSCF
|  3> 
|  4> %pal
|  5>     nprocs 6
|  6> end
|  7> 
|  8> %maxcore 8000
|  9> 
| 10> %scf
| 11>     ConvForced true
| 12> end
| 13> 
| 14> *xyz 0 1
| 15> O  -1.794470000  -0.923410000   2.768350000
| 16> H  -2.338250000  -1.359750000   3.430940000
| 17> H  -0.879480000  -1.303000000   2.865760000
| 18> O   0.923410000  -1.794470000  -2.768350000
| 19> H   1.359750000  -2.338250000  -3.430940000
| 20> H   1.303000000  -0.879480000  -2.865760000
| 21> O  -1.752130000  -0.741530000  -2.896280000
| 22> H  -2.036450000  -0.920500000  -1.984040000
| 23> H  -0.921210000  -1.242140000  -2.984230000
| 24> O  -0.885520000   1.737840000   0.052730000
| 25> H  -1.032320000   2.090180000  -0.841890000
| 26> H  -1.284090000   0.839590000   0.017130000
| 27> O   1.752130000   0.741530000  -2.896280000
| 28> H   2.036450000   0.920500000  -1.984040000
| 29> H   0.921210000   1.242140000  -2.984230000
| 30> O   0.741530000  -1.752130000   2.896280000
| 31> H   0.920500000  -2.036450000   1.984040000
| 32> H   1.242140000  -0.921210000   2.984230000
| 33> O  -0.923410000   1.794470000  -2.768350000
| 34> H  -1.359750000   2.338250000  -3.430940000
| 35> H  -1.303000000   0.879480000  -2.865760000
| 36> O  -0.741530000   1.752130000   2.896280000
| 37> H  -0.920500000   2.036450000   1.984040000
| 38> H  -1.242140000   0.921210000   2.984230000
| 39> *
| 40> 
| 41>                          ****END OF INPUT****
================================================================================

                     *******************************
                     * Energy+Gradient Calculation *
                     *******************************

---------------------------------
CARTESIAN COORDINATES (ANGSTROEM)
---------------------------------
  O     -1.794470   -0.923410    2.768350
  H     -2.338250   -1.359750    3.430940
  H     -0.879480   -1.303000    2.865760
  O      0.923410   -1.794470   -2.768350
  H      1.359750   -2.338250   -3.430940
  H      1.303000   -0.879480   -2.865760
  O     -1.752130   -0.741530   -2.896280
  H     -2.036450   -0.920500   -1.984040
  H     -0.921210   -1.242140   -2.984230
  O     -0.885520    1.737840    0.052730
  H     -1.032320    2.090180   -0.841890
  H     -1.284090    0.839590    0.017130
  O      1.752130    0.741530   -2.896280
  H      2.036450    0.920500   -1.984040
  H      0.921210    1.242140   -2.984230
  O      0.741530   -1.752130    2.896280
  H      0.920500   -2.036450    1.984040
  H      1.242140   -0.921210    2.984230
  O     -0.923410    1.794470   -2.768350
  H     -1.359750    2.338250   -3.430940
  H     -1.303000    0.879480   -2.865760
  O     -0.741530    1.752130    2.896280
  H     -0.920500    2.036450    1.984040
  H     -1.242140    0.921210    2.984230

----------------------------
CARTESIAN COORDINATES (A.U.)
----------------------------
  NO LB      ZA    FRAG     MASS         X           Y           Z
   0 O     8.0000    0    15.999   -3.391057   -1.744992    5.231423
   1 H     1.0000    0     1.008   -4.418652   -2.569555    6.483537
   2 H     1.0000    0     1.008   -1.661976   -2.462313    5.415502
   3 O     8.0000    0    15.999    1.744992   -3.391057   -5.231423
   4 H     1.0000    0     1.008    2.569555   -4.418652   -6.483537
   5 H     1.0000    0     1.008    2.462313   -1.661976   -5.415502
   6 O     8.0000    0    15.999   -3.311046   -1.401289   -5.473176
   7 H     1.0000    0     1.008   -3.848333   -1.739493   -3.749292
   8 H     1.0000    0     1.008   -1.740835   -2.347304   -5.639377
   9 O     8.0000    0    15.999   -1.673390    3.284042    0.099645
  10 H     1.0000    0     1.008   -1.950802    3.949868   -1.590942
  11 H     1.0000    0     1.008   -2.426578    1.586595    0.032371
  12 O     8.0000    0    15.999    3.311046    1.401289   -5.473176
  13 H     1.0000    0     1.008    3.848333    1.739493   -3.749292
  14 H     1.0000    0     1.008    1.740835    2.347304   -5.639377
  15 O     8.0000    0    15.999    1.401289   -3.311046    5.473176
  16 H     1.0000    0     1.008    1.739493   -3.848333    3.749292
  17 H     1.0000    0     1.008    2.347304   -1.740835    5.639377
  18 O     8.0000    0    15.999   -1.744992    3.391057   -5.231423
  19 H     1.0000    0     1.008   -2.569555    4.418652   -6.483537
  20 H     1.0000    0     1.008   -2.462313    1.661976   -5.415502
  21 O     8.0000    0    15.999   -1.401289    3.311046    5.473176
  22 H     1.0000    0     1.008   -1.739493    3.848333    3.749292
  23 H     1.0000    0     1.008   -2.347304    1.740835    5.639377

--------------------------------
INTERNAL COORDINATES (ANGSTROEM)
--------------------------------
 O      0   0   0     0.000000000000     0.00000000     0.00000000
 H      1   0   0     0.961828878803     0.00000000     0.00000000
 H      1   2   0     0.995381322057   106.21731035     0.00000000
 O      3   1   2     5.935920367146   102.58474291   140.89009172
 H      4   3   1     0.961828878803   146.97742434   224.01286022
 H      4   3   1     0.995381322057    97.62005672    87.72090689
 O      4   3   1     2.878117964938    74.30903121   359.04191204
 H      7   4   3     0.972136791249    99.37069922   345.64431536
 H      7   4   3     0.974050112161    12.30570018   233.12878636
 O      8   7   4     3.541164138161   107.84672602    83.70571148
 H     10   8   7     0.972645187106    72.17296994    29.09453504
 H     10   8   7     0.983350632989    33.04029707   190.88793319
 O      6   4   3     1.682356278379   171.61043709   321.17145860
 H     13   6   4     0.972136791249   103.79460456    70.64587838
 H     13   6   4     0.974050112161   105.61118924   321.69395179
 O      3   1   2     1.682356278379   171.61043709   195.73896161
 H     16   3   1     0.972136791249   103.79460456   289.35412162
 H     16   3   1     0.974050112161   105.61118924    38.30604821
 O     15  13   6     1.937600461318   161.54375213    39.05245435
 H     19  15  13     0.961828878803   121.08403650   202.75419110
 H     19  15  13     0.995381322057    95.17003195   315.21089530
 O     10   8   7     2.847229166523   126.48630953   195.00328214
 H     22  10   8     0.972136791249    19.08819947   226.21746260
 H     22  10   8     0.974050112161    93.43428486   350.31374249

---------------------------
INTERNAL COORDINATES (A.U.)
---------------------------
 O      0   0   0     0.000000000000     0.00000000     0.00000000
 H      1   0   0     1.817593168635     0.00000000     0.00000000
 H      1   2   0     1.880998097508   106.21731035     0.00000000
 O      3   1   2    11.217263846671   102.58474291   140.89009172
 H      4   3   1     1.817593168635   146.97742434   224.01286022
 H      4   3   1     1.880998097508    97.62005672    87.72090689
 O      4   3   1     5.438854734852    74.30903121   359.04191204
 H      7   4   3     1.837072300170    99.37069922   345.64431536
 H      7   4   3     1.840687952699    12.30570018   233.12878636
 O      8   7   4     6.691830416388   107.84672602    83.70571148
 H     10   8   7     1.838033029106    72.17296994    29.09453504
 H     10   8   7     1.858263389967    33.04029707   190.88793319
 O      6   4   3     3.179192625819   171.61043709   321.17145860
 H     13   6   4     1.837072300170   103.79460456    70.64587838
 H     13   6   4     1.840687952699   105.61118924   321.69395179
 O      3   1   2     3.179192625819   171.61043709   195.73896161
 H     16   3   1     1.837072300170   103.79460456   289.35412162
 H     16   3   1     1.840687952699   105.61118924    38.30604821
 O     15  13   6     3.661534228851   161.54375213    39.05245435
 H     19  15  13     1.817593168635   121.08403650   202.75419110
 H     19  15  13     1.880998097508    95.17003195   315.21089530
 O     10   8   7     5.380483365242   126.48630953   195.00328214
 H     22  10   8     1.837072300170    19.08819947   226.21746260
 H     22  10   8     1.840687952699    93.43428486   350.31374249

---------------------
BASIS SET INFORMATION
---------------------
There are 2 groups of distinct atoms

 Group   1 Type O   : 11s6p2d1f contracted to 5s3p2d1f pattern {62111/411/11/1}
 Group   2 Type H   : 5s1p contracted to 3s1p pattern {311/1}

Atom   0O    basis set group =>   1
Atom   1H    basis set group =>   2
Atom   2H    basis set group =>   2
Atom   3O    basis set group =>   1
Atom   4H    basis set group =>   2
Atom   5H    basis set group =>   2
Atom   6O    basis set group =>   1
Atom   7H    basis set group =>   2
Atom   8H    basis set group =>   2
Atom   9O    basis set group =>   1
Atom  10H    basis set group =>   2
Atom  11H    basis set group =>   2
Atom  12O    basis set group =>   1
Atom  13H    basis set group =>   2
Atom  14H    basis set group =>   2
Atom  15O    basis set group =>   1
Atom  16H    basis set group =>   2
Atom  17H    basis set group =>   2
Atom  18O    basis set group =>   1
Atom  19H    basis set group =>   2
Atom  20H    basis set group =>   2
Atom  21O    basis set group =>   1
Atom  22H    basis set group =>   2
Atom  23H    basis set group =>   2


           ************************************************************
           *        Program running with 6 parallel MPI-processes     *
           *              working on a common directory               *
           ************************************************************
------------------------------------------------------------------------------
                           ORCA GTO INTEGRAL CALCULATION
------------------------------------------------------------------------------

                         BASIS SET STATISTICS AND STARTUP INFO

 # of primitive gaussian shells          ...  256
 # of primitive gaussian functions       ...  496
 # of contracted shells                  ...  152
 # of contracted basis functions         ...  344
 Highest angular momentum                ...    3
 Maximum contraction depth               ...    6
 Integral package used                   ... LIBINT
 Integral threshhold            Thresh   ...  2.500e-11
 Primitive cut-off              TCut     ...  2.500e-12


------------------------------ INTEGRAL EVALUATION ----------------------------


 * One electron integrals 
 Pre-screening matrix                    ... done
 Shell pair data                         ... done (   0.002 sec)



           ************************************************************
           *        Program running with 6 parallel MPI-processes     *
           *              working on a common directory               *
           ************************************************************
-------------------------------------------------------------------------------
                                 ORCA SCF
-------------------------------------------------------------------------------

------------
SCF SETTINGS
------------
Hamiltonian:
 Ab initio Hamiltonian  Method          .... Hartree-Fock(GTOs)


General Settings:
 Integral files         IntName         .... 12h2o.su.etal.mol1,2,3,4,8,9,10,11-orca.engrad-mp2.def2tzvp.frozencore
 Hartree-Fock type      HFTyp           .... RHF
 Total Charge           Charge          ....    0
 Multiplicity           Mult            ....    1
 Number of Electrons    NEL             ....   80
 Basis Dimension        Dim             ....  344
 Nuclear Repulsion      ENuc            ....    431.1948904503 Eh

Convergence Acceleration:
 DIIS                   CNVDIIS         .... on
   Start iteration      DIISMaxIt       ....    12
   Startup error        DIISStart       ....  0.200000
   # of expansion vecs  DIISMaxEq       ....     5
   Bias factor          DIISBfac        ....   1.050
   Max. coefficient     DIISMaxC        ....  10.000
 Newton-Raphson         CNVNR           .... off
 SOSCF                  CNVSOSCF        .... on
   Start iteration      SOSCFMaxIt      ....   150
   Startup grad/error   SOSCFStart      ....  0.003300
 Level Shifting         CNVShift        .... on
   Level shift para.    LevelShift      ....    0.2500
   Turn off err/grad.   ShiftErr        ....    0.0010
 Zerner damping         CNVZerner       .... off
 Static damping         CNVDamp         .... on
   Fraction old density DampFac         ....    0.7000
   Max. Damping (<1)    DampMax         ....    0.9800
   Min. Damping (>=0)   DampMin         ....    0.0000
   Turn off err/grad.   DampErr         ....    0.1000
 Fernandez-Rico         CNVRico         .... off

SCF Procedure:
 Maximum # iterations   MaxIter         ....   125
 SCF integral mode      SCFMode         .... Direct
   Integral package                     .... LIBINT
 Reset frequency        DirectResetFreq ....    20
 Integral Threshold     Thresh          ....  2.500e-11 Eh
 Primitive CutOff       TCut            ....  2.500e-12 Eh

Convergence Tolerance:
 Convergence Check Mode ConvCheckMode   .... Total+1el-Energy
 Convergence forced     ConvForced      .... 1
 Energy Change          TolE            ....  1.000e-08 Eh
 1-El. energy change                    ....  1.000e-05 Eh
 Orbital Gradient       TolG            ....  1.000e-05
 Orbital Rotation angle TolX            ....  1.000e-05
 DIIS Error             TolErr          ....  5.000e-07


Diagonalization of the overlap matrix:
Smallest eigenvalue                        ... 3.697e-03
Time for diagonalization                   ...    0.016 sec
Threshold for overlap eigenvalues          ... 1.000e-08
Number of eigenvalues below threshold      ... 0
Time for construction of square roots      ...    0.008 sec
Total time needed                          ...    0.024 sec

-------------------
DFT GRID GENERATION
-------------------

General Integration Accuracy     IntAcc      ...  4.340
Radial Grid Type                 RadialGrid  ... Gauss-Chebyshev
Angular Grid (max. acc.)         AngularGrid ... Lebedev-110
Angular grid pruning method      GridPruning ... 3 (G Style)
Weight generation scheme         WeightScheme... Becke
Basis function cutoff            BFCut       ...    1.0000e-11
Integration weight cutoff        WCut        ...    1.0000e-14
Grids for H and He will be reduced by one unit

# of grid points (after initial pruning)     ...  26432 (   0.0 sec)
# of grid points (after weights+screening)   ...  24782 (   0.0 sec)
nearest neighbour list constructed           ...    0.0 sec
Grid point re-assignment to atoms done       ...    0.0 sec
Grid point division into batches done        ...    0.0 sec
Reduced shell lists constructed in    0.1 sec

Total number of grid points                  ...    24782
Total number of batches                      ...      401
Average number of points per batch           ...       61
Average number of grid points per atom       ...     1033
Average number of shells per batch           ...    65.15 (42.86%)
Average number of basis functions per batch  ...   129.94 (37.77%)
Average number of large shells per batch     ...    42.28 (64.90%)
Average number of large basis fcns per batch ...    83.96 (64.61%)
Maximum spatial batch extension              ...  12.83, 14.11, 17.19 au
Average spatial batch extension              ...   0.48,  0.53,  0.52 au

Time for grid setup =    0.088 sec

------------------------------
INITIAL GUESS: MODEL POTENTIAL
------------------------------
Loading Hartree-Fock densities                     ... done
Calculating cut-offs                               ... done
Setting up the integral package                    ... done
Initializing the effective Hamiltonian             ... done
Starting the Coulomb interaction                   ... done (   0.0 sec)
Reading the grid                                   ... done
Mapping shells                                     ... done
Starting the XC term evaluation                    ... done (   0.0 sec)
Transforming the Hamiltonian                       ... done (   0.0 sec)
Diagonalizing the Hamiltonian                      ... done (   0.0 sec)
Back transforming the eigenvectors                 ... done (   0.0 sec)
Now organizing SCF variables                       ... done
                      ------------------
                      INITIAL GUESS DONE (   0.3 sec)
                      ------------------
--------------
SCF ITERATIONS
--------------
ITER       Energy         Delta-E        Max-DP      RMS-DP      [F,P]     Damp
               ***  Starting incremental Fock matrix formation  ***
  0   -607.8232248279   0.000000000000 0.04387908  0.00083055  0.3395676 0.7000
  1   -608.0935970074  -0.270372179478 0.02913177  0.00057536  0.2165740 0.7000
                               ***Turning on DIIS***
  2   -608.2372581872  -0.143661179807 0.01627982  0.00032232  0.1633699 0.7000
  3   -609.5511684840  -1.313910296822 0.00769285  0.00014791  0.1217190 0.7000
  4   -609.2848441213   0.266324362732 0.01710738  0.00034121  0.0861363 0.0000
  5   -608.5644185962   0.720425525085 0.00204049  0.00005417  0.0057514 0.0000
                      *** Initiating the SOSCF procedure ***
                           *** Shutting down DIIS ***
                      *** Re-Reading the Fockian *** 
                      *** Removing any level shift *** 
ITER      Energy       Delta-E        Grad      Rot      Max-DP    RMS-DP
  6   -608.52609961   0.0383189891  0.000766  0.000766  0.001325  0.000034
               *** Restarting incremental Fock matrix formation ***
  7   -608.51495193   0.0111476797  0.000268  0.000318  0.000625  0.000015
  8   -608.51496322  -0.0000112938  0.000094  0.000269  0.000500  0.000012
  9   -608.51496595  -0.0000027323  0.000062  0.000033  0.000087  0.000002
 10   -608.51496615  -0.0000002014  0.000011  0.000010  0.000019  0.000000
                  ***Gradient check signals convergence***
              ***Rediagonalizing the Fockian in SOSCF/NRSCF***

               *****************************************************
               *                     SUCCESS                       *
               *           SCF CONVERGED AFTER  11 CYCLES          *
               *****************************************************


----------------
TOTAL SCF ENERGY
----------------

Total Energy       :         -608.51496616 Eh          -16558.53405 eV

Components:
Nuclear Repulsion  :          431.19489045 Eh           11733.40948 eV
Electronic Energy  :        -1039.70985661 Eh          -28291.94353 eV
One Electron Energy:        -1699.69079208 Eh          -46250.93780 eV
Two Electron Energy:          659.98093547 Eh           17958.99427 eV

Virial components:
Potential Energy   :        -1216.26819729 Eh          -33096.34023 eV
Kinetic Energy     :          607.75323113 Eh           16537.80618 eV
Virial Ratio       :            2.00125336


---------------
SCF CONVERGENCE
---------------

  Last Energy change         ...   -7.7537e-09  Tolerance :   1.0000e-08
  Last MAX-Density change    ...    4.1289e-06  Tolerance :   1.0000e-07
  Last RMS-Density change    ...    1.0553e-07  Tolerance :   5.0000e-09
  Last Orbital Gradient      ...    1.8286e-06  Tolerance :   1.0000e-05
  Last Orbital Rotation      ...    2.2812e-06  Tolerance :   1.0000e-05

             **** THE GBW FILE WAS UPDATED (12h2o.su.etal.mol1,2,3,4,8,9,10,11-orca.engrad-mp2.def2tzvp.frozencore.gbw) ****
             **** DENSITY FILE WAS UPDATED (12h2o.su.etal.mol1,2,3,4,8,9,10,11-orca.engrad-mp2.def2tzvp.frozencore.scfp) ****
             **** ENERGY FILE WAS UPDATED (12h2o.su.etal.mol1,2,3,4,8,9,10,11-orca.engrad-mp2.def2tzvp.frozencore.en.tmp) ****
             **** THE GBW FILE WAS UPDATED (12h2o.su.etal.mol1,2,3,4,8,9,10,11-orca.engrad-mp2.def2tzvp.frozencore.gbw) ****
             **** DENSITY FILE WAS UPDATED (12h2o.su.etal.mol1,2,3,4,8,9,10,11-orca.engrad-mp2.def2tzvp.frozencore.scfp) ****
----------------
ORBITAL ENERGIES
----------------

  NO   OCC          E(Eh)            E(eV) 
   0   2.0000     -20.598771      -560.5211 
   1   2.0000     -20.588906      -560.2526 
   2   2.0000     -20.580942      -560.0359 
   3   2.0000     -20.580758      -560.0309 
   4   2.0000     -20.561353      -559.5029 
   5   2.0000     -20.557377      -559.3947 
   6   2.0000     -20.544887      -559.0548 
   7   2.0000     -20.495461      -557.7098 
   8   2.0000      -1.385129       -37.6913 
   9   2.0000      -1.384559       -37.6758 
  10   2.0000      -1.371563       -37.3221 
  11   2.0000      -1.362278       -37.0695 
  12   2.0000      -1.341454       -36.5028 
  13   2.0000      -1.338031       -36.4097 
  14   2.0000      -1.328913       -36.1616 
  15   2.0000      -1.280569       -34.8461 
  16   2.0000      -0.747891       -20.3512 
  17   2.0000      -0.741121       -20.1669 
  18   2.0000      -0.741091       -20.1661 
  19   2.0000      -0.729953       -19.8630 
  20   2.0000      -0.723600       -19.6902 
  21   2.0000      -0.714215       -19.4348 
  22   2.0000      -0.707647       -19.2561 
  23   2.0000      -0.657683       -17.8965 
  24   2.0000      -0.642457       -17.4821 
  25   2.0000      -0.623499       -16.9663 
  26   2.0000      -0.612770       -16.6743 
  27   2.0000      -0.605854       -16.4861 
  28   2.0000      -0.587863       -15.9966 
  29   2.0000      -0.576684       -15.6924 
  30   2.0000      -0.570006       -15.5106 
  31   2.0000      -0.534869       -14.5545 
  32   2.0000      -0.531498       -14.4628 
  33   2.0000      -0.527076       -14.3425 
  34   2.0000      -0.521338       -14.1863 
  35   2.0000      -0.518776       -14.1166 
  36   2.0000      -0.511932       -13.9304 
  37   2.0000      -0.501614       -13.6496 
  38   2.0000      -0.488381       -13.2895 
  39   2.0000      -0.445807       -12.1310 
  40   0.0000       0.087092         2.3699 
  41   0.0000       0.118616         3.2277 
  42   0.0000       0.137480         3.7410 
  43   0.0000       0.142612         3.8807 
  44   0.0000       0.161942         4.4067 
  45   0.0000       0.164468         4.4754 
  46   0.0000       0.191824         5.2198 
  47   0.0000       0.209374         5.6974 
  48   0.0000       0.255405         6.9499 
  49   0.0000       0.271815         7.3965 
  50   0.0000       0.275872         7.5069 
  51   0.0000       0.287799         7.8314 
  52   0.0000       0.316570         8.6143 
  53   0.0000       0.324660         8.8345 
  54   0.0000       0.333165         9.0659 
  55   0.0000       0.344246         9.3674 
  56   0.0000       0.414913        11.2904 
  57   0.0000       0.466371        12.6906 
  58   0.0000       0.472316        12.8524 
  59   0.0000       0.480964        13.0877 
  60   0.0000       0.488022        13.2798 
  61   0.0000       0.502261        13.6672 
  62   0.0000       0.519610        14.1393 
  63   0.0000       0.530120        14.4253 
  64   0.0000       0.531799        14.4710 
  65   0.0000       0.548050        14.9132 
  66   0.0000       0.552950        15.0465 
  67   0.0000       0.569627        15.5003 
  68   0.0000       0.573027        15.5929 
  69   0.0000       0.586697        15.9648 
  70   0.0000       0.590713        16.0741 
  71   0.0000       0.600331        16.3358 
  72   0.0000       0.605657        16.4808 
  73   0.0000       0.616455        16.7746 
  74   0.0000       0.639108        17.3910 
  75   0.0000       0.644982        17.5509 
  76   0.0000       0.651008        17.7148 
  77   0.0000       0.666011        18.1231 
  78   0.0000       0.678937        18.4748 
  79   0.0000       0.706220        19.2172 
  80   0.0000       0.708378        19.2759 
  81   0.0000       0.725918        19.7532 
  82   0.0000       0.736368        20.0376 
  83   0.0000       0.742769        20.2118 
  84   0.0000       0.753305        20.4985 
  85   0.0000       0.758412        20.6374 
  86   0.0000       0.769148        20.9296 
  87   0.0000       0.780820        21.2472 
  88   0.0000       0.790599        21.5133 
  89   0.0000       0.798836        21.7374 
  90   0.0000       0.814242        22.1567 
  91   0.0000       0.836694        22.7676 
  92   0.0000       0.848596        23.0915 
  93   0.0000       0.860291        23.4097 
  94   0.0000       0.888443        24.1758 
  95   0.0000       0.919494        25.0207 
  96   0.0000       0.952003        25.9053 
  97   0.0000       0.964813        26.2539 
  98   0.0000       0.977593        26.6017 
  99   0.0000       0.991208        26.9721 
 100   0.0000       1.017277        27.6815 
 101   0.0000       1.050147        28.5760 
 102   0.0000       1.066985        29.0341 
 103   0.0000       1.111683        30.2504 
 104   0.0000       1.327373        36.1197 
 105   0.0000       1.356884        36.9227 
 106   0.0000       1.378257        37.5043 
 107   0.0000       1.381012        37.5792 
 108   0.0000       1.389798        37.8183 
 109   0.0000       1.405437        38.2439 
 110   0.0000       1.416883        38.5553 
 111   0.0000       1.420824        38.6626 
 112   0.0000       1.451311        39.4922 
 113   0.0000       1.451563        39.4990 
 114   0.0000       1.456309        39.6282 
 115   0.0000       1.467344        39.9285 
 116   0.0000       1.478170        40.2230 
 117   0.0000       1.487326        40.4722 
 118   0.0000       1.534297        41.7504 
 119   0.0000       1.544965        42.0406 
 120   0.0000       1.551815        42.2270 
 121   0.0000       1.567401        42.6511 
 122   0.0000       1.592680        43.3390 
 123   0.0000       1.600410        43.5494 
 124   0.0000       1.604719        43.6666 
 125   0.0000       1.613919        43.9170 
 126   0.0000       1.623430        44.1758 
 127   0.0000       1.670363        45.4529 
 128   0.0000       1.785922        48.5974 
 129   0.0000       1.793536        48.8046 
 130   0.0000       1.812921        49.3321 
 131   0.0000       1.822610        49.5957 
 132   0.0000       1.858521        50.5729 
 133   0.0000       1.868457        50.8433 
 134   0.0000       1.884174        51.2710 
 135   0.0000       1.906275        51.8724 
 136   0.0000       1.921393        52.2838 
 137   0.0000       1.961413        53.3728 
 138   0.0000       1.976474        53.7826 
 139   0.0000       1.986856        54.0651 
 140   0.0000       1.992542        54.2198 
 141   0.0000       2.009019        54.6682 
 142   0.0000       2.020816        54.9892 
 143   0.0000       2.025153        55.1072 
 144   0.0000       2.035521        55.3893 
 145   0.0000       2.065011        56.1918 
 146   0.0000       2.087483        56.8033 
 147   0.0000       2.093328        56.9624 
 148   0.0000       2.125409        57.8353 
 149   0.0000       2.147954        58.4488 
 150   0.0000       2.183992        59.4294 
 151   0.0000       2.193404        59.6856 
 152   0.0000       2.223789        60.5124 
 153   0.0000       2.233871        60.7867 
 154   0.0000       2.239679        60.9448 
 155   0.0000       2.286808        62.2272 
 156   0.0000       2.309521        62.8452 
 157   0.0000       2.315380        63.0047 
 158   0.0000       2.322513        63.1988 
 159   0.0000       2.334608        63.5279 
 160   0.0000       2.338383        63.6306 
 161   0.0000       2.348229        63.8986 
 162   0.0000       2.363157        64.3048 
 163   0.0000       2.379315        64.7445 
 164   0.0000       2.390973        65.0617 
 165   0.0000       2.411228        65.6128 
 166   0.0000       2.428624        66.0862 
 167   0.0000       2.456983        66.8579 
 168   0.0000       2.480005        67.4844 
 169   0.0000       2.489460        67.7416 
 170   0.0000       2.494738        67.8853 
 171   0.0000       2.517657        68.5089 
 172   0.0000       2.522924        68.6523 
 173   0.0000       2.530368        68.8548 
 174   0.0000       2.556213        69.5581 
 175   0.0000       2.572950        70.0135 
 176   0.0000       2.590041        70.4786 
 177   0.0000       2.602571        70.8196 
 178   0.0000       2.606953        70.9388 
 179   0.0000       2.610233        71.0280 
 180   0.0000       2.621202        71.3265 
 181   0.0000       2.640002        71.8381 
 182   0.0000       2.646390        72.0119 
 183   0.0000       2.658922        72.3530 
 184   0.0000       2.665908        72.5430 
 185   0.0000       2.684085        73.0377 
 186   0.0000       2.696706        73.3811 
 187   0.0000       2.746088        74.7249 
 188   0.0000       2.755676        74.9858 
 189   0.0000       2.764661        75.2303 
 190   0.0000       2.784701        75.7756 
 191   0.0000       2.801855        76.2424 
 192   0.0000       2.882781        78.4445 
 193   0.0000       2.897279        78.8390 
 194   0.0000       2.922590        79.5277 
 195   0.0000       2.929989        79.7291 
 196   0.0000       2.943163        80.0875 
 197   0.0000       2.949900        80.2709 
 198   0.0000       2.954266        80.3897 
 199   0.0000       2.978335        81.0446 
 200   0.0000       2.993784        81.4650 
 201   0.0000       3.003592        81.7319 
 202   0.0000       3.024608        82.3038 
 203   0.0000       3.031265        82.4849 
 204   0.0000       3.033991        82.5591 
 205   0.0000       3.046079        82.8880 
 206   0.0000       3.064077        83.3778 
 207   0.0000       3.105401        84.5023 
 208   0.0000       3.111119        84.6579 
 209   0.0000       3.138951        85.4152 
 210   0.0000       3.149511        85.7025 
 211   0.0000       3.177789        86.4720 
 212   0.0000       3.189431        86.7888 
 213   0.0000       3.209492        87.3347 
 214   0.0000       3.215990        87.5115 
 215   0.0000       3.268815        88.9490 
 216   0.0000       3.287914        89.4687 
 217   0.0000       3.313407        90.1624 
 218   0.0000       3.326409        90.5162 
 219   0.0000       3.352990        91.2395 
 220   0.0000       3.381550        92.0166 
 221   0.0000       3.488797        94.9350 
 222   0.0000       3.501671        95.2853 
 223   0.0000       3.515981        95.6747 
 224   0.0000       3.999175       108.8231 
 225   0.0000       4.017590       109.3242 
 226   0.0000       4.023979       109.4980 
 227   0.0000       4.071734       110.7975 
 228   0.0000       4.100957       111.5927 
 229   0.0000       4.114471       111.9605 
 230   0.0000       4.124859       112.2431 
 231   0.0000       4.129914       112.3807 
 232   0.0000       4.274782       116.3227 
 233   0.0000       4.291751       116.7845 
 234   0.0000       4.299139       116.9855 
 235   0.0000       4.326518       117.7305 
 236   0.0000       4.356371       118.5429 
 237   0.0000       4.372483       118.9813 
 238   0.0000       4.374407       119.0337 
 239   0.0000       4.389005       119.4309 
 240   0.0000       5.509401       149.9184 
 241   0.0000       5.514063       150.0453 
 242   0.0000       5.522370       150.2713 
 243   0.0000       5.524387       150.3262 
 244   0.0000       5.541380       150.7886 
 245   0.0000       5.553906       151.1295 
 246   0.0000       5.558592       151.2570 
 247   0.0000       5.607231       152.5805 
 248   0.0000       5.619673       152.9191 
 249   0.0000       5.638430       153.4295 
 250   0.0000       5.647591       153.6788 
 251   0.0000       5.661751       154.0641 
 252   0.0000       5.664222       154.1313 
 253   0.0000       5.665280       154.1601 
 254   0.0000       5.672506       154.3567 
 255   0.0000       5.714361       155.4957 
 256   0.0000       5.786662       157.4631 
 257   0.0000       5.794578       157.6785 
 258   0.0000       5.799625       157.8158 
 259   0.0000       5.800971       157.8524 
 260   0.0000       5.802325       157.8893 
 261   0.0000       5.812175       158.1573 
 262   0.0000       5.822131       158.4282 
 263   0.0000       5.826210       158.5392 
 264   0.0000       5.840845       158.9375 
 265   0.0000       5.845704       159.0697 
 266   0.0000       5.856881       159.3738 
 267   0.0000       5.858388       159.4148 
 268   0.0000       5.864247       159.5743 
 269   0.0000       5.865427       159.6064 
 270   0.0000       5.869057       159.7052 
 271   0.0000       5.874173       159.8444 
 272   0.0000       5.875526       159.8812 
 273   0.0000       5.894877       160.4078 
 274   0.0000       5.905326       160.6921 
 275   0.0000       5.909570       160.8076 
 276   0.0000       5.926978       161.2813 
 277   0.0000       5.935138       161.5033 
 278   0.0000       5.945943       161.7973 
 279   0.0000       5.963887       162.2856 
 280   0.0000       6.451457       175.5531 
 281   0.0000       6.453837       175.6178 
 282   0.0000       6.459786       175.7797 
 283   0.0000       6.467804       175.9979 
 284   0.0000       6.473140       176.1431 
 285   0.0000       6.476677       176.2393 
 286   0.0000       6.480988       176.3566 
 287   0.0000       6.551130       178.2653 
 288   0.0000       6.649017       180.9290 
 289   0.0000       6.676266       181.6704 
 290   0.0000       6.680802       181.7939 
 291   0.0000       6.713353       182.6796 
 292   0.0000       6.719174       182.8380 
 293   0.0000       6.725831       183.0192 
 294   0.0000       6.750315       183.6854 
 295   0.0000       6.758817       183.9168 
 296   0.0000       6.820732       185.6015 
 297   0.0000       6.833390       185.9460 
 298   0.0000       6.836468       186.0298 
 299   0.0000       6.860735       186.6901 
 300   0.0000       6.878638       187.1772 
 301   0.0000       6.889425       187.4708 
 302   0.0000       6.892025       187.5415 
 303   0.0000       6.901541       187.8005 
 304   0.0000       6.903173       187.8449 
 305   0.0000       6.914992       188.1665 
 306   0.0000       6.915511       188.1806 
 307   0.0000       6.925282       188.4465 
 308   0.0000       6.927439       188.5052 
 309   0.0000       6.931888       188.6263 
 310   0.0000       6.956086       189.2847 
 311   0.0000       6.959656       189.3819 
 312   0.0000       6.973321       189.7537 
 313   0.0000       6.976082       189.8288 
 314   0.0000       6.996724       190.3905 
 315   0.0000       7.014504       190.8744 
 316   0.0000       7.027971       191.2408 
 317   0.0000       7.058752       192.0784 
 318   0.0000       7.071419       192.4231 
 319   0.0000       7.094207       193.0432 
 320   0.0000       7.351129       200.0344 
 321   0.0000       7.380411       200.8312 
 322   0.0000       7.393222       201.1798 
 323   0.0000       7.436331       202.3528 
 324   0.0000       7.442215       202.5130 
 325   0.0000       7.460997       203.0241 
 326   0.0000       7.472936       203.3489 
 327   0.0000       7.477205       203.4651 
 328   0.0000       7.493815       203.9171 
 329   0.0000       7.520583       204.6455 
 330   0.0000       7.533454       204.9957 
 331   0.0000       7.547513       205.3783 
 332   0.0000       7.561228       205.7515 
 333   0.0000       7.562848       205.7956 
 334   0.0000       7.594305       206.6515 
 335   0.0000       7.641788       207.9436 
 336   0.0000      44.896995      1221.7093 
 337   0.0000      44.955557      1223.3029 
 338   0.0000      44.967219      1223.6202 
 339   0.0000      44.975985      1223.8588 
 340   0.0000      44.993320      1224.3305 
 341   0.0000      44.995040      1224.3773 
 342   0.0000      45.030047      1225.3299 
 343   0.0000      45.051091      1225.9025 

                    ********************************
                    * MULLIKEN POPULATION ANALYSIS *
                    ********************************

-----------------------
MULLIKEN ATOMIC CHARGES
-----------------------
   0 O :   -0.771131
   1 H :    0.348876
   2 H :    0.403066
   3 O :   -0.782128
   4 H :    0.354385
   5 H :    0.408222
   6 O :   -0.741399
   7 H :    0.359077
   8 H :    0.406124
   9 O :   -0.737779
  10 H :    0.393248
  11 H :    0.336592
  12 O :   -0.743048
  13 H :    0.367200
  14 H :    0.401418
  15 O :   -0.715749
  16 H :    0.367117
  17 H :    0.383059
  18 O :   -0.795892
  19 H :    0.365254
  20 H :    0.411816
  21 O :   -0.766977
  22 H :    0.382400
  23 H :    0.366247
Sum of atomic charges:    0.0000000

--------------------------------
MULLIKEN REDUCED ORBITAL CHARGES
--------------------------------
  0 O s       :     3.807071  s :     3.807071
      pz      :     1.730109  p :     4.939580
      px      :     1.424033
      py      :     1.785438
      dz2     :     0.003960  d :     0.023050
      dxz     :     0.004727
      dyz     :     0.005292
      dx2y2   :     0.002326
      dxy     :     0.006744
      f0      :     0.000089  f :     0.001431
      f+1     :     0.000332
      f-1     :     0.000177
      f+2     :     0.000062
      f-2     :     0.000356
      f+3     :     0.000083
      f-3     :     0.000333
  1 H s       :     0.605410  s :     0.605410
      pz      :     0.017051  p :     0.045714
      px      :     0.013744
      py      :     0.014919
  2 H s       :     0.540840  s :     0.540840
      pz      :     0.010637  p :     0.056094
      px      :     0.032173
      py      :     0.013284
  3 O s       :     3.806191  s :     3.806191
      pz      :     1.736218  p :     4.951870
      px      :     1.779909
      py      :     1.435744
      dz2     :     0.004016  d :     0.022654
      dxz     :     0.005175
      dyz     :     0.004849
      dx2y2   :     0.002272
      dxy     :     0.006343
      f0      :     0.000089  f :     0.001413
      f+1     :     0.000174
      f-1     :     0.000333
      f+2     :     0.000060
      f-2     :     0.000354
      f+3     :     0.000324
      f-3     :     0.000080
  4 H s       :     0.600102  s :     0.600102
      pz      :     0.017201  p :     0.045513
      px      :     0.014728
      py      :     0.013583
  5 H s       :     0.535360  s :     0.535360
      pz      :     0.010408  p :     0.056417
      px      :     0.013183
      py      :     0.032826
  6 O s       :     3.795553  s :     3.795553
      pz      :     1.519681  p :     4.919810
      px      :     1.609371
      py      :     1.790758
      dz2     :     0.012345  d :     0.024655
      dxz     :     0.001271
      dyz     :     0.002275
      dx2y2   :     0.002280
      dxy     :     0.006484
      f0      :     0.000251  f :     0.001380
      f+1     :     0.000388
      f-1     :     0.000154
      f+2     :     0.000051
      f-2     :     0.000055
      f+3     :     0.000045
      f-3     :     0.000437
  7 H s       :     0.597046  s :     0.597046
      pz      :     0.019169  p :     0.043877
      px      :     0.011849
      py      :     0.012859
  8 H s       :     0.544659  s :     0.544659
      pz      :     0.009201  p :     0.049217
      px      :     0.024808
      py      :     0.015208
  9 O s       :     3.809398  s :     3.809398
      pz      :     1.592398  p :     4.902871
      px      :     1.874349
      py      :     1.436124
      dz2     :     0.010373  d :     0.024044
      dxz     :     0.002467
      dyz     :     0.002580
      dx2y2   :     0.003170
      dxy     :     0.005452
      f0      :     0.000178  f :     0.001466
      f+1     :     0.000123
      f-1     :     0.000430
      f+2     :     0.000078
      f-2     :     0.000036
      f+3     :     0.000490
      f-3     :     0.000129
 10 H s       :     0.557423  s :     0.557423
      pz      :     0.024834  p :     0.049329
      px      :     0.013253
      py      :     0.011241
 11 H s       :     0.620124  s :     0.620124
      pz      :     0.009920  p :     0.043284
      px      :     0.015270
      py      :     0.018093
 12 O s       :     3.796151  s :     3.796151
      pz      :     1.527077  p :     4.920778
      px      :     1.603268
      py      :     1.790433
      dz2     :     0.012328  d :     0.024729
      dxz     :     0.001242
      dyz     :     0.002285
      dx2y2   :     0.002306
      dxy     :     0.006567
      f0      :     0.000250  f :     0.001389
      f+1     :     0.000389
      f-1     :     0.000156
      f+2     :     0.000052
      f-2     :     0.000056
      f+3     :     0.000046
      f-3     :     0.000441
 13 H s       :     0.589263  s :     0.589263
      pz      :     0.019331  p :     0.043536
      px      :     0.011580
      py      :     0.012626
 14 H s       :     0.549311  s :     0.549311
      pz      :     0.009415  p :     0.049271
      px      :     0.024427
      py      :     0.015429
 15 O s       :     3.800490  s :     3.800490
      pz      :     1.525722  p :     4.887914
      px      :     1.793096
      py      :     1.569096
      dz2     :     0.012571  d :     0.025897
      dxz     :     0.002478
      dyz     :     0.001255
      dx2y2   :     0.002439
      dxy     :     0.007154
      f0      :     0.000250  f :     0.001449
      f+1     :     0.000163
      f-1     :     0.000395
      f+2     :     0.000051
      f-2     :     0.000057
      f+3     :     0.000481
      f-3     :     0.000052
 16 H s       :     0.589223  s :     0.589223
      pz      :     0.019469  p :     0.043660
      px      :     0.012533
      py      :     0.011658
 17 H s       :     0.573940  s :     0.573940
      pz      :     0.009973  p :     0.043001
      px      :     0.014329
      py      :     0.018699
 18 O s       :     3.807963  s :     3.807963
      pz      :     1.728224  p :     4.964638
      px      :     1.793470
      py      :     1.442945
      dz2     :     0.003617  d :     0.021912
      dxz     :     0.005024
      dyz     :     0.004399
      dx2y2   :     0.002211
      dxy     :     0.006661
      f0      :     0.000080  f :     0.001378
      f+1     :     0.000168
      f-1     :     0.000315
      f+2     :     0.000060
      f-2     :     0.000345
      f+3     :     0.000328
      f-3     :     0.000081
 19 H s       :     0.589554  s :     0.589554
      pz      :     0.016892  p :     0.045192
      px      :     0.014592
      py      :     0.013709
 20 H s       :     0.532378  s :     0.532378
      pz      :     0.009922  p :     0.055807
      px      :     0.013083
      py      :     0.032802
 21 O s       :     3.805247  s :     3.805247
      pz      :     1.550578  p :     4.935893
      px      :     1.820860
      py      :     1.564455
      dz2     :     0.011311  d :     0.024403
      dxz     :     0.002820
      dyz     :     0.001202
      dx2y2   :     0.002017
      dxy     :     0.007053
      f0      :     0.000252  f :     0.001434
      f+1     :     0.000160
      f-1     :     0.000371
      f+2     :     0.000056
      f-2     :     0.000054
      f+3     :     0.000479
      f-3     :     0.000063
 22 H s       :     0.569174  s :     0.569174
      pz      :     0.024101  p :     0.048425
      px      :     0.012856
      py      :     0.011468
 23 H s       :     0.583109  s :     0.583109
      pz      :     0.010234  p :     0.050644
      px      :     0.016683
      py      :     0.023728


                     *******************************
                     * LOEWDIN POPULATION ANALYSIS *
                     *******************************

----------------------
LOEWDIN ATOMIC CHARGES
----------------------
   0 O :   -0.348262
   1 H :    0.154512
   2 H :    0.154397
   3 O :   -0.350516
   4 H :    0.156986
   5 H :    0.155231
   6 O :   -0.290551
   7 H :    0.168268
   8 H :    0.164125
   9 O :   -0.331280
  10 H :    0.157273
  11 H :    0.164365
  12 O :   -0.292492
  13 H :    0.173087
  14 H :    0.161645
  15 O :   -0.279688
  16 H :    0.174610
  17 H :    0.181907
  18 O :   -0.326546
  19 H :    0.161105
  20 H :    0.156218
  21 O :   -0.364637
  22 H :    0.153665
  23 H :    0.146576

-------------------------------
LOEWDIN REDUCED ORBITAL CHARGES
-------------------------------
  0 O s       :     3.461466  s :     3.461466
      pz      :     1.709826  p :     4.855605
      px      :     1.397973
      py      :     1.747806
      dz2     :     0.004360  d :     0.029208
      dxz     :     0.006941
      dyz     :     0.005416
      dx2y2   :     0.003726
      dxy     :     0.008766
      f0      :     0.000074  f :     0.001983
      f+1     :     0.000440
      f-1     :     0.000265
      f+2     :     0.000032
      f-2     :     0.000619
      f+3     :     0.000083
      f-3     :     0.000469
  1 H s       :     0.680577  s :     0.680577
      pz      :     0.065793  p :     0.164911
      px      :     0.045882
      py      :     0.053236
  2 H s       :     0.650700  s :     0.650700
      pz      :     0.033487  p :     0.194902
      px      :     0.113874
      py      :     0.047542
  3 O s       :     3.460199  s :     3.460199
      pz      :     1.711717  p :     4.859861
      px      :     1.744186
      py      :     1.403958
      dz2     :     0.004295  d :     0.028507
      dxz     :     0.005267
      dyz     :     0.006971
      dx2y2   :     0.003725
      dxy     :     0.008250
      f0      :     0.000073  f :     0.001949
      f+1     :     0.000258
      f-1     :     0.000435
      f+2     :     0.000031
      f-2     :     0.000616
      f+3     :     0.000452
      f-3     :     0.000083
  4 H s       :     0.678127  s :     0.678127
      pz      :     0.065916  p :     0.164887
      px      :     0.052801
      py      :     0.046170
  5 H s       :     0.647233  s :     0.647233
      pz      :     0.033368  p :     0.197536
      px      :     0.047609
      py      :     0.116558
  6 O s       :     3.451574  s :     3.451574
      pz      :     1.513899  p :     4.805814
      px      :     1.561392
      py      :     1.730523
      dz2     :     0.016244  d :     0.031091
      dxz     :     0.002097
      dyz     :     0.001827
      dx2y2   :     0.003269
      dxy     :     0.007656
      f0      :     0.000473  f :     0.002072
      f+1     :     0.000568
      f-1     :     0.000328
      f+2     :     0.000020
      f-2     :     0.000052
      f+3     :     0.000025
      f-3     :     0.000607
  7 H s       :     0.672417  s :     0.672417
      pz      :     0.080374  p :     0.159316
      px      :     0.036930
      py      :     0.042012
  8 H s       :     0.659187  s :     0.659187
      pz      :     0.029196  p :     0.176688
      px      :     0.089345
      py      :     0.058148
  9 O s       :     3.464612  s :     3.464612
      pz      :     1.557036  p :     4.833047
      px      :     1.834247
      py      :     1.441764
      dz2     :     0.014500  d :     0.031552
      dxz     :     0.001605
      dyz     :     0.003751
      dx2y2   :     0.004550
      dxy     :     0.007146
      f0      :     0.000350  f :     0.002068
      f+1     :     0.000193
      f-1     :     0.000710
      f+2     :     0.000043
      f-2     :     0.000041
      f+3     :     0.000655
      f-3     :     0.000077
 10 H s       :     0.670350  s :     0.670350
      pz      :     0.094286  p :     0.172377
      px      :     0.042646
      py      :     0.035446
 11 H s       :     0.682090  s :     0.682090
      pz      :     0.030801  p :     0.153545
      px      :     0.049277
      py      :     0.073467
 12 O s       :     3.451823  s :     3.451823
      pz      :     1.518485  p :     4.807498
      px      :     1.557923
      py      :     1.731090
      dz2     :     0.016027  d :     0.031089
      dxz     :     0.002033
      dyz     :     0.001825
      dx2y2   :     0.003324
      dxy     :     0.007880
      f0      :     0.000462  f :     0.002081
      f+1     :     0.000570
      f-1     :     0.000330
      f+2     :     0.000021
      f-2     :     0.000051
      f+3     :     0.000025
      f-3     :     0.000622
 13 H s       :     0.667643  s :     0.667643
      pz      :     0.080938  p :     0.159270
      px      :     0.036629
      py      :     0.041704
 14 H s       :     0.662829  s :     0.662829
      pz      :     0.029496  p :     0.175526
      px      :     0.087905
      py      :     0.058125
 15 O s       :     3.458542  s :     3.458542
      pz      :     1.517965  p :     4.785781
      px      :     1.729559
      py      :     1.538258
      dz2     :     0.016695  d :     0.033186
      dxz     :     0.001986
      dyz     :     0.002017
      dx2y2   :     0.003567
      dxy     :     0.008921
      f0      :     0.000457  f :     0.002179
      f+1     :     0.000346
      f-1     :     0.000586
      f+2     :     0.000022
      f-2     :     0.000049
      f+3     :     0.000693
      f-3     :     0.000027
 16 H s       :     0.666772  s :     0.666772
      pz      :     0.081282  p :     0.158617
      px      :     0.041617
      py      :     0.035718
 17 H s       :     0.659895  s :     0.659895
      pz      :     0.029520  p :     0.158198
      px      :     0.054942
      py      :     0.073736
 18 O s       :     3.454729  s :     3.454729
      pz      :     1.684401  p :     4.841554
      px      :     1.749974
      py      :     1.407179
      dz2     :     0.004698  d :     0.028323
      dxz     :     0.005094
      dyz     :     0.006578
      dx2y2   :     0.003622
      dxy     :     0.008331
      f0      :     0.000085  f :     0.001939
      f+1     :     0.000255
      f-1     :     0.000426
      f+2     :     0.000031
      f-2     :     0.000602
      f+3     :     0.000455
      f-3     :     0.000083
 19 H s       :     0.673372  s :     0.673372
      pz      :     0.066228  p :     0.165523
      px      :     0.052962
      py      :     0.046334
 20 H s       :     0.645086  s :     0.645086
      pz      :     0.033312  p :     0.198697
      px      :     0.047699
      py      :     0.117685
 21 O s       :     3.460216  s :     3.460216
      pz      :     1.534438  p :     4.872732
      px      :     1.792873
      py      :     1.545421
      dz2     :     0.014683  d :     0.029673
      dxz     :     0.002187
      dyz     :     0.001912
      dx2y2   :     0.002083
      dxy     :     0.008809
      f0      :     0.000443  f :     0.002015
      f+1     :     0.000304
      f-1     :     0.000543
      f+2     :     0.000023
      f-2     :     0.000047
      f+3     :     0.000653
      f-3     :     0.000002
 22 H s       :     0.675369  s :     0.675369
      pz      :     0.092055  p :     0.170966
      px      :     0.042105
      py      :     0.036806
 23 H s       :     0.678868  s :     0.678868
      pz      :     0.031181  p :     0.174555
      px      :     0.058077
      py      :     0.085297


                      *****************************
                      * MAYER POPULATION ANALYSIS *
                      *****************************

  NA   - Mulliken gross atomic population
  ZA   - Total nuclear charge
  QA   - Mulliken gross atomic charge
  VA   - Mayer's total valence
  BVA  - Mayer's bonded valence
  FA   - Mayer's free valence

  ATOM       NA         ZA         QA         VA         BVA        FA
  0 O      8.7711     8.0000    -0.7711     1.6951     1.6951     0.0000
  1 H      0.6511     1.0000     0.3489     0.8949     0.8949     0.0000
  2 H      0.5969     1.0000     0.4031     0.8699     0.8699     0.0000
  3 O      8.7821     8.0000    -0.7821     1.6859     1.6859    -0.0000
  4 H      0.6456     1.0000     0.3544     0.8908     0.8908     0.0000
  5 H      0.5918     1.0000     0.4082     0.8722     0.8722     0.0000
  6 O      8.7414     8.0000    -0.7414     1.7392     1.7392     0.0000
  7 H      0.6409     1.0000     0.3591     0.8857     0.8857    -0.0000
  8 H      0.5939     1.0000     0.4061     0.8744     0.8744    -0.0000
  9 O      8.7378     8.0000    -0.7378     1.7434     1.7434    -0.0000
 10 H      0.6068     1.0000     0.3932     0.8751     0.8751    -0.0000
 11 H      0.6634     1.0000     0.3366     0.9074     0.9074     0.0000
 12 O      8.7430     8.0000    -0.7430     1.7446     1.7446    -0.0000
 13 H      0.6328     1.0000     0.3672     0.8797     0.8797     0.0000
 14 H      0.5986     1.0000     0.4014     0.8736     0.8736     0.0000
 15 O      8.7157     8.0000    -0.7157     1.7694     1.7694     0.0000
 16 H      0.6329     1.0000     0.3671     0.8787     0.8787     0.0000
 17 H      0.6169     1.0000     0.3831     0.8716     0.8716     0.0000
 18 O      8.7959     8.0000    -0.7959     1.6737     1.6737     0.0000
 19 H      0.6347     1.0000     0.3653     0.8838     0.8838     0.0000
 20 H      0.5882     1.0000     0.4118     0.8694     0.8694     0.0000
 21 O      8.7670     8.0000    -0.7670     1.7154     1.7154     0.0000
 22 H      0.6176     1.0000     0.3824     0.8779     0.8779     0.0000
 23 H      0.6338     1.0000     0.3662     0.9004     0.9004     0.0000

  Mayer bond orders larger than 0.100000
B(  0-O ,  1-H ) :   0.8867 B(  0-O ,  2-H ) :   0.8019 B(  3-O ,  4-H ) :   0.8828 
B(  3-O ,  5-H ) :   0.7837 B(  6-O ,  7-H ) :   0.8788 B(  6-O ,  8-H ) :   0.8100 
B(  9-O , 10-H ) :   0.8381 B(  9-O , 11-H ) :   0.8897 B( 12-O , 13-H ) :   0.8727 
B( 12-O , 14-H ) :   0.8233 B( 15-O , 16-H ) :   0.8729 B( 15-O , 17-H ) :   0.8580 
B( 18-O , 19-H ) :   0.8741 B( 18-O , 20-H ) :   0.7720 B( 21-O , 22-H ) :   0.8570 
B( 21-O , 23-H ) :   0.8574 

-------
TIMINGS
-------

Total SCF time: 0 days 0 hours 0 min 21 sec 

Total time                  ....      21.742 sec
Sum of individual times     ....      21.457 sec  ( 98.7%)

Fock matrix formation       ....      20.909 sec  ( 96.2%)
Diagonalization             ....       0.137 sec  (  0.6%)
Density matrix formation    ....       0.014 sec  (  0.1%)
Population analysis         ....       0.014 sec  (  0.1%)
Initial guess               ....       0.183 sec  (  0.8%)
Orbital Transformation      ....       0.000 sec  (  0.0%)
Orbital Orthonormalization  ....       0.000 sec  (  0.0%)
DIIS solution               ....       0.052 sec  (  0.2%)
SOSCF solution              ....       0.060 sec  (  0.3%)


           ************************************************************
           *        Program running with 6 parallel MPI-processes     *
           *              working on a common directory               *
           ************************************************************

------------------------------------------------------------------------------
                                ORCA  MP2 
------------------------------------------------------------------------------

Freezing NCore=16 chemical core electrons
MP2 will be done in the AO integral direct mode
The Q1-step will be done using symmetric double matrices
Dimension of the basis                    ...  344
Memory devoted for MP2                    ... 8000 MB   
Memory needed for all in one shot         ...  935 MB
Number of MOs that can be treated together...   50      
MP2 density construction                  ... relaxed
The MP2 gradient is requested => amplitudes will be stored on disk
Total number of MOs              ...   32
Number of MOs treated per batch  ...    6 
Number of batches necessary      ...    1 
OPERATORS   0/  0 PASS   0
-----------------------------------------------
 MP2 CORRELATION ENERGY   :     -2.069802501 Eh
-----------------------------------------------


---------------------
MP2 DENSITY FORMATION
---------------------

Completing the external part of the density      ... done
Storing the unrelaxed density                    ... done

Calculating G(D)                                 ... done
Completing the Lagrangian                        ... done
Solving the Z-vector equations                   ... 

------------------------------------------------------------------------------
                           ORCA CP-SCF CALCULATION
------------------------------------------------------------------------------

Input orbitals are from        ... 12h2o.su.etal.mol1,2,3,4,8,9,10,11-orca.engrad-mp2.def2tzvp.frozencore.gbw
Input Perturbation             ... 12h2o.su.etal.mol1,2,3,4,8,9,10,11-orca.engrad-mp2.def2tzvp.frozencore.pin.tmp
Wavefunction output            ... 12h2o.su.etal.mol1,2,3,4,8,9,10,11-orca.engrad-mp2.def2tzvp.frozencore.pout.tmp
Perturbation mode              ... Real perturbation (singlet)
Solver                         ... POPLE
Max. number of iterations      ... 128
Convergence tolerance          ... 1.000e-08
Integral handling              ... Direct
Number of perturbations        ... 1
Number of operators            ... 1
Orbital ranges used for CP-SCF:
 Operator 0:  Orbitals   0... 39  to  40...343
Variables per vector in CP-SCF ... 12160
Number of vectors sought       ... 1
     CP-SCF ITERATION   0: 
     CP-SCF ITERATION   1:      0.001026507741
     CP-SCF ITERATION   2:      0.000026798334
     CP-SCF ITERATION   3:      0.000000817203
     CP-SCF ITERATION   4:      0.000000113069
     CP-SCF ITERATION   5:      0.000000011435
     CP-SCF ITERATION   6:      0.000000000619
                                                 ... done
Finalizing the relaxed density                   ... done
Transforming P to the AO basis                   ... done
Storing the relaxed density                      ... done

------------------------------------
ENERGY WEIGHTED DENSITY FINALIZATION
------------------------------------

Gathering the parts of the W-matrix              ...                                                      done
Forming the Z-density                            ... done
Transforming Z to the AO basis                   ... done
Calculating G(Z)                                 ... done
Finalizing the W-matrix                          ...                                                      done
Transforming W to the AO basis and storing       ... done

                *********************************************
                * UNRELAXED MP2 DENSITY POPULATION ANALYSIS *
                *********************************************

------------------------------------------------------------------------------
                           ORCA POPULATION ANALYSIS
------------------------------------------------------------------------------
Input electron density              ... 12h2o.su.etal.mol1,2,3,4,8,9,10,11-orca.engrad-mp2.def2tzvp.frozencore.pmp2ur
BaseName (.gbw .S,...)              ... 12h2o.su.etal.mol1,2,3,4,8,9,10,11-orca.engrad-mp2.def2tzvp.frozencore

                    ********************************
                    * MULLIKEN POPULATION ANALYSIS *
                    ********************************

-----------------------
MULLIKEN ATOMIC CHARGES
-----------------------
   0 O :   -0.765065
   1 H :    0.346579
   2 H :    0.398585
   3 O :   -0.775735
   4 H :    0.352109
   5 H :    0.403460
   6 O :   -0.734446
   7 H :    0.356622
   8 H :    0.402499
   9 O :   -0.732196
  10 H :    0.390238
  11 H :    0.333701
  12 O :   -0.736284
  13 H :    0.364738
  14 H :    0.397901
  15 O :   -0.709564
  16 H :    0.364743
  17 H :    0.380468
  18 O :   -0.789189
  19 H :    0.362931
  20 H :    0.406827
  21 O :   -0.761164
  22 H :    0.379481
  23 H :    0.362760
Sum of atomic charges:    0.0000000

--------------------------------
MULLIKEN REDUCED ORBITAL CHARGES
--------------------------------
  0 O s       :     3.802120  s :     3.802120
      pz      :     1.719490  p :     4.908421
      px      :     1.415412
      py      :     1.773519
      dz2     :     0.009472  d :     0.050512
      dxz     :     0.010133
      dyz     :     0.010744
      dx2y2   :     0.007955
      dxy     :     0.012209
      f0      :     0.000458  f :     0.004012
      f+1     :     0.000697
      f-1     :     0.000542
      f+2     :     0.000433
      f-2     :     0.000722
      f+3     :     0.000459
      f-3     :     0.000701
  1 H s       :     0.606054  s :     0.606054
      pz      :     0.017536  p :     0.047367
      px      :     0.014190
      py      :     0.015641
  2 H s       :     0.543667  s :     0.543667
      pz      :     0.011461  p :     0.057748
      px      :     0.032282
      py      :     0.014005
  3 O s       :     3.801188  s :     3.801188
      pz      :     1.725576  p :     4.920380
      px      :     1.767832
      py      :     1.426972
      dz2     :     0.009528  d :     0.050169
      dxz     :     0.010626
      dyz     :     0.010266
      dx2y2   :     0.007908
      dxy     :     0.011841
      f0      :     0.000459  f :     0.003997
      f+1     :     0.000539
      f-1     :     0.000699
      f+2     :     0.000431
      f-2     :     0.000720
      f+3     :     0.000692
      f-3     :     0.000457
  4 H s       :     0.600750  s :     0.600750
      pz      :     0.017684  p :     0.047141
      px      :     0.015426
      py      :     0.014032
  5 H s       :     0.538493  s :     0.538493
      pz      :     0.011224  p :     0.058046
      px      :     0.013883
      py      :     0.032940
  6 O s       :     3.790290  s :     3.790290
      pz      :     1.510539  p :     4.888099
      px      :     1.599565
      py      :     1.777996
      dz2     :     0.017470  d :     0.052076
      dxz     :     0.006729
      dyz     :     0.007880
      dx2y2   :     0.008004
      dxy     :     0.011993
      f0      :     0.000631  f :     0.003981
      f+1     :     0.000755
      f-1     :     0.000530
      f+2     :     0.000414
      f-2     :     0.000423
      f+3     :     0.000423
      f-3     :     0.000803
  7 H s       :     0.597896  s :     0.597896
      pz      :     0.019256  p :     0.045482
      px      :     0.012544
      py      :     0.013682
  8 H s       :     0.546855  s :     0.546855
      pz      :     0.009926  p :     0.050646
      px      :     0.024984
      py      :     0.015736
  9 O s       :     3.804514  s :     3.804514
      pz      :     1.582393  p :     4.872477
      px      :     1.862534
      py      :     1.427550
      dz2     :     0.015737  d :     0.051171
      dxz     :     0.008082
      dyz     :     0.007982
      dx2y2   :     0.008577
      dxy     :     0.010793
      f0      :     0.000565  f :     0.004034
      f+1     :     0.000498
      f-1     :     0.000799
      f+2     :     0.000441
      f-2     :     0.000402
      f+3     :     0.000839
      f-3     :     0.000490
 10 H s       :     0.558942  s :     0.558942
      pz      :     0.024936  p :     0.050820
      px      :     0.014081
      py      :     0.011803
 11 H s       :     0.621332  s :     0.621332
      pz      :     0.010772  p :     0.044967
      px      :     0.016054
      py      :     0.018140
 12 O s       :     3.790962  s :     3.790962
      pz      :     1.517869  p :     4.889200
      px      :     1.593561
      py      :     1.777770
      dz2     :     0.017466  d :     0.052134
      dxz     :     0.006701
      dyz     :     0.007879
      dx2y2   :     0.008026
      dxy     :     0.012063
      f0      :     0.000631  f :     0.003989
      f+1     :     0.000756
      f-1     :     0.000532
      f+2     :     0.000415
      f-2     :     0.000424
      f+3     :     0.000425
      f-3     :     0.000807
 13 H s       :     0.590156  s :     0.590156
      pz      :     0.019404  p :     0.045106
      px      :     0.012267
      py      :     0.013436
 14 H s       :     0.551360  s :     0.551360
      pz      :     0.010155  p :     0.050738
      px      :     0.024613
      py      :     0.015970
 15 O s       :     3.795329  s :     3.795329
      pz      :     1.516614  p :     4.857286
      px      :     1.780834
      py      :     1.559839
      dz2     :     0.017640  d :     0.052917
      dxz     :     0.008024
      dyz     :     0.006629
      dx2y2   :     0.008061
      dxy     :     0.012563
      f0      :     0.000630  f :     0.004032
      f+1     :     0.000538
      f-1     :     0.000760
      f+2     :     0.000413
      f-2     :     0.000423
      f+3     :     0.000841
      f-3     :     0.000428
 16 H s       :     0.590040  s :     0.590040
      pz      :     0.019546  p :     0.045217
      px      :     0.013349
      py      :     0.012322
 17 H s       :     0.575051  s :     0.575051
      pz      :     0.010713  p :     0.044482
      px      :     0.014936
      py      :     0.018833
 18 O s       :     3.803030  s :     3.803030
      pz      :     1.717089  p :     4.932316
      px      :     1.781316
      py      :     1.433911
      dz2     :     0.009304  d :     0.049867
      dxz     :     0.010572
      dyz     :     0.009935
      dx2y2   :     0.007884
      dxy     :     0.012173
      f0      :     0.000455  f :     0.003977
      f+1     :     0.000536
      f-1     :     0.000684
      f+2     :     0.000433
      f-2     :     0.000713
      f+3     :     0.000698
      f-3     :     0.000459
 19 H s       :     0.590297  s :     0.590297
      pz      :     0.017355  p :     0.046772
      px      :     0.015274
      py      :     0.014143
 20 H s       :     0.535754  s :     0.535754
      pz      :     0.010722  p :     0.057419
      px      :     0.013781
      py      :     0.032916
 21 O s       :     3.800427  s :     3.800427
      pz      :     1.541124  p :     4.905294
      px      :     1.809245
      py      :     1.554925
      dz2     :     0.016499  d :     0.051433
      dxz     :     0.008324
      dyz     :     0.006665
      dx2y2   :     0.007587
      dxy     :     0.012357
      f0      :     0.000632  f :     0.004010
      f+1     :     0.000533
      f-1     :     0.000740
      f+2     :     0.000417
      f-2     :     0.000421
      f+3     :     0.000835
      f-3     :     0.000433
 22 H s       :     0.570519  s :     0.570519
      pz      :     0.024162  p :     0.050000
      px      :     0.013693
      py      :     0.012145
 23 H s       :     0.584969  s :     0.584969
      pz      :     0.011041  p :     0.052271
      px      :     0.017309
      py      :     0.023921


                     *******************************
                     * LOEWDIN POPULATION ANALYSIS *
                     *******************************

----------------------
LOEWDIN ATOMIC CHARGES
----------------------
   0 O :   -0.344935
   1 H :    0.153221
   2 H :    0.151850
   3 O :   -0.347068
   4 H :    0.155742
   5 H :    0.152619
   6 O :   -0.286279
   7 H :    0.166769
   8 H :    0.161921
   9 O :   -0.327661
  10 H :    0.155237
  11 H :    0.162421
  12 O :   -0.288336
  13 H :    0.171658
  14 H :    0.159435
  15 O :   -0.275532
  16 H :    0.173273
  17 H :    0.180481
  18 O :   -0.322387
  19 H :    0.159815
  20 H :    0.153478
  21 O :   -0.361829
  22 H :    0.151767
  23 H :    0.144339

-------------------------------
LOEWDIN REDUCED ORBITAL CHARGES
-------------------------------
  0 O s       :     3.457809  s :     3.457809
      pz      :     1.699230  p :     4.824606
      px      :     1.389591
      py      :     1.735784
      dz2     :     0.009990  d :     0.057759
      dxz     :     0.012572
      dyz     :     0.011184
      dx2y2   :     0.009439
      dxy     :     0.014574
      f0      :     0.000453  f :     0.004762
      f+1     :     0.000854
      f-1     :     0.000651
      f+2     :     0.000410
      f-2     :     0.001029
      f+3     :     0.000474
      f-3     :     0.000891
  1 H s       :     0.678672  s :     0.678672
      pz      :     0.067040  p :     0.168107
      px      :     0.046823
      py      :     0.054244
  2 H s       :     0.650811  s :     0.650811
      pz      :     0.034315  p :     0.197339
      px      :     0.114608
      py      :     0.048417
  3 O s       :     3.456550  s :     3.456550
      pz      :     1.701156  p :     4.828697
      px      :     1.732011
      py      :     1.395530
      dz2     :     0.009925  d :     0.057093
      dxz     :     0.011036
      dyz     :     0.012607
      dx2y2   :     0.009447
      dxy     :     0.014077
      f0      :     0.000453  f :     0.004728
      f+1     :     0.000643
      f-1     :     0.000849
      f+2     :     0.000410
      f-2     :     0.001026
      f+3     :     0.000874
      f-3     :     0.000474
  4 H s       :     0.676236  s :     0.676236
      pz      :     0.067154  p :     0.168022
      px      :     0.053765
      py      :     0.047103
  5 H s       :     0.647494  s :     0.647494
      pz      :     0.034188  p :     0.199887
      px      :     0.048444
      py      :     0.117256
  6 O s       :     3.447790  s :     3.447790
      pz      :     1.504439  p :     4.774087
      px      :     1.551764
      py      :     1.717884
      dz2     :     0.022081  d :     0.059534
      dxz     :     0.007497
      dyz     :     0.007357
      dx2y2   :     0.008948
      dxy     :     0.013650
      f0      :     0.000895  f :     0.004869
      f+1     :     0.000991
      f-1     :     0.000727
      f+2     :     0.000389
      f-2     :     0.000427
      f+3     :     0.000408
      f-3     :     0.001032
  7 H s       :     0.670753  s :     0.670753
      pz      :     0.081951  p :     0.162478
      px      :     0.037713
      py      :     0.042815
  8 H s       :     0.658800  s :     0.658800
      pz      :     0.029907  p :     0.179279
      px      :     0.090391
      py      :     0.058981
  9 O s       :     3.460839  s :     3.460839
      pz      :     1.546561  p :     4.802160
      px      :     1.822834
      py      :     1.432766
      dz2     :     0.020457  d :     0.059829
      dxz     :     0.007153
      dyz     :     0.009207
      dx2y2   :     0.010183
      dxy     :     0.012830
      f0      :     0.000768  f :     0.004832
      f+1     :     0.000584
      f-1     :     0.001147
      f+2     :     0.000414
      f-2     :     0.000412
      f+3     :     0.001059
      f-3     :     0.000449
 10 H s       :     0.669584  s :     0.669584
      pz      :     0.095581  p :     0.175178
      px      :     0.043423
      py      :     0.036174
 11 H s       :     0.680630  s :     0.680630
      pz      :     0.031674  p :     0.156948
      px      :     0.050269
      py      :     0.075005
 12 O s       :     3.448048  s :     3.448048
      pz      :     1.509054  p :     4.775900
      px      :     1.548313
      py      :     1.718533
      dz2     :     0.021862  d :     0.059511
      dxz     :     0.007431
      dyz     :     0.007346
      dx2y2   :     0.009002
      dxy     :     0.013870
      f0      :     0.000884  f :     0.004877
      f+1     :     0.000993
      f-1     :     0.000729
      f+2     :     0.000389
      f-2     :     0.000427
      f+3     :     0.000408
      f-3     :     0.001047
 13 H s       :     0.666015  s :     0.666015
      pz      :     0.082433  p :     0.162326
      px      :     0.037399
      py      :     0.042494
 14 H s       :     0.662347  s :     0.662347
      pz      :     0.030226  p :     0.178218
      px      :     0.088999
      py      :     0.058993
 15 O s       :     3.454682  s :     3.454682
      pz      :     1.508603  p :     4.754688
      px      :     1.717225
      py      :     1.528860
      dz2     :     0.022458  d :     0.061204
      dxz     :     0.007458
      dyz     :     0.007332
      dx2y2   :     0.009160
      dxy     :     0.014795
      f0      :     0.000877  f :     0.004957
      f+1     :     0.000744
      f-1     :     0.001005
      f+2     :     0.000389
      f-2     :     0.000422
      f+3     :     0.001113
      f-3     :     0.000407
 16 H s       :     0.665087  s :     0.665087
      pz      :     0.082769  p :     0.161640
      px      :     0.042419
      py      :     0.036452
 17 H s       :     0.658472  s :     0.658472
      pz      :     0.030226  p :     0.161047
      px      :     0.055908
      py      :     0.074913
 18 O s       :     3.451101  s :     3.451101
      pz      :     1.672837  p :     4.809148
      px      :     1.737735
      py      :     1.398575
      dz2     :     0.010512  d :     0.057403
      dxz     :     0.010980
      dyz     :     0.012327
      dx2y2   :     0.009389
      dxy     :     0.014195
      f0      :     0.000471  f :     0.004735
      f+1     :     0.000643
      f-1     :     0.000844
      f+2     :     0.000411
      f-2     :     0.001014
      f+3     :     0.000878
      f-3     :     0.000474
 19 H s       :     0.671596  s :     0.671596
      pz      :     0.067429  p :     0.168589
      px      :     0.053918
      py      :     0.047242
 20 H s       :     0.645487  s :     0.645487
      pz      :     0.034136  p :     0.201035
      px      :     0.048538
      py      :     0.118361
 21 O s       :     3.456587  s :     3.456587
      pz      :     1.524931  p :     4.842628
      px      :     1.781763
      py      :     1.535934
      dz2     :     0.020549  d :     0.057828
      dxz     :     0.007636
      dyz     :     0.007331
      dx2y2   :     0.007637
      dxy     :     0.014675
      f0      :     0.000865  f :     0.004787
      f+1     :     0.000701
      f-1     :     0.000967
      f+2     :     0.000388
      f-2     :     0.000421
      f+3     :     0.001068
      f-3     :     0.000376
 22 H s       :     0.674327  s :     0.674327
      pz      :     0.093414  p :     0.173906
      px      :     0.042911
      py      :     0.037580
 23 H s       :     0.678116  s :     0.678116
      pz      :     0.031964  p :     0.177545
      px      :     0.059044
      py      :     0.086538


                      *****************************
                      * MAYER POPULATION ANALYSIS *
                      *****************************

  NA   - Mulliken gross atomic population
[...]
      f-1     :     0.000666
      f+2     :     0.000432
      f-2     :     0.000693
      f+3     :     0.000680
      f-3     :     0.000457
 19 H s       :     0.596915  s :     0.596915
      pz      :     0.017475  p :     0.047507
      px      :     0.015859
      py      :     0.014173
 20 H s       :     0.560310  s :     0.560310
      pz      :     0.011393  p :     0.057556
      px      :     0.014238
      py      :     0.031925
 21 O s       :     3.797903  s :     3.797903
      pz      :     1.536566  p :     4.887201
      px      :     1.801313
      py      :     1.549322
      dz2     :     0.015323  d :     0.049480
      dxz     :     0.008285
      dyz     :     0.006625
      dx2y2   :     0.007537
      dxy     :     0.011710
      f0      :     0.000617  f :     0.003940
      f+1     :     0.000523
      f-1     :     0.000719
      f+2     :     0.000417
      f-2     :     0.000420
      f+3     :     0.000813
      f-3     :     0.000433
 22 H s       :     0.582750  s :     0.582750
      pz      :     0.023330  p :     0.050463
      px      :     0.014529
      py      :     0.012605
 23 H s       :     0.601827  s :     0.601827
      pz      :     0.011738  p :     0.052908
      px      :     0.017824
      py      :     0.023346


                     *******************************
                     * LOEWDIN POPULATION ANALYSIS *
                     *******************************

----------------------
LOEWDIN ATOMIC CHARGES
----------------------
   0 O :   -0.342118
   1 H :    0.155079
   2 H :    0.144637
   3 O :   -0.343232
   4 H :    0.157646
   5 H :    0.144807
   6 O :   -0.279410
   7 H :    0.168488
   8 H :    0.156230
   9 O :   -0.326039
  10 H :    0.150656
  11 H :    0.163133
  12 O :   -0.281860
  13 H :    0.173233
  14 H :    0.154126
  15 O :   -0.270535
  16 H :    0.175060
  17 H :    0.181105
  18 O :   -0.315051
  19 H :    0.161579
  20 H :    0.145433
  21 O :   -0.361474
  22 H :    0.148717
  23 H :    0.139790

-------------------------------
LOEWDIN REDUCED ORBITAL CHARGES
-------------------------------
  0 O s       :     3.459307  s :     3.459307
      pz      :     1.698849  p :     4.820879
      px      :     1.393492
      py      :     1.728538
      dz2     :     0.009962  d :     0.057133
      dxz     :     0.012221
      dyz     :     0.011118
      dx2y2   :     0.009467
      dxy     :     0.014365
      f0      :     0.000456  f :     0.004799
      f+1     :     0.000865
      f-1     :     0.000652
      f+2     :     0.000410
      f-2     :     0.001031
      f+3     :     0.000479
      f-3     :     0.000906
  1 H s       :     0.676745  s :     0.676745
      pz      :     0.067015  p :     0.168176
      px      :     0.046439
      py      :     0.054722
  2 H s       :     0.657798  s :     0.657798
      pz      :     0.034961  p :     0.197565
      px      :     0.113695
      py      :     0.048909
  3 O s       :     3.457784  s :     3.457784
      pz      :     1.700836  p :     4.824173
      px      :     1.723732
      py      :     1.399605
      dz2     :     0.009903  d :     0.056510
      dxz     :     0.010974
      dyz     :     0.012265
      dx2y2   :     0.009474
      dxy     :     0.013894
      f0      :     0.000455  f :     0.004765
      f+1     :     0.000644
      f-1     :     0.000861
      f+2     :     0.000410
      f-2     :     0.001027
      f+3     :     0.000889
      f-3     :     0.000479
  4 H s       :     0.674398  s :     0.674398
      pz      :     0.067157  p :     0.167956
      px      :     0.054048
      py      :     0.046752
  5 H s       :     0.655070  s :     0.655070
      pz      :     0.034822  p :     0.200122
      px      :     0.048811
      py      :     0.116489
  6 O s       :     3.448552  s :     3.448552
      pz      :     1.506668  p :     4.767207
      px      :     1.553759
      py      :     1.706780
      dz2     :     0.021422  d :     0.058761
      dxz     :     0.007371
      dyz     :     0.007389
      dx2y2   :     0.009043
      dxy     :     0.013536
      f0      :     0.000893  f :     0.004889
      f+1     :     0.000998
      f-1     :     0.000728
      f+2     :     0.000390
      f-2     :     0.000427
      f+3     :     0.000410
      f-3     :     0.001043
  7 H s       :     0.668907  s :     0.668907
      pz      :     0.081151  p :     0.162604
      px      :     0.038041
      py      :     0.043413
  8 H s       :     0.664130  s :     0.664130
      pz      :     0.030218  p :     0.179640
      px      :     0.090151
      py      :     0.059271
  9 O s       :     3.462162  s :     3.462162
      pz      :     1.544438  p :     4.800226
      px      :     1.820478
      py      :     1.435311
      dz2     :     0.020075  d :     0.058796
      dxz     :     0.007235
      dyz     :     0.009014
      dx2y2   :     0.009952
      dxy     :     0.012520
      f0      :     0.000772  f :     0.004855
      f+1     :     0.000584
      f-1     :     0.001156
      f+2     :     0.000416
      f-2     :     0.000411
      f+3     :     0.001065
      f-3     :     0.000451
 10 H s       :     0.673868  s :     0.673868
      pz      :     0.095002  p :     0.175476
      px      :     0.044363
      py      :     0.036111
 11 H s       :     0.679475  s :     0.679475
      pz      :     0.032269  p :     0.157392
      px      :     0.051002
      py      :     0.074121
 12 O s       :     3.448759  s :     3.448759
      pz      :     1.511292  p :     4.769471
      px      :     1.550331
      py      :     1.707848
      dz2     :     0.021227  d :     0.058732
      dxz     :     0.007305
      dyz     :     0.007374
      dx2y2   :     0.009094
      dxy     :     0.013731
      f0      :     0.000882  f :     0.004899
      f+1     :     0.001000
      f-1     :     0.000730
      f+2     :     0.000391
      f-2     :     0.000427
      f+3     :     0.000410
      f-3     :     0.001058
 13 H s       :     0.664529  s :     0.664529
      pz      :     0.081519  p :     0.162238
      px      :     0.037677
      py      :     0.043042
 14 H s       :     0.667276  s :     0.667276
      pz      :     0.030586  p :     0.178598
      px      :     0.088662
      py      :     0.059350
 15 O s       :     3.456005  s :     3.456005
      pz      :     1.510818  p :     4.749365
      px      :     1.707591
      py      :     1.530956
      dz2     :     0.021761  d :     0.060192
      dxz     :     0.007494
      dyz     :     0.007193
      dx2y2   :     0.009223
      dxy     :     0.014521
      f0      :     0.000876  f :     0.004973
      f+1     :     0.000745
      f-1     :     0.001011
      f+2     :     0.000390
      f-2     :     0.000422
      f+3     :     0.001121
      f-3     :     0.000409
 16 H s       :     0.663384  s :     0.663384
      pz      :     0.081862  p :     0.161556
      px      :     0.043078
      py      :     0.036616
 17 H s       :     0.658112  s :     0.658112
      pz      :     0.030504  p :     0.160783
      px      :     0.056257
      py      :     0.074021
 18 O s       :     3.452558  s :     3.452558
      pz      :     1.667796  p :     4.800700
      px      :     1.730364
      py      :     1.402541
      dz2     :     0.010611  d :     0.057019
      dxz     :     0.010947
      dyz     :     0.012009
      dx2y2   :     0.009440
      dxy     :     0.014012
      f0      :     0.000474  f :     0.004775
      f+1     :     0.000645
      f-1     :     0.000855
      f+2     :     0.000412
      f-2     :     0.001017
      f+3     :     0.000893
      f-3     :     0.000480
 19 H s       :     0.669978  s :     0.669978
      pz      :     0.067359  p :     0.168443
      px      :     0.054249
      py      :     0.046836
 20 H s       :     0.653247  s :     0.653247
      pz      :     0.034674  p :     0.201320
      px      :     0.048926
      py      :     0.117720
 21 O s       :     3.457219  s :     3.457219
      pz      :     1.526045  p :     4.842544
      px      :     1.779232
      py      :     1.537267
      dz2     :     0.020017  d :     0.056901
      dxz     :     0.007654
      dyz     :     0.007214
      dx2y2   :     0.007603
      dxy     :     0.014412
      f0      :     0.000869  f :     0.004810
      f+1     :     0.000700
      f-1     :     0.000975
      f+2     :     0.000390
      f-2     :     0.000421
      f+3     :     0.001079
      f-3     :     0.000376
 22 H s       :     0.677062  s :     0.677062
      pz      :     0.092564  p :     0.174221
      px      :     0.043670
      py      :     0.037986
 23 H s       :     0.681887  s :     0.681887
      pz      :     0.032457  p :     0.178323
      px      :     0.059649
      py      :     0.086217


                      *****************************
                      * MAYER POPULATION ANALYSIS *
                      *****************************

  NA   - Mulliken gross atomic population
  ZA   - Total nuclear charge
  QA   - Mulliken gross atomic charge
  VA   - Mayer's total valence
  BVA  - Mayer's bonded valence
  FA   - Mayer's free valence

  ATOM       NA         ZA         QA         VA         BVA        FA
  0 O      8.7399     8.0000    -0.7399     2.0370     1.6489     0.3881
  1 H      0.6600     1.0000     0.3400     0.9053     0.8584     0.0469
  2 H      0.6225     1.0000     0.3775     0.9024     0.8576     0.0448
  3 O      8.7482     8.0000    -0.7482     2.0303     1.6413     0.3890
  4 H      0.6543     1.0000     0.3457     0.9008     0.8544     0.0464
  5 H      0.6204     1.0000     0.3796     0.9092     0.8647     0.0445
  6 O      8.7050     8.0000    -0.7050     2.0846     1.7014     0.3832
  7 H      0.6487     1.0000     0.3513     0.8954     0.8485     0.0469
  8 H      0.6171     1.0000     0.3829     0.9087     0.8661     0.0426
  9 O      8.7101     8.0000    -0.7101     2.0816     1.6948     0.3867
 10 H      0.6266     1.0000     0.3734     0.9036     0.8601     0.0435
 11 H      0.6750     1.0000     0.3250     0.9237     0.8736     0.0501
 12 O      8.7081     8.0000    -0.7081     2.0899     1.7071     0.3828
 13 H      0.6413     1.0000     0.3587     0.8902     0.8441     0.0460
 14 H      0.6203     1.0000     0.3797     0.9063     0.8631     0.0431
 15 O      8.6871     8.0000    -0.6871     2.1041     1.7239     0.3803
 16 H      0.6408     1.0000     0.3592     0.8883     0.8425     0.0458
 17 H      0.6277     1.0000     0.3723     0.8862     0.8416     0.0446
 18 O      8.7581     8.0000    -0.7581     2.0352     1.6447     0.3905
 19 H      0.6444     1.0000     0.3556     0.8948     0.8491     0.0458
 20 H      0.6179     1.0000     0.3821     0.9069     0.8623     0.0446
 21 O      8.7385     8.0000    -0.7385     2.0473     1.6613     0.3860
 22 H      0.6332     1.0000     0.3668     0.9005     0.8560     0.0445
 23 H      0.6547     1.0000     0.3453     0.9318     0.8858     0.0461

  Mayer bond orders larger than 0.100000
B(  0-O ,  1-H ) :   0.8493 B(  0-O ,  2-H ) :   0.7664 B(  3-O ,  4-H ) :   0.8459 
B(  3-O ,  5-H ) :   0.7480 B(  5-H , 12-O ) :   0.1104 B(  6-O ,  7-H ) :   0.8410 
B(  6-O ,  8-H ) :   0.7764 B(  6-O , 20-H ) :   0.1128 B(  9-O , 10-H ) :   0.8059 
B(  9-O , 11-H ) :   0.8492 B( 12-O , 13-H ) :   0.8359 B( 12-O , 14-H ) :   0.7897 
B( 15-O , 16-H ) :   0.8366 B( 15-O , 17-H ) :   0.8235 B( 18-O , 19-H ) :   0.8377 
B( 18-O , 20-H ) :   0.7341 B( 21-O , 22-H ) :   0.8243 B( 21-O , 23-H ) :   0.8220 



----------------------------------
MP2 DERIVATIVE INTEGRAL GENERATION
----------------------------------


Input Wavefunction Amplitudes       ... 12h2o.su.etal.mol1,2,3,4,8,9,10,11-orca.engrad-mp2.def2tzvp.frozencore.mp2tsaa.tmp
Input Correlated Electron Density   ... 12h2o.su.etal.mol1,2,3,4,8,9,10,11-orca.engrad-mp2.def2tzvp.frozencore.pmp2re
Input Energy Weighted Density       ... 12h2o.su.etal.mol1,2,3,4,8,9,10,11-orca.engrad-mp2.def2tzvp.frozencore.wmp2.tmp
Input SCF Electron Density          ... 12h2o.su.etal.mol1,2,3,4,8,9,10,11-orca.engrad-mp2.def2tzvp.frozencore.scfp

One-Electron Terms    ...
                        ... One-Electron Terms done
Prescreening matrices              ... done

Batch handling in the gradient evaluation:
Memory available                      ... 8000.0 MB
Memory per occupied orbital in Q2     ...   28.9 MB
Memory per occupied orbital in Q3     ...    0.1 MB
Total memory requirement per |i>      ...   29.0 MB
Max. Number of orbitals possible      ...    275
Number of orbitals treated per batch  ...     32
Number of batches to be done          ...      1
Batch   0: i=    8 ...    39

---------------------------------------
MP2 TOTAL ENERGY:     -610.584768664 Eh
---------------------------------------

The final MP2 gradient
  0:  -0.00843372   0.00331285   0.00142248
  1:  -0.00054588   0.00034588  -0.00014702
  2:   0.01524179  -0.00440393  -0.00163722
  3:   0.00415151  -0.00733531   0.00070521
  4:  -0.00051449  -0.00032242   0.00016356
  5:   0.00057211   0.00935438   0.00063682
  6:   0.00352105  -0.00189164  -0.01068802
  7:   0.00006626   0.00224548   0.00849278
  8:  -0.00614857   0.00451824  -0.00026733
  9:   0.00841655   0.01717411   0.00329718
 10:  -0.00172446   0.00218329  -0.00059710
 11:  -0.00747336  -0.01791156  -0.00270688
 12:  -0.00230801  -0.00126853  -0.00895670
 13:   0.00128519  -0.00111045   0.00722932
 14:   0.00225343  -0.00303020  -0.00074396
 15:  -0.00993510  -0.00436254   0.00931434
 16:  -0.00023531  -0.00042827  -0.00675775
 17:   0.00466797   0.00486176  -0.00109644
 18:  -0.00128069   0.00398023   0.00073961
 19:   0.00091839  -0.00052089   0.00133688
 20:  -0.00047915  -0.00550077   0.00237100
 21:   0.00197692   0.00270725   0.00111431
 22:  -0.00300628   0.00181842  -0.00459927
 23:  -0.00098617  -0.00441538   0.00137419

-----------------------------------
NORM OF THE MP2 GRADIENT:  0.045968
-----------------------------------

-------------------------   --------------------
FINAL SINGLE POINT ENERGY      -610.584768663773
-------------------------   --------------------


                            ***************************************
                            *     ORCA property calculations      *
                            ***************************************

                                    ---------------------
                                    Active property flags
                                    ---------------------
   (+) Dipole Moment


------------------------------------------------------------------------------
                       ORCA ELECTRIC PROPERTIES CALCULATION
------------------------------------------------------------------------------

Dipole Moment Calculation                       ... on
Quadrupole Moment Calculation                   ... off
Polarizability Calculation                      ... off
GBWName                                         ... 12h2o.su.etal.mol1,2,3,4,8,9,10,11-orca.engrad-mp2.def2tzvp.frozencore.gbw
Electron density file                           ... 12h2o.su.etal.mol1,2,3,4,8,9,10,11-orca.engrad-mp2.def2tzvp.frozencore.scfp
The origin for moment calculation is the CENTER OF MASS  = (-0.635358,  0.174382 -0.663812)

-------------
DIPOLE MOMENT
-------------
                                X             Y             Z
Electronic contribution:      0.29445      -0.03846      -0.15871
Nuclear contribution   :     -0.14496      -1.13354      -1.40687
                        -----------------------------------------
Total Dipole Moment    :      0.14949      -1.17200      -1.56559
                        -----------------------------------------
Magnitude (a.u.)       :      1.96138
Magnitude (Debye)      :      4.98543



--------------------
Rotational spectrum 
--------------------
 
Rotational constants in cm-1:     0.032340     0.014083     0.012424 
Rotational constants in MHz :   969.542331   422.210699   372.456323 

 Dipole components along the rotational axes: 
x,y,z [a.u.] :    -1.506751    -1.121774     0.564208 
x,y,z [Debye]:    -3.829856    -2.851323     1.434102 

 

                         *** MP2 UNRELAXED DENSITY ***

------------------------------------------------------------------------------
                       ORCA ELECTRIC PROPERTIES CALCULATION
------------------------------------------------------------------------------

Dipole Moment Calculation                       ... on
Quadrupole Moment Calculation                   ... off
Polarizability Calculation                      ... off
GBWName                                         ... 12h2o.su.etal.mol1,2,3,4,8,9,10,11-orca.engrad-mp2.def2tzvp.frozencore.gbw
Electron density file                           ... 12h2o.su.etal.mol1,2,3,4,8,9,10,11-orca.engrad-mp2.def2tzvp.frozencore.pmp2ur
The origin for moment calculation is the CENTER OF MASS  = (-0.635358,  0.174382 -0.663812)

-------------
DIPOLE MOMENT
-------------
                                X             Y             Z
Electronic contribution:      0.29946      -0.02957      -0.14769
Nuclear contribution   :     -0.14496      -1.13354      -1.40687
                        -----------------------------------------
Total Dipole Moment    :      0.15449      -1.16311      -1.55457
                        -----------------------------------------
Magnitude (a.u.)       :      1.94766
Magnitude (Debye)      :      4.95055



--------------------
Rotational spectrum 
--------------------
 
Rotational constants in cm-1:     0.032340     0.014083     0.012424 
Rotational constants in MHz :   969.542331   422.210699   372.456323 

 Dipole components along the rotational axes: 
x,y,z [a.u.] :    -1.496966    -1.115788     0.554509 
x,y,z [Debye]:    -3.804984    -2.836109     1.409450 

 

                           *** MP2 RELAXED DENSITY ***

------------------------------------------------------------------------------
                       ORCA ELECTRIC PROPERTIES CALCULATION
------------------------------------------------------------------------------

Dipole Moment Calculation                       ... on
Quadrupole Moment Calculation                   ... off
Polarizability Calculation                      ... off
GBWName                                         ... 12h2o.su.etal.mol1,2,3,4,8,9,10,11-orca.engrad-mp2.def2tzvp.frozencore.gbw
Electron density file                           ... 12h2o.su.etal.mol1,2,3,4,8,9,10,11-orca.engrad-mp2.def2tzvp.frozencore.pmp2re
The origin for moment calculation is the CENTER OF MASS  = (-0.635358,  0.174382 -0.663812)

-------------
DIPOLE MOMENT
-------------
                                X             Y             Z
Electronic contribution:      0.31589      -0.04124      -0.13675
Nuclear contribution   :     -0.14496      -1.13354      -1.40687
                        -----------------------------------------
Total Dipole Moment    :      0.17092      -1.17478      -1.54362
                        -----------------------------------------
Magnitude (a.u.)       :      1.94733
Magnitude (Debye)      :      4.94972



--------------------
Rotational spectrum 
--------------------
 
Rotational constants in cm-1:     0.032340     0.014083     0.012424 
Rotational constants in MHz :   969.542331   422.210699   372.456323 

 Dipole components along the rotational axes: 
x,y,z [a.u.] :    -1.487634    -1.133255     0.542935 
x,y,z [Debye]:    -3.781265    -2.880505     1.380032 

 

Timings for individual modules:

Sum of individual times         ...      155.426 sec (=   2.590 min)
GTO integral calculation        ...        1.028 sec (=   0.017 min)   0.7 %
SCF iterations                  ...       22.381 sec (=   0.373 min)  14.4 %
MP2 module                      ...      132.018 sec (=   2.200 min)  84.9 %
                             ****ORCA TERMINATED NORMALLY****
TOTAL RUN TIME: 0 days 0 hours 2 minutes 36 seconds 455 msec
