
                                 *****************
                                 * O   R   C   A *
                                 *****************

           --- An Ab Initio, DFT and Semiempirical electronic structure package ---

                  #######################################################
                  #                        -***-                        #
                  #          Department of theory and spectroscopy      #
                  #               Directorship: Frank Neese             #
                  #        Max Planck Institute fuer Kohlenforschung    #
                  #                Kaiser Wilhelm Platz 1               #
                  #                 D-45470 Muelheim/Ruhr               #
                  #                      Germany                        #
                  #                                                     #
                  #                  All rights reserved                #
                  #                        -***-                        #
                  #######################################################


                         Program Version 4.2.0 -  RELEASE  -


 With contributions from (in alphabetic order):
   Daniel Aravena         : Magnetic Suceptibility
   Michael Atanasov       : Ab Initio Ligand Field Theory (pilot matlab implementation)
   Alexander A. Auer      : GIAO ZORA, VPT2
   Ute Becker             : Parallelization
   Giovanni Bistoni       : ED, misc. LED, open-shell LED, HFLED
   Martin Brehm           : Molecular dynamics
   Dmytro Bykov           : SCF Hessian
   Vijay G. Chilkuri      : MRCI spin determinant printing, contributions to CSF-ICE
   Dipayan Datta          : RHF DLPNO-CCSD density
   Achintya Kumar Dutta   : EOM-CC, STEOM-CC
   Dmitry Ganyushin       : Spin-Orbit,Spin-Spin,Magnetic field MRCI
   Miquel Garcia          : C-PCM Hessian, Gaussian charge scheme
   Yang Guo               : DLPNO-NEVPT2, CIM, IAO-localization
   Andreas Hansen         : Spin unrestricted coupled pair/coupled cluster methods
   Benjamin Helmich-Paris : CASSCF linear response (MC-RPA)
   Lee Huntington         : MR-EOM, pCC
   Robert Izsak           : Overlap fitted RIJCOSX, COSX-SCS-MP3, EOM
   Christian Kollmar      : KDIIS, OOCD, Brueckner-CCSD(T), CCSD density
   Simone Kossmann        : Meta GGA functionals, TD-DFT gradient, OOMP2, MP2 Hessian
   Martin Krupicka        : AUTO-CI
   Lucas Lang             : DCDCAS
   Dagmar Lenk            : GEPOL surface, SMD
   Dimitrios Liakos       : Extrapolation schemes; Compound Job, initial MDCI parallelization
   Dimitrios Manganas     : Further ROCIS development; embedding schemes
   Dimitrios Pantazis     : SARC Basis sets
   Taras Petrenko         : DFT Hessian,TD-DFT gradient, ASA, ECA, R-Raman, ABS, FL, XAS/XES, NRVS
   Peter Pinski           : DLPNO-MP2, DLPNO-MP2 Gradient
   Christoph Reimann      : Effective Core Potentials
   Marius Retegan         : Local ZFS, SOC
   Christoph Riplinger    : Optimizer, TS searches, QM/MM, DLPNO-CCSD(T), (RO)-DLPNO pert. Triples
   Tobias Risthaus        : Range-separated hybrids, TD-DFT gradient, RPA, STAB
   Michael Roemelt        : Original ROCIS implementation
   Masaaki Saitow         : Open-shell DLPNO-CCSD energy and density
   Barbara Sandhoefer     : DKH picture change effects
   Avijit Sen             : IP-ROCIS
   Kantharuban Sivalingam : CASSCF convergence, NEVPT2, FIC-MRCI
   Bernardo de Souza      : ESD, SOC TD-DFT
   Georgi Stoychev        : AutoAux, RI-MP2 NMR
   Willem Van den Heuvel  : Paramagnetic NMR
   Boris Wezisla          : Elementary symmetry handling
   Frank Wennmohs         : Technical directorship


 We gratefully acknowledge several colleagues who have allowed us to
 interface, adapt or use parts of their codes:
   Stefan Grimme, W. Hujo, H. Kruse,             : VdW corrections, initial TS optimization,
                  C. Bannwarth                     DFT functionals, gCP, sTDA/sTD-DF
   Ed Valeev, F. Pavosevic, A. Kumar             : LibInt (2-el integral package), F12 methods
   Garnet Chan, S. Sharma, J. Yang, R. Olivares  : DMRG
   Ulf Ekstrom                                   : XCFun DFT Library
   Mihaly Kallay                                 : mrcc  (arbitrary order and MRCC methods)
   Andreas Klamt, Michael Diedenhofen            : otool_cosmo (COSMO solvation model)
   Jiri Pittner, Ondrej Demel                    : Mk-CCSD
   Frank Weinhold                                : gennbo (NPA and NBO analysis)
   Christopher J. Cramer and Donald G. Truhlar   : smd solvation model
   Lars Goerigk                                  : TD-DFT with DH, B97 family of functionals
   V. Asgeirsson, H. Jonsson                     : NEB implementation
   FAccTs GmbH                                   : IRC, NEB, NEB-TS, Multilevel, MM, QM/MM, CI optimization
   S Lehtola, MJT Oliveira, MAL Marques          : LibXC Library


 Your calculation uses the libint2 library for the computation of 2-el integrals
 For citations please refer to: http://libint.valeyev.net

 Your ORCA version has been built with support for libXC version: 4.2.3
 For citations please refer to: https://tddft.org/programs/libxc/

 This ORCA versions uses:
   CBLAS   interface :  Fast vector & matrix operations
   LAPACKE interface :  Fast linear algebra routines
   SCALAPACK package :  Parallel linear algebra routines


----- Orbital basis set information -----
Your calculation utilizes the basis: def2-TZVP
   F. Weigend and R. Ahlrichs, Phys. Chem. Chem. Phys. 7, 3297 (2005).

================================================================================
                                        WARNINGS
                       Please study these warnings very carefully!
================================================================================


WARNING: The frozen-core approximation for MP2-gradient calculations is turned on by default.

WARNING: Geometry Optimization
  ===> : Switching off AutoStart
         For restart on a previous wavefunction, please use MOREAD

WARNING: Post HF methods need fully converged wavefunctions
  ===> : Setting SCFConvForced true
         You can overwrite this default with %scf ConvForced false 


INFO   : the flag for use of LIBINT has been found!

================================================================================
                                       INPUT FILE
================================================================================
NAME = 4acn-opt-gas.inp
|  1> # Functional Basis-set
|  2> ! MP2 Def2-TZVP
|  3> 
|  4> # Type of calculation
|  5> ! OPT
|  6> 
|  7> # Options
|  8> ! TightSCF
|  9> 
| 10> %pal nprocs 24 end
| 11> 
| 12> %maxcore 700
| 13> 
| 14> %geom
| 15> 	Maxiter 200
| 16> end
| 17> 
| 18> *xyz  0  1
| 19>     C     -2.11518077      1.50920664      1.51977203
| 20>     H     -1.51857584      2.38229294      1.68312152
| 21>     H     -3.01730563      1.58175266      2.09056700
| 22>     H     -2.35618110      1.43128102      0.48018291
| 23>     C     -1.32859874      0.26035543      1.95938477
| 24>     N     -0.74295266     -0.66947106      2.28669643
| 25>     C      2.49934875     -0.03300692      1.67736202
| 26>     H      3.54854703      0.10369033      1.83672643
| 27>     H      2.10491300     -0.67906248      2.43362371
| 28>     H      2.00496361      0.91475755      1.72453126
| 29>     C      2.26852479     -0.66398520      0.29165401
| 30>     N      2.09666586     -1.13377721     -0.74006860
| 31>     C      0.39913351      1.37768648     -2.64652216
| 32>     H      0.78730192      0.38064606     -2.65817800
| 33>     H      0.94649389      1.98165587     -3.33971527
| 34>     H     -0.63371819      1.36160495     -2.92555233
| 35>     C      0.53920601      1.96656137     -1.23046917
| 36>     N      0.64349635      2.40500550     -0.17615336
| 37>     C     -0.78330453     -2.85388692     -0.55061089
| 38>     H     -0.43611111     -2.72669614      0.45347048
| 39>     H      0.04738039     -3.06482594     -1.19120935
| 40>     H     -1.47772328     -3.66710043     -0.58756333
| 41>     C     -1.47912619     -1.56293021     -1.02057153
| 42>     N     -1.99719705     -0.60175427     -1.37047859
| 43> *
| 44> 
| 45>                          ****END OF INPUT****
================================================================================

                       *****************************
                       * Geometry Optimization Run *
                       *****************************

Geometry optimization settings:
Update method            Update   .... BFGS
Choice of coordinates    CoordSys .... Z-matrix Internals
Initial Hessian          InHess   .... Almoef's Model

Convergence Tolerances:
Energy Change            TolE     ....  5.0000e-06 Eh
Max. Gradient            TolMAXG  ....  3.0000e-04 Eh/bohr
RMS Gradient             TolRMSG  ....  1.0000e-04 Eh/bohr
Max. Displacement        TolMAXD  ....  4.0000e-03 bohr
RMS Displacement         TolRMSD  ....  2.0000e-03 bohr
Strict Convergence                ....  False
------------------------------------------------------------------------------
                        ORCA OPTIMIZATION COORDINATE SETUP
------------------------------------------------------------------------------

The optimization will be done in new redundant internal coordinates
Making redundant internal coordinates   ...  (new redundants) done
Evaluating the initial hessian          ...  (Almloef) done
Evaluating the coordinates              ...  done
Calculating the B-matrix                .... done
Calculating the G-matrix                .... done
Diagonalizing the G-matrix              .... done
The first mode is                       ....  484
The number of degrees of freedom        ....   66

    -----------------------------------------------------------------
                    Redundant Internal Coordinates


    -----------------------------------------------------------------
         Definition                    Initial Value    Approx d2E/dq
    -----------------------------------------------------------------
      1. B(H   1,C   0)                  1.0700         0.387554   
      2. B(H   2,C   0)                  1.0700         0.387554   
      3. B(H   3,C   0)                  1.0700         0.387554   
      4. B(C   4,C   0)                  1.5400         0.360100   
      5. B(N   5,C   4)                  1.1466         1.368373   
      6. B(C   6,N   5)                  3.3599         0.000403   
      7. B(H   7,C   6)                  1.0700         0.387554   
      8. B(H   8,C   6)                  1.0700         0.387554   
      9. B(H   8,C   4)                  3.5912         0.000037   
     10. B(H   8,N   5)                  2.8517         0.000499   
     11. B(H   9,C   4)                  3.4053         0.000073   
     12. B(H   9,N   5)                  3.2213         0.000128   
     13. B(H   9,C   6)                  1.0700         0.387554   
     14. B(C  10,C   6)                  1.5400         0.360100   
     15. B(N  11,C  10)                  1.1466         1.368373   
     16. B(C  12,N  11)                  3.5810         0.000179   
     17. B(H  13,N  11)                  2.7726         0.000667   
     18. B(H  13,C  10)                  3.4622         0.000059   
     19. B(H  13,C  12)                  1.0700         0.387554   
     20. B(H  14,C  12)                  1.0700         0.387554   
     21. B(H  15,C  12)                  1.0700         0.387554   
     22. B(C  16,H   1)                  3.5911         0.000037   
     23. B(C  16,C  10)                  3.4967         0.000272   
     24. B(C  16,H   9)                  3.4622         0.000059   
     25. B(C  16,C  12)                  1.5400         0.360100   
     26. B(C  16,N  11)                  3.5040         0.000237   
     27. B(C  16,H   3)                  3.4053         0.000073   
     28. B(N  17,C  16)                  1.1466         1.368373   
     29. B(N  17,H   9)                  2.7726         0.000667   
     30. B(N  17,C   6)                  3.5810         0.000179   
     31. B(N  17,C   0)                  3.3599         0.000403   
     32. B(N  17,C  10)                  3.5040         0.000237   
     33. B(N  17,C   4)                  3.6124         0.000159   
     34. B(N  17,H   3)                  3.2213         0.000128   
     35. B(N  17,H   1)                  2.8517         0.000499   
     36. B(C  18,N   5)                  3.5810         0.000179   
     37. B(C  18,N  11)                  3.3599         0.000403   
     38. B(H  19,N  11)                  3.2213         0.000128   
     39. B(H  19,N   5)                  2.7726         0.000667   
     40. B(H  19,C   4)                  3.4622         0.000059   
     41. B(H  19,C  10)                  3.4053         0.000073   
     42. B(H  19,C  18)                  1.0700         0.387554   
     43. B(H  20,N  11)                  2.8517         0.000499   
     44. B(H  20,C  10)                  3.5912         0.000037   
     45. B(H  20,C  18)                  1.0700         0.387554   
     46. B(H  21,C  18)                  1.0700         0.387554   
     47. B(C  22,N   5)                  3.5040         0.000237   
     48. B(C  22,C   4)                  3.4967         0.000272   
     49. B(C  22,H   3)                  3.4622         0.000059   
     50. B(C  22,C  18)                  1.5400         0.360100   
     51. B(C  22,H  15)                  3.5912         0.000037   
     52. B(C  22,H  13)                  3.4053         0.000073   
     53. B(N  23,C   4)                  3.5040         0.000237   
     54. B(N  23,H   3)                  2.7726         0.000667   
     55. B(N  23,C   0)                  3.5810         0.000179   
     56. B(N  23,C  16)                  3.6124         0.000159   
     57. B(N  23,H  15)                  2.8517         0.000499   
     58. B(N  23,C  22)                  1.1466         1.368373   
     59. B(N  23,H  13)                  3.2213         0.000128   
     60. B(N  23,C  12)                  3.3599         0.000403   
     61. A(H   3,C   0,N  17)           73.3777         0.139544   
     62. A(H   2,C   0,N  17)          160.6355         0.139544   
     63. A(N  17,C   0,N  23)           73.9023         0.099187   
     64. A(H   1,C   0,H   3)          109.4713         0.297665   
     65. A(H   1,C   0,C   4)          109.4712         0.326284   
     66. A(H   1,C   0,N  17)           53.2522         0.139544   
     67. A(H   1,C   0,H   2)          109.4713         0.297665   
     68. A(H   3,C   0,C   4)          109.4712         0.326284   
     69. A(H   3,C   0,N  23)           34.9476         0.131056   
     70. A(H   2,C   0,N  23)          119.8875         0.131056   
     71. A(H   1,C   0,N  23)          125.8629         0.131056   
     72. A(C   4,C   0,N  17)           86.6134         0.146476   
     73. A(H   2,C   0,H   3)          109.4712         0.297665   
     74. A(C   4,C   0,N  23)           74.6645         0.136823   
     75. A(H   2,C   0,C   4)          109.4712         0.326284   
     76. A(C   0,C   4,N  17)           68.1999         0.135593   
     77. A(C   0,C   4,C  22)           99.0667         0.142027   
     78. A(N  17,C   4,C  22)           80.1694         0.098156   
     79. A(C   0,C   4,N  23)           80.2579         0.139984   
     80. A(C  22,C   4,N  23)           18.8526         0.099020   
     81. A(N   5,C   4,N  23)           99.7421         0.157403   
     82. A(N   5,C   4,N  17)          111.8001         0.151511   
     83. A(N   5,C   4,C  22)           80.9333         0.160143   
     84. A(N  17,C   4,N  23)           71.8472         0.097804   
     85. A(C   4,N   5,C   6)          106.7086         0.166112   
     86. A(C  18,N   5,C  22)           25.0776         0.098036   
     87. A(C   6,N   5,C  18)           89.0107         0.099187   
     88. A(C   4,N   5,C  18)          105.2328         0.153162   
     89. A(C   6,N   5,C  22)           94.5811         0.099860   
     90. A(C   4,N   5,C  22)           80.2141         0.157403   
     91. A(H   9,C   6,C  10)          109.4712         0.326284   
     92. A(H   8,C   6,C  10)          109.4712         0.326284   
     93. A(N   5,C   6,N  17)           73.9024         0.099187   
     94. A(C  10,C   6,N  17)           74.6647         0.136824   
     95. A(H   9,C   6,N  17)           34.9475         0.131056   
     96. A(H   7,C   6,N  17)          119.8867         0.131056   
     97. A(H   8,C   6,N  17)          125.8637         0.131056   
     98. A(H   7,C   6,H   9)          109.4713         0.297665   
     99. A(N   5,C   6,C  10)           86.6136         0.146476   
    100. A(N   5,C   6,H   9)           73.3768         0.139544   
    101. A(N   5,C   6,H   8)           53.2528         0.139544   
    102. A(H   8,C   6,H   9)          109.4712         0.297665   
    103. A(N   5,C   6,H   7)          160.6358         0.139544   
    104. A(H   7,C   6,C  10)          109.4712         0.326284   
    105. A(H   7,C   6,H   8)          109.4713         0.297665   
    106. A(C   6,C  10,C  16)           99.0665         0.142027   
    107. A(N  11,C  10,C  16)           80.9335         0.160143   
    108. A(C   6,C  10,N  17)           80.2578         0.139984   
    109. A(C  16,C  10,N  17)           18.8526         0.099019   
    110. A(N  11,C  10,N  17)           99.7422         0.157403   
    111. A(C  16,N  11,C  18)           94.5814         0.099860   
    112. A(C  10,N  11,C  18)          106.7082         0.166112   
    113. A(C  12,N  11,C  16)           25.0776         0.098036   
    114. A(C  10,N  11,C  16)           80.2139         0.157403   
    115. A(C  10,N  11,C  12)          105.2326         0.153162   
    116. A(C  12,N  11,C  18)           89.0111         0.099187   
    117. A(H  14,C  12,N  23)          160.6365         0.139544   
    118. A(H  13,C  12,N  23)           73.3758         0.139544   
    119. A(H  14,C  12,H  15)          109.4712         0.297665   
    120. A(H  13,C  12,H  14)          109.4713         0.297665   
    121. A(N  11,C  12,N  23)           73.9021         0.099187   
    122. A(H  15,C  12,N  23)           53.2539         0.139544   
    123. A(N  11,C  12,C  16)           74.6646         0.136823   
    124. A(N  11,C  12,H  15)          125.8645         0.131056   
    125. A(N  11,C  12,H  14)          119.8859         0.131056   
    126. A(N  11,C  12,H  13)           34.9476         0.131056   
    127. A(H  13,C  12,H  15)          109.4713         0.297665   
    128. A(H  15,C  12,C  16)          109.4712         0.326284   
    129. A(H  14,C  12,C  16)          109.4712         0.326284   
    130. A(H  13,C  12,C  16)          109.4712         0.326284   
    131. A(C  16,C  12,N  23)           86.6136         0.146476   
    132. A(N  11,C  16,N  23)           71.8469         0.097804   
    133. A(C  10,C  16,N  11)           18.8526         0.099019   
    134. A(N  11,C  16,N  17)           99.7422         0.157403   
    135. A(N  11,C  16,C  12)           80.2578         0.139984   
    136. A(C  10,C  16,N  23)           80.1691         0.098156   
    137. A(C  10,C  16,N  17)           80.9334         0.160143   
    138. A(C  10,C  16,C  12)           99.0666         0.142027   
    139. A(N  17,C  16,N  23)          111.8002         0.151511   
    140. A(C  12,C  16,N  23)           68.1998         0.135593   
    141. A(C   0,N  17,C   4)           25.1867         0.098925   
    142. A(C   4,N  17,C  16)          105.4809         0.151511   
    143. A(C   6,N  17,C  10)           25.0776         0.098036   
    144. A(C   4,N  17,C  10)           69.7736         0.097804   
    145. A(C   0,N  17,C  10)           94.5813         0.099860   
    146. A(C  10,N  17,C  16)           80.2140         0.157403   
    147. A(C   0,N  17,C  16)          106.7083         0.166112   
    148. A(C   4,N  17,C   6)           64.7061         0.097258   
    149. A(C   0,N  17,C   6)           89.0109         0.099187   
    150. A(C   6,N  17,C  16)          105.2327         0.153162   
    151. A(N   5,C  18,N  11)           73.9025         0.099187   
    152. A(N  11,C  18,C  22)           86.6132         0.146476   
    153. A(N  11,C  18,H  21)          160.6362         0.139544   
    154. A(N  11,C  18,H  20)           53.2530         0.139544   
    155. A(N  11,C  18,H  19)           73.3770         0.139544   
    156. A(H  21,C  18,C  22)          109.4712         0.326284   
    157. A(H  20,C  18,C  22)          109.4712         0.326284   
    158. A(H  19,C  18,C  22)          109.4712         0.326284   
    159. A(N   5,C  18,C  22)           74.6645         0.136824   
    160. A(N   5,C  18,H  21)          119.8865         0.131056   
    161. A(H  20,C  18,H  21)          109.4712         0.297665   
    162. A(N   5,C  18,H  20)          125.8639         0.131056   
    163. A(N   5,C  18,H  19)           34.9476         0.131056   
    164. A(H  19,C  18,H  21)          109.4713         0.297665   
    165. A(H  19,C  18,H  20)          109.4713         0.297665   
    166. A(C   4,C  22,N   5)           18.8526         0.099020   
    167. A(N   5,C  22,N  23)           99.7421         0.157403   
    168. A(N   5,C  22,C  18)           80.2579         0.139984   
    169. A(C   4,C  22,N  23)           80.9334         0.160143   
    170. A(C   4,C  22,C  18)           99.0666         0.142027   
    171. A(C   0,N  23,C  22)          105.2328         0.153162   
    172. A(C   0,N  23,C   4)           25.0776         0.098036   
    173. A(C  12,N  23,C  16)           25.1867         0.098925   
    174. A(C   4,N  23,C  16)           69.7735         0.097804   
    175. A(C   4,N  23,C  22)           80.2140         0.157403   
    176. A(C   0,N  23,C  16)           64.7061         0.097258   
    177. A(C  16,N  23,C  22)          105.4812         0.151511   
    178. A(C   4,N  23,C  12)           94.5813         0.099860   
    179. A(C   0,N  23,C  12)           89.0108         0.099187   
    180. A(C  12,N  23,C  22)          106.7089         0.166113   
    181. D(C  22,C   4,C   0,H   1)   -124.4777         0.013748   
    182. D(N  17,C   4,C   0,H   3)     71.0425         0.013748   
    183. D(C  22,C   4,C   0,N  23)     -1.2908         0.013748   
    184. D(N  23,C   4,C   0,H   2)    116.8131         0.013748   
    185. D(C  22,C   4,C   0,H   3)     -4.4777         0.013748   
    186. D(N  23,C   4,C   0,N  17)    -74.2293         0.013748   
    187. D(N  17,C   4,C   0,H   2)   -168.9575         0.013748   
    188. D(N  17,C   4,C   0,N  23)     74.2293         0.013748   
    189. D(N  23,C   4,C   0,H   1)   -123.1869         0.013748   
    190. D(N  17,C   4,C   0,H   1)    -48.9575         0.013748   
    191. D(N  23,C   4,C   0,H   3)     -3.1868         0.013748   
    192. D(C  22,C   4,C   0,H   2)    115.5223         0.013748   
    193. D(C  22,C   4,C   0,N  17)    -75.5202         0.013748   
    194. D(C  22,N   5,C   0,N  23)     -1.2908         0.001502   
    195. D(C   6,N   5,C   0,H   2)   -152.5953         0.001502   
    196. D(C   6,N   5,C   0,H   1)    -32.5953         0.001502   
    197. D(C  22,N   5,C   4,N  17)    -75.5202         0.318999   
    198. D(C  18,N   5,C   0,N  17)    -77.2531         0.001502   
    199. D(C   6,N   5,C   0,N  17)     16.3622         0.001502   
    200. D(C  22,N   5,C   4,N  23)     -1.2908         0.318999   
    201. D(C   6,N   5,C   4,N  23)     90.5915         0.318999   
    202. D(C   6,N   5,C   4,C  22)     91.8824         0.318999   
    203. D(C   6,N   5,C   4,N  17)     16.3622         0.318999   
    204. D(C  22,N   5,C   0,H   3)     -4.4777         0.001502   
    205. D(C  18,N   5,C   0,N  23)     -3.0238         0.001502   
    206. D(C   6,N   5,C   0,H   3)     87.4047         0.001502   
    207. D(C  18,N   5,C   4,N  23)     -3.0238         0.318999   
    208. D(C  22,N   5,C   0,N  17)    -75.5202         0.001502   
    209. D(C  18,N   5,C   0,H   3)     -6.2107         0.001502   
    210. D(C  18,N   5,C   0,H   1)   -126.2107         0.001502   
    211. D(C  18,N   5,C   4,N  17)    -77.2531         0.318999   
    212. D(C  22,N   5,C   0,H   2)    115.5223         0.001502   
    213. D(C  22,N   5,C   0,H   1)   -124.4777         0.001502   
    214. D(C   6,N   5,C   0,N  23)     90.5915         0.001502   
    215. D(C  18,N   5,C   4,C  22)     -1.7330         0.318999   
    216. D(C  18,N   5,C   0,H   2)    113.7893         0.001502   
    217. D(N  17,C   6,N   5,C   4)    -15.9394         0.001500   
    218. D(C  10,C   6,N   5,C  22)     -9.8060         0.001500   
    219. D(C  10,C   6,N   5,C  18)     14.6670         0.001500   
    220. D(H   8,C   6,N   5,C   4)    151.6058         0.001500   
    221. D(H   7,C   6,N   5,C  22)   -156.8096         0.001500   
    222. D(H   8,C   6,N   5,C  22)   -127.2517         0.001500   
    223. D(H   9,C   6,N   5,C   4)     20.5296         0.001500   
    224. D(H   7,C   6,N   5,C  18)   -132.3366         0.001500   
    225. D(H   9,C   6,N   5,C  18)    126.1451         0.001500   
    226. D(H   8,C   6,N   5,C  18)   -102.7787         0.001500   
    227. D(C  10,C   6,N   5,C   4)    -90.9485         0.001500   
    228. D(H   9,C   6,N   5,C  22)    101.6721         0.001500   
    229. D(N  17,C   6,N   5,C  18)     89.6761         0.001500   
    230. D(N  17,C   6,N   5,C  22)     65.2031         0.001500   
    231. D(H   7,C   6,N   5,C   4)    122.0478         0.001500   
    232. D(C  16,C  10,C   6,N  17)      1.2907         0.013241   
    233. D(N  17,C  10,C   6,H   7)   -116.8123         0.013241   
    234. D(C  16,C  10,C   6,H   9)      4.4784         0.013241   
    235. D(C  16,C  10,C   6,H   8)    124.4784         0.013241   
    236. D(C  16,C  10,C   6,H   7)   -115.5216         0.013241   
    237. D(C  16,C  10,C   6,N   5)     75.5200         0.013241   
    238. D(N  17,C  10,C   6,N   5)     74.2293         0.013241   
    239. D(N  17,C  10,C   6,H   8)    123.1877         0.013241   
    240. D(N  17,C  10,C   6,H   9)      3.1877         0.013241   
    241. D(C  12,N  11,C   6,H   8)    126.2112         0.001502   
    242. D(C  16,N  11,C   6,H   8)    124.4784         0.001502   
    243. D(C  16,N  11,C   6,H   7)   -115.5216         0.001502   
    244. D(C  16,N  11,C   6,N  17)      1.2907         0.001502   
    245. D(C  18,N  11,C   6,H   7)    152.5956         0.001502   
    246. D(C  18,N  11,C   6,H   9)    -87.4044         0.001502   
    247. D(C  18,N  11,C   6,N  17)    -90.5921         0.001502   
    248. D(C  18,N  11,C  10,C  16)    -91.8828         0.306755   
    249. D(C  18,N  11,C  10,N  17)    -90.5921         0.306755   
    250. D(C  12,N  11,C  10,C  16)      1.7328         0.306755   
    251. D(C  18,N  11,C   6,N   5)    -16.3627         0.001502   
    252. D(C  18,N  11,C   6,H   8)     32.5956         0.001502   
    253. D(C  12,N  11,C   6,H   9)      6.2112         0.001502   
    254. D(C  16,N  11,C   6,N   5)     75.5200         0.001502   
    255. D(C  12,N  11,C   6,N  17)      3.0235         0.001502   
    256. D(C  16,N  11,C   6,H   9)      4.4784         0.001502   
    257. D(C  12,N  11,C  10,N  17)      3.0235         0.306755   
    258. D(C  12,N  11,C   6,N   5)     77.2529         0.001502   
    259. D(C  12,N  11,C   6,H   7)   -113.7888         0.001502   
    260. D(C  16,N  11,C  10,N  17)      1.2907         0.306755   
    261. D(H  14,C  12,N  11,C  18)   -153.0267         0.001500   
    262. D(N  23,C  12,N  11,C  10)    -94.9135         0.001500   
    263. D(H  15,C  12,N  11,C  16)   -103.1940         0.001500   
    264. D(H  14,C  12,N  11,C  16)    103.9486         0.001500   
    265. D(H  13,C  12,N  11,C  16)   -174.7473         0.001500   
    266. D(H  13,C  12,N  11,C  18)    -71.7226         0.001500   
    267. D(H  15,C  12,N  11,C  10)   -107.2256         0.001500   
    268. D(H  14,C  12,N  11,C  10)     99.9170         0.001500   
    269. D(H  13,C  12,N  11,C  10)   -178.7789         0.001500   
    270. D(N  23,C  12,N  11,C  18)     12.1428         0.001500   
    271. D(N  23,C  12,N  11,C  16)    -90.8819         0.001500   
    272. D(C  16,C  12,N  11,C  18)    103.0247         0.001500   
    273. D(H  15,C  12,N  11,C  18)     -0.1694         0.001500   
    274. D(C  16,C  12,N  11,C  10)     -4.0316         0.001500   
    275. D(N  11,C  16,C  12,H  15)    123.1886         0.013748   
    276. D(N  11,C  16,C  12,H  13)      3.1886         0.013748   
    277. D(N  23,C  16,C  12,H  13)    -71.0405         0.013748   
    278. D(C  10,C  16,C  12,H  14)   -115.5207         0.013748   
    279. D(N  23,C  16,C  12,N  11)    -74.2291         0.013748   
    280. D(C  10,C  16,C  12,H  15)    124.4793         0.013748   
    281. D(N  23,C  16,C  12,H  14)    168.9595         0.013748   
    282. D(C  10,C  16,N  11,C  18)    106.1920         0.001500   
    283. D(C  10,C  16,N  11,C  12)   -176.0528         0.001500   
    284. D(N  23,C  16,N  11,C  18)     -7.6473         0.001500   
    285. D(C  10,C  16,C  12,N  23)     75.5198         0.013748   
    286. D(N  23,C  16,N  11,C  12)     70.1079         0.001500   
    287. D(N  17,C  16,N  11,C  12)   -180.0000         0.001500   
    288. D(N  11,C  16,C  10,N  17)   -176.0605         0.001500   
    289. D(N  23,C  16,C  10,C   6)   -118.1021         0.001500   
    290. D(N  11,C  16,C  12,H  14)   -116.8114         0.013748   
    291. D(C  12,C  16,C  10,N  11)     -3.9395         0.001500   
    292. D(C  12,C  16,C  10,C   6)    176.0605         0.001500   
    293. D(C  12,C  16,C  10,N  17)    180.0000         0.001500   
    294. D(C  10,C  16,C  12,N  11)      1.2907         0.013748   
    295. D(N  17,C  16,C  10,C   6)     -3.9395         0.001500   
    296. D(N  23,C  16,C  12,H  15)     48.9595         0.013748   
    297. D(N  23,C  16,C  10,N  11)     61.8979         0.001500   
    298. D(C  10,C  16,C  12,H  13)      4.4793         0.013748   
    299. D(N  17,C  16,C  10,N  11)    176.0605         0.001500   
    300. D(C  12,C  16,N  11,C  10)    176.0528         0.001500   
    301. D(N  11,C  16,C  10,C   6)    180.0000         0.001500   
    302. D(C  12,C  16,N  11,C  18)    -77.7552         0.001500   
    303. D(N  23,C  16,N  11,C  10)   -113.8393         0.001500   
    304. D(N  17,C  16,N  11,C  18)    102.2448         0.001500   
    305. D(N  17,C  16,N  11,C  10)     -3.9472         0.001500   
    306. D(N  11,C  16,C  12,N  23)     74.2291         0.013748   
    307. D(N  23,C  16,C  10,N  17)   -114.1626         0.001500   
    308. D(C  10,N  17,C  16,N  11)      1.2907         0.330896   
    309. D(C  10,N  17,C  16,N  23)     75.5198         0.330896   
    310. D(C   6,N  17,C  16,C  10)      1.7328         0.330896   
    311. D(C   6,N  17,C  16,N  23)     77.2527         0.330896   
    312. D(C   4,N  17,C  16,N  11)    -64.3904         0.330896   
    313. D(C   4,N  17,C  16,N  23)      9.8387         0.330896   
    314. D(C   0,N  17,C  16,N  11)    -90.5919         0.330896   
    315. D(C   0,N  17,C  16,C  10)    -91.8826         0.330896   
    316. D(C   0,N  17,C  16,N  23)    -16.3628         0.330896   
    317. D(C  10,N  17,C  12,N  11)      1.2907         0.001503   
    318. D(C  10,N  17,C  12,N  23)     75.5198         0.001503   
    319. D(C  10,N  17,C  12,H  15)    124.4793         0.001503   
    320. D(C  10,N  17,C  12,H  13)      4.4793         0.001503   
    321. D(C   6,N  17,C  12,N  11)      3.0235         0.001503   
    322. D(C   6,N  17,C  12,N  23)     77.2527         0.001503   
    323. D(C   6,N  17,C  12,H  14)   -113.7879         0.001503   
    324. D(C   6,N  17,C  12,H  13)      6.2121         0.001503   
    325. D(C   4,N  17,C  12,N  11)    -64.3904         0.001503   
    326. D(C   4,N  17,C  12,H  15)     58.7982         0.001503   
    327. D(C   4,N  17,C  12,H  14)    178.7981         0.001503   
    328. D(C   4,N  17,C  12,H  13)    -61.2018         0.001503   
    329. D(C   0,N  17,C  12,N  11)    -90.5919         0.001503   
    330. D(C   0,N  17,C  12,N  23)    -16.3628         0.001503   
    331. D(C   0,N  17,C  12,H  15)     32.5967         0.001503   
    332. D(C   0,N  17,C  12,H  14)    152.5967         0.001503   
    333. D(C   6,N  17,C  10,C  16)   -176.0528         0.001500   
    334. D(C   6,N  17,C  10,N  11)   -180.0000         0.001500   
    335. D(C   4,N  17,C  10,C  16)    110.6224         0.001500   
    336. D(C   4,N  17,C  10,C   6)    -73.3248         0.001500   
    337. D(C   0,N  17,C  10,C  16)    106.1921         0.001500   
    338. D(C   0,N  17,C  10,N  11)    102.2449         0.001500   
    339. D(C  10,N  17,C   0,H   2)    156.8079         0.001500   
    340. D(C  10,N  17,C   6,N   5)    -90.8819         0.001500   
    341. D(C  16,N  17,C   4,C   0)    -96.4342         0.001500   
    342. D(C  10,N  17,C   6,H   7)    103.9485         0.001500   
    343. D(C   4,N  17,C   6,N   5)      5.2982         0.001500   
    344. D(C   4,N  17,C   6,H   7)   -159.8714         0.001500   
    345. D(C   0,N  17,C   4,N   5)    180.0000         0.001500   
    346. D(C   0,N  17,C   6,H   8)     -0.1695         0.001500   
    347. D(C   6,N  17,C   4,N  23)   -109.7374         0.001500   
    348. D(C  16,N  17,C   6,H   9)   -178.7803         0.001500   
    349. D(C   0,N  17,C   6,H   9)    -71.7240         0.001500   
    350. D(C  10,N  17,C   4,N   5)     10.4242         0.001500   
    351. D(C  10,N  17,C   4,N  23)    -83.0531         0.001500   
    352. D(C   4,N  17,C   6,H   9)    -78.5686         0.001500   
    353. D(C  10,N  17,C   4,C  22)    -65.5973         0.001500   
    354. D(C  16,N  17,C   6,H   8)   -107.2258         0.001500   
    355. D(C  10,N  17,C   4,C   0)   -169.5758         0.001500   
    356. D(C  16,N  17,C   6,N   5)    -94.9135         0.001500   
    357. D(C   6,N  17,C   4,C  22)    -92.2817         0.001500   
    358. D(C  16,N  17,C   6,C  10)     -4.0316         0.001500   
    359. D(C  16,N  17,C   6,H   7)     99.9169         0.001500   
    360. D(C   6,N  17,C   4,N   5)    -16.2601         0.001500   
    361. D(C   6,N  17,C   4,C   0)    163.7399         0.001500   
    362. D(C   0,N  17,C   4,N  23)     86.5227         0.001500   
    363. D(C   0,N  17,C   4,C  22)    103.9785         0.001500   
    364. D(C   0,N  17,C   6,C  10)    103.0247         0.001500   
    365. D(C   0,N  17,C   6,H   7)   -153.0268         0.001500   
    366. D(C   4,N  17,C  10,N  11)    106.6752         0.001500   
    367. D(C   4,N  17,C   6,H   8)     -7.0141         0.001500   
    368. D(C  16,N  17,C   4,N  23)     -9.9115         0.001500   
    369. D(C  16,N  17,C   4,C  22)      7.5443         0.001500   
    370. D(C   0,N  17,C  12,H  13)    -87.4033         0.001503   
    371. D(C  16,N  17,C   4,N   5)     83.5658         0.001500   
    372. D(C   4,N  17,C   6,C  10)     96.1801         0.001500   
    373. D(C  10,N  17,C   6,H   8)   -103.1942         0.001500   
    374. D(C  10,N  17,C   0,N  23)    -65.2025         0.001500   
    375. D(C  10,N  17,C   6,H   9)   -174.7487         0.001500   
    376. D(C  10,N  17,C   0,C   4)      9.8065         0.001500   
    377. D(C  10,N  17,C   0,H   3)   -101.6716         0.001500   
    378. D(C   4,N  17,C  12,N  23)      9.8387         0.001503   
    379. D(C   0,N  17,C   6,N   5)     12.1428         0.001500   
    380. D(C   0,N  17,C  10,C   6)    -77.7551         0.001500   
    381. D(C  10,N  17,C   0,H   1)    127.2526         0.001500   
    382. D(C   6,N  17,C  12,H  15)    126.2121         0.001503   
    383. D(C   6,N  17,C   0,N  23)    -89.6755         0.001500   
    384. D(C   6,N  17,C   0,C   4)    -14.6665         0.001500   
    385. D(C  16,N  17,C  10,N  11)     -3.9472         0.001500   
    386. D(C  10,N  17,C  12,H  14)   -115.5207         0.001503   
    387. D(C   6,N  17,C   0,H   3)   -126.1446         0.001500   
    388. D(C   6,N  17,C   0,H   2)    132.3349         0.001500   
    389. D(C   4,N  17,C   0,N  23)    -75.0090         0.001500   
    390. D(C   4,N  17,C   0,H   2)    147.0015         0.001500   
    391. D(C   4,N  17,C   0,H   1)    117.4462         0.001500   
    392. D(C  16,N  17,C   0,N  23)     15.9400         0.001500   
    393. D(C   4,N  17,C   0,H   3)   -111.4780         0.001500   
    394. D(C   4,N  17,C  16,C  10)    -65.6811         0.330896   
    395. D(C  16,N  17,C   0,C   4)     90.9490         0.001500   
    396. D(C  16,N  17,C   0,H   3)    -20.5291         0.001500   
    397. D(C  16,N  17,C  10,C   6)    176.0528         0.001500   
    398. D(C   6,N  17,C  16,N  11)      3.0235         0.330896   
    399. D(C  16,N  17,C   0,H   2)   -122.0496         0.001500   
    400. D(C  16,N  17,C   0,H   1)   -151.6049         0.001500   
    401. D(C   6,N  17,C   0,H   1)    102.7796         0.001500   
    402. D(N   5,C  18,N  11,C  16)    -65.2026         0.001500   
    403. D(N   5,C  18,N  11,C  12)    -89.6756         0.001500   
    404. D(N   5,C  18,N  11,C  10)     15.9399         0.001500   
    405. D(C  22,C  18,N  11,C  12)    -14.6665         0.001500   
    406. D(C  22,C  18,N  11,C  10)     90.9490         0.001500   
    407. D(H  21,C  18,N  11,C  16)    156.8094         0.001500   
    408. D(H  21,C  18,N  11,C  12)    132.3364         0.001500   
    409. D(H  21,C  18,N  11,C  10)   -122.0482         0.001500   
    410. D(H  20,C  18,N  11,C  16)    127.2525         0.001500   
    411. D(H  20,C  18,N  11,C  12)    102.7796         0.001500   
    412. D(H  19,C  18,N  11,C  16)   -101.6717         0.001500   
    413. D(H  19,C  18,N  11,C  12)   -126.1447         0.001500   
    414. D(H  19,C  18,N  11,C  10)    -20.5292         0.001500   
    415. D(N  11,C  18,N   5,C   6)    -12.1432         0.001500   
    416. D(N  11,C  18,N   5,C  22)     90.8814         0.001500   
    417. D(N  11,C  18,N   5,C   4)     94.9134         0.001500   
    418. D(H  20,C  18,N  11,C  10)   -151.6050         0.001500   
    419. D(C  22,C  18,N   5,C   6)   -103.0246         0.001500   
    420. D(C  22,C  18,N   5,C   4)      4.0320         0.001500   
    421. D(H  21,C  18,N   5,C   6)    153.0269         0.001500   
    422. D(H  21,C  18,N   5,C  22)   -103.9485         0.001500   
    423. D(H  21,C  18,N   5,C   4)    -99.9165         0.001500   
    424. D(H  20,C  18,N   5,C   6)      0.1695         0.001500   
    425. D(H  20,C  18,N   5,C  22)    103.1941         0.001500   
    426. D(C  22,C  18,N  11,C  16)      9.8065         0.001500   
    427. D(H  20,C  18,N   5,C   4)    107.2260         0.001500   
    428. D(H  19,C  18,N   5,C   6)     71.7239         0.001500   
    429. D(H  19,C  18,N   5,C  22)    174.7485         0.001500   
    430. D(H  19,C  18,N   5,C   4)    178.7804         0.001500   
    431. D(N  23,C  22,C   4,C   0)      3.9399         0.001500   
    432. D(C  18,C  22,C   4,N  17)    118.1022         0.001500   
    433. D(C  18,C  22,C   4,N  23)   -180.0000         0.001500   
    434. D(C  18,C  22,C   4,N   5)      3.9399         0.001500   
    435. D(C  18,C  22,C   4,C   0)   -176.0601         0.001500   
    436. D(N   5,C  22,C  18,N  11)    -74.2296         0.013241   
    437. D(N   5,C  22,C  18,H  21)    116.8121         0.013241   
    438. D(N   5,C  22,C  18,H  20)   -123.1879         0.013241   
    439. D(N   5,C  22,C  18,H  19)     -3.1879         0.013241   
    440. D(C   4,C  22,C  18,N  11)    -75.5204         0.013241   
    441. D(C   4,C  22,C  18,H  21)    115.5213         0.013241   
    442. D(C   4,C  22,C  18,H  20)   -124.4787         0.013241   
    443. D(C   4,C  22,C  18,H  19)     -4.4787         0.013241   
    444. D(C   4,C  22,N   5,C   6)   -106.1925         0.001500   
    445. D(C   4,C  22,N   5,C  18)    176.0524         0.001500   
    446. D(N  23,C  22,N   5,C   6)   -102.2448         0.001500   
    447. D(N  23,C  22,N   5,C  18)    180.0000         0.001500   
    448. D(N  23,C  22,N   5,C   4)      3.9476         0.001500   
    449. D(C  18,C  22,N   5,C   6)     77.7552         0.001500   
    450. D(C   4,C  22,C  18,N   5)     -1.2908         0.013241   
    451. D(C  18,C  22,N   5,C   4)   -176.0524         0.001500   
    452. D(N   5,C  22,C   4,N  17)    114.1623         0.001500   
    453. D(N   5,C  22,C   4,N  23)    176.0601         0.001500   
    454. D(N   5,C  22,C   4,C   0)    180.0000         0.001500   
    455. D(N  23,C  22,C   4,N  17)    -61.8978         0.001500   
    456. D(N  23,C  22,C   4,N   5)   -176.0601         0.001500   
    457. D(C  16,N  23,C  22,N   5)     64.3902         0.318999   
    458. D(C  16,N  23,C  22,C   4)     65.6810         0.318999   
    459. D(C  12,N  23,C  22,N   5)     90.5918         0.318999   
    460. D(C   4,N  23,C  22,N   5)     -1.2908         0.318999   
    461. D(C   0,N  23,C  22,N   5)     -3.0238         0.318999   
    462. D(C   0,N  23,C  22,C   4)     -1.7330         0.318999   
    463. D(C  16,N  23,C  18,N   5)     64.3902         0.001503   
    464. D(C  16,N  23,C  18,H  21)   -178.7977         0.001503   
    465. D(C  16,N  23,C  18,H  20)    -58.7977         0.001503   
    466. D(C  12,N  23,C  18,N  11)     16.3622         0.001503   
    467. D(C  12,N  23,C  18,N   5)     90.5918         0.001503   
    468. D(C  12,N  23,C  18,H  21)   -152.5961         0.001503   
    469. D(C  12,N  23,C  18,H  20)    -32.5961         0.001503   
    470. D(C  12,N  23,C  18,H  19)     87.4039         0.001503   
    471. D(C   4,N  23,C  18,N  11)    -75.5204         0.001503   
    472. D(C   4,N  23,C  18,N   5)     -1.2908         0.001503   
    473. D(C   4,N  23,C  18,H  20)   -124.4787         0.001503   
    474. D(C   4,N  23,C  18,H  19)     -4.4787         0.001503   
    475. D(C   0,N  23,C  18,N  11)    -77.2534         0.001503   
    476. D(C   0,N  23,C  18,H  21)    113.7883         0.001503   
    477. D(C   0,N  23,C  18,H  20)   -126.2117         0.001503   
    478. D(C   0,N  23,C  18,H  19)     -6.2117         0.001503   
    479. D(C  12,N  23,C  16,C  10)   -103.9786         0.001500   
    480. D(C  12,N  23,C  16,N  17)    180.0000         0.001500   
    481. D(C   4,N  23,C  16,N  11)     83.0537         0.001500   
    482. D(C   4,N  23,C  16,C  10)     65.5979         0.001500   
    483. D(C   4,N  23,C  16,N  17)    -10.4236         0.001500   
    484. D(C   4,N  23,C  16,C  12)    169.5764         0.001500   
    485. D(C   0,N  23,C  16,N  11)    109.7380         0.001500   
    486. D(C   0,N  23,C  16,N  17)     16.2608         0.001500   
    487. D(C   0,N  23,C  16,C  12)   -163.7392         0.001500   
    488. D(C  22,N  23,C  16,N  11)      9.9122         0.001500   
    489. D(C  22,N  23,C  16,N  17)    -83.5651         0.001500   
    490. D(C  22,N  23,C  16,C  12)     96.4349         0.001500   
    491. D(C  16,N  23,C  12,N  11)     75.0091         0.001500   
    492. D(C  16,N  23,C  12,H  14)   -147.0061         0.001500   
    493. D(C  16,N  23,C  12,H  13)    111.4783         0.001500   
    494. D(C   4,N  23,C  12,N  11)     65.2032         0.001500   
    495. D(C   4,N  23,C  12,C  16)     -9.8059         0.001500   
    496. D(C   4,N  23,C  12,H  15)   -127.2512         0.001500   
    497. D(C   4,N  23,C  12,H  14)   -156.8120         0.001500   
    498. D(C   4,N  23,C  12,H  13)    101.6724         0.001500   
    499. D(C   0,N  23,C  12,N  11)     89.6762         0.001500   
    500. D(C   0,N  23,C  12,C  16)     14.6671         0.001500   
    501. D(C   0,N  23,C  12,H  15)   -102.7782         0.001500   
    502. D(C   0,N  23,C  12,H  14)   -132.3391         0.001500   
    503. D(C   0,N  23,C  12,H  13)    126.1454         0.001500   
    504. D(C  22,N  23,C  12,N  11)    -15.9394         0.001500   
    505. D(C  22,N  23,C  12,C  16)    -90.9485         0.001500   
    506. D(C  16,N  23,C  12,H  15)   -117.4453         0.001500   
    507. D(C  22,N  23,C  12,H  15)    151.6062         0.001500   
    508. D(C  22,N  23,C  12,H  14)    122.0454         0.001500   
    509. D(C  22,N  23,C  12,H  13)     20.5298         0.001500   
    510. D(C  22,N  23,C  16,C  10)     -7.5436         0.001500   
    511. D(C  16,N  23,C   4,N  17)      3.2167         0.001500   
    512. D(C  16,N  23,C   4,C  22)   -110.6228         0.001500   
    513. D(C  16,N  23,C   4,N   5)   -106.6752         0.001500   
    514. D(C   0,N  23,C  16,C  10)     92.2822         0.001500   
    515. D(C  16,N  23,C   4,C   0)     73.3248         0.001500   
    516. D(C  12,N  23,C   4,N  17)      7.6468         0.001500   
    517. D(C  12,N  23,C   4,C  22)   -106.1928         0.001500   
    518. D(C  12,N  23,C   4,N   5)   -102.2452         0.001500   
    519. D(C  12,N  23,C   4,C   0)     77.7548         0.001500   
    520. D(C   0,N  23,C   4,N  17)    -70.1081         0.001500   
    521. D(C   0,N  23,C   4,C  22)    176.0524         0.001500   
    522. D(C  12,N  23,C  16,N  11)    -86.5228         0.001500   
    523. D(C   0,N  23,C   4,N   5)   -180.0000         0.001500   
    524. D(C  22,N  23,C   4,N  17)    113.8395         0.001500   
    525. D(C  22,N  23,C   4,N   5)      3.9476         0.001500   
    526. D(C   0,N  23,C  18,N   5)     -3.0238         0.001503   
    527. D(C  22,N  23,C   4,C   0)   -176.0524         0.001500   
    528. D(C  16,N  23,C   0,N  17)     -5.2984         0.001500   
    529. D(C  16,N  23,C   0,C   4)    -96.1801         0.001500   
    530. D(C   4,N  23,C  18,H  21)    115.5213         0.001503   
    531. D(C  16,N  23,C   0,H   3)     78.5700         0.001500   
    532. D(C  16,N  23,C   0,H   2)    159.8715         0.001500   
    533. D(C  16,N  23,C   0,H   1)      7.0140         0.001500   
    534. D(C  12,N  23,C   0,N  17)    -12.1433         0.001500   
    535. D(C  12,N  23,C   0,C   4)   -103.0250         0.001500   
    536. D(C  12,N  23,C   0,H   3)     71.7252         0.001500   
    537. D(C  12,N  23,C   0,H   2)    153.0267         0.001500   
    538. D(C  16,N  23,C  18,H  19)     61.2023         0.001503   
    539. D(C  12,N  23,C   0,H   1)      0.1692         0.001500   
    540. D(C   4,N  23,C   0,N  17)     90.8817         0.001500   
    541. D(C   4,N  23,C   0,H   3)    174.7502         0.001500   
    542. D(C  16,N  23,C  18,N  11)     -9.8393         0.001503   
    543. D(C   4,N  23,C   0,H   2)   -103.9483         0.001500   
    544. D(C   4,N  23,C   0,H   1)    103.1941         0.001500   
    545. D(C  22,N  23,C   0,N  17)     94.9137         0.001500   
    546. D(C  12,N  23,C  22,C   4)     91.8826         0.318999   
    547. D(C  22,N  23,C   0,C   4)      4.0320         0.001500   
    548. D(C  22,N  23,C   0,H   3)    178.7821         0.001500   
    549. D(C  22,N  23,C   0,H   2)    -99.9164         0.001500   
    550. D(C  22,N  23,C   0,H   1)    107.2261         0.001500   
    -----------------------------------------------------------------

Number of atoms                         .... 24
Number of degrees of freedom            .... 550

         *************************************************************
         *                GEOMETRY OPTIMIZATION CYCLE   1            *
         *************************************************************
---------------------------------
CARTESIAN COORDINATES (ANGSTROEM)
---------------------------------
  C     -2.115181    1.509207    1.519772
  H     -1.518576    2.382293    1.683122
  H     -3.017306    1.581753    2.090567
  H     -2.356181    1.431281    0.480183
  C     -1.328599    0.260355    1.959385
  N     -0.742953   -0.669471    2.286696
  C      2.499349   -0.033007    1.677362
  H      3.548547    0.103690    1.836726
  H      2.104913   -0.679062    2.433624
  H      2.004964    0.914758    1.724531
  C      2.268525   -0.663985    0.291654
  N      2.096666   -1.133777   -0.740069
  C      0.399134    1.377686   -2.646522
  H      0.787302    0.380646   -2.658178
  H      0.946494    1.981656   -3.339715
  H     -0.633718    1.361605   -2.925552
  C      0.539206    1.966561   -1.230469
  N      0.643496    2.405005   -0.176153
  C     -0.783305   -2.853887   -0.550611
  H     -0.436111   -2.726696    0.453470
  H      0.047380   -3.064826   -1.191209
  H     -1.477723   -3.667100   -0.587563
  C     -1.479126   -1.562930   -1.020572
  N     -1.997197   -0.601754   -1.370479

----------------------------
CARTESIAN COORDINATES (A.U.)
----------------------------
  NO LB      ZA    FRAG     MASS         X           Y           Z
   0 C     6.0000    0    12.011   -3.997112    2.851987    2.871953
   1 H     1.0000    0     1.008   -2.869692    4.501881    3.180639
   2 H     1.0000    0     1.008   -5.701881    2.989079    3.950599
   3 H     1.0000    0     1.008   -4.452537    2.704729    0.907414
   4 C     6.0000    0    12.011   -2.510688    0.492000    3.702701
   5 N     7.0000    0    14.007   -1.403977   -1.265117    4.321230
   6 C     6.0000    0    12.011    4.723085   -0.062374    3.169755
   7 H     1.0000    0     1.008    6.705782    0.195946    3.470910
   8 H     1.0000    0     1.008    3.977709   -1.283242    4.598882
   9 H     1.0000    0     1.008    3.788832    1.728641    3.258892
  10 C     6.0000    0    12.011    4.286891   -1.254750    0.551146
  11 N     7.0000    0    14.007    3.962124   -2.142528   -1.398527
  12 C     6.0000    0    12.011    0.754253    2.603450   -5.001202
  13 H     1.0000    0     1.008    1.487785    0.719317   -5.023228
  14 H     1.0000    0     1.008    1.788614    3.744787   -6.311147
  15 H     1.0000    0     1.008   -1.197554    2.573060   -5.528493
  16 C     6.0000    0    12.011    1.018952    3.716262   -2.325250
  17 N     7.0000    0    14.007    1.216032    4.544802   -0.332882
  18 C     6.0000    0    12.011   -1.480231   -5.393065   -1.040504
  19 H     1.0000    0     1.008   -0.824131   -5.152709    0.856935
  20 H     1.0000    0     1.008    0.089536   -5.791682   -2.251059
  21 H     1.0000    0     1.008   -2.792492   -6.929816   -1.110334
  22 C     6.0000    0    12.011   -2.795143   -2.953510   -1.928601
  23 N     7.0000    0    14.007   -3.774155   -1.137151   -2.589829

--------------------------------
INTERNAL COORDINATES (ANGSTROEM)
--------------------------------
 C      0   0   0     0.000000000000     0.00000000     0.00000000
 H      1   0   0     1.070000086744     0.00000000     0.00000000
 H      1   2   0     1.069999572815   109.47126966     0.00000000
 H      1   2   3     1.069999579315   109.47126918   120.00006068
 C      1   2   3     1.539999998639   109.47118145   240.00003006
 N      5   1   2     1.146599997949   179.99999809     0.00000000
 C      6   5   1     3.359894858177   106.70860301     0.00000000
 H      7   6   5     1.070000086022   160.63580039   122.04781952
 H      7   6   5     1.069999575349    53.25281210   151.60575800
 H      7   6   5     1.069999576845    73.37679746    20.52959609
 C      7   6   5     1.539999993286    86.61363261   269.05146474
 N     11   7   6     1.146600003692   179.99999852     0.00000000
 C     12  11   7     3.581009790816   105.23263466     0.00000000
 H     13  12  11     1.070000080487    34.94759632   181.22110047
 H     13  12  11     1.069999578225   119.88586927    99.91703414
 H     13  12  11     1.069999572696   125.86453643   252.77436589
 C     13  12  11     1.540000003837    74.66462713   355.96841456
 N     17  13  12     1.146599998851   180.00000000     0.00000000
 C     12  11   7     3.359895993270   106.70823978     0.00000000
 H     19  12  11     1.070000076163    73.37700202   339.47075628
 H     19  12  11     1.069999576368    53.25304581   208.39501546
 H     19  12  11     1.069999577579   160.63617015   237.95184996
 C     19  12  11     1.540000004146    86.61315974    90.94900241
 N     23  19  12     1.146599997494   179.99999915     0.00000000

---------------------------
INTERNAL COORDINATES (A.U.)
---------------------------
 C      0   0   0     0.000000000000     0.00000000     0.00000000
 H      1   0   0     2.022007127217     0.00000000     0.00000000
 H      1   2   0     2.022006156034   109.47126966     0.00000000
 H      1   2   3     2.022006168317   109.47126918   120.00006068
 C      1   2   3     2.910178243667   109.47118145   240.00003006
 N      5   1   2     2.166759981279   179.99999809     0.00000000
 C      6   5   1     6.349281120725   106.70860301     0.00000000
 H      7   6   5     2.022007125854   160.63580039   122.04781952
 H      7   6   5     2.022006160821    53.25281210   151.60575800
 H      7   6   5     2.022006163649    73.37679746    20.52959609
 C      7   6   5     2.910178233551    86.61363261   269.05146474
 N     11   7   6     2.166759992130   179.99999852     0.00000000
 C     12  11   7     6.767127787533   105.23263466     0.00000000
 H     13  12  11     2.022007115394    34.94759632   181.22110047
 H     13  12  11     2.022006166257   119.88586927    99.91703414
 H     13  12  11     2.022006155809   125.86453643   252.77436589
 C     13  12  11     2.910178253489    74.66462713   355.96841456
 N     17  13  12     2.166759982982   180.00000000     0.00000000
 C     12  11   7     6.349283265740   106.70823978     0.00000000
 H     19  12  11     2.022007107223    73.37700202   339.47075628
 H     19  12  11     2.022006162748    53.25304581   208.39501546
 H     19  12  11     2.022006165036   160.63617015   237.95184996
 C     19  12  11     2.910178254073    86.61315974    90.94900241
 N     23  19  12     2.166759980419   179.99999915     0.00000000

---------------------
BASIS SET INFORMATION
---------------------
There are 3 groups of distinct atoms

 Group   1 Type C   : 11s6p2d1f contracted to 5s3p2d1f pattern {62111/411/11/1}
 Group   2 Type H   : 5s1p contracted to 3s1p pattern {311/1}
 Group   3 Type N   : 11s6p2d1f contracted to 5s3p2d1f pattern {62111/411/11/1}

Atom   0C    basis set group =>   1
Atom   1H    basis set group =>   2
Atom   2H    basis set group =>   2
Atom   3H    basis set group =>   2
Atom   4C    basis set group =>   1
Atom   5N    basis set group =>   3
Atom   6C    basis set group =>   1
Atom   7H    basis set group =>   2
Atom   8H    basis set group =>   2
Atom   9H    basis set group =>   2
Atom  10C    basis set group =>   1
Atom  11N    basis set group =>   3
Atom  12C    basis set group =>   1
Atom  13H    basis set group =>   2
Atom  14H    basis set group =>   2
Atom  15H    basis set group =>   2
Atom  16C    basis set group =>   1
Atom  17N    basis set group =>   3
Atom  18C    basis set group =>   1
Atom  19H    basis set group =>   2
Atom  20H    basis set group =>   2
Atom  21H    basis set group =>   2
Atom  22C    basis set group =>   1
Atom  23N    basis set group =>   3


           ************************************************************
           *        Program running with 24 parallel MPI-processes    *
           *              working on a common directory               *
           ************************************************************
------------------------------------------------------------------------------
                           ORCA GTO INTEGRAL CALCULATION
------------------------------------------------------------------------------

                         BASIS SET STATISTICS AND STARTUP INFO

 # of primitive gaussian shells          ...  312
 # of primitive gaussian functions       ...  648
 # of contracted shells                  ...  180
 # of contracted basis functions         ...  444
 Highest angular momentum                ...    3
 Maximum contraction depth               ...    6
 Integral package used                   ... LIBINT
 Integral threshhold            Thresh   ...  2.500e-11
 Primitive cut-off              TCut     ...  2.500e-12


------------------------------ INTEGRAL EVALUATION ----------------------------


 * One electron integrals 
 Pre-screening matrix                    ... done
 Shell pair data                         ... done (   0.004 sec)



           ************************************************************
           *        Program running with 24 parallel MPI-processes    *
           *              working on a common directory               *
           ************************************************************
-------------------------------------------------------------------------------
                                 ORCA SCF
-------------------------------------------------------------------------------

------------
SCF SETTINGS
------------
Hamiltonian:
 Ab initio Hamiltonian  Method          .... Hartree-Fock(GTOs)


General Settings:
 Integral files         IntName         .... 4acn-opt-gas
 Hartree-Fock type      HFTyp           .... RHF
 Total Charge           Charge          ....    0
 Multiplicity           Mult            ....    1
 Number of Electrons    NEL             ....   88
 Basis Dimension        Dim             ....  444
 Nuclear Repulsion      ENuc            ....    599.8282901018 Eh

Convergence Acceleration:
 DIIS                   CNVDIIS         .... on
   Start iteration      DIISMaxIt       ....    12
   Startup error        DIISStart       ....  0.200000
   # of expansion vecs  DIISMaxEq       ....     5
   Bias factor          DIISBfac        ....   1.050
   Max. coefficient     DIISMaxC        ....  10.000
 Newton-Raphson         CNVNR           .... off
 SOSCF                  CNVSOSCF        .... on
   Start iteration      SOSCFMaxIt      ....   150
   Startup grad/error   SOSCFStart      ....  0.003300
 Level Shifting         CNVShift        .... on
   Level shift para.    LevelShift      ....    0.2500
   Turn off err/grad.   ShiftErr        ....    0.0010
 Zerner damping         CNVZerner       .... off
 Static damping         CNVDamp         .... on
   Fraction old density DampFac         ....    0.7000
   Max. Damping (<1)    DampMax         ....    0.9800
   Min. Damping (>=0)   DampMin         ....    0.0000
   Turn off err/grad.   DampErr         ....    0.1000
 Fernandez-Rico         CNVRico         .... off

SCF Procedure:
 Maximum # iterations   MaxIter         ....   125
 SCF integral mode      SCFMode         .... Direct
   Integral package                     .... LIBINT
 Reset frequency        DirectResetFreq ....    20
 Integral Threshold     Thresh          ....  2.500e-11 Eh
 Primitive CutOff       TCut            ....  2.500e-12 Eh

Convergence Tolerance:
 Convergence Check Mode ConvCheckMode   .... Total+1el-Energy
 Convergence forced     ConvForced      .... 1
 Energy Change          TolE            ....  1.000e-08 Eh
 1-El. energy change                    ....  1.000e-05 Eh
 Orbital Gradient       TolG            ....  1.000e-05
 Orbital Rotation angle TolX            ....  1.000e-05
 DIIS Error             TolErr          ....  5.000e-07


Diagonalization of the overlap matrix:
Smallest eigenvalue                        ... 2.156e-04
Time for diagonalization                   ...    0.061 sec
Threshold for overlap eigenvalues          ... 1.000e-08
Number of eigenvalues below threshold      ... 0
Time for construction of square roots      ...    0.047 sec
Total time needed                          ...    0.109 sec

-------------------
DFT GRID GENERATION
-------------------

General Integration Accuracy     IntAcc      ...  4.340
Radial Grid Type                 RadialGrid  ... Gauss-Chebyshev
Angular Grid (max. acc.)         AngularGrid ... Lebedev-110
Angular grid pruning method      GridPruning ... 3 (G Style)
Weight generation scheme         WeightScheme... Becke
Basis function cutoff            BFCut       ...    1.0000e-11
Integration weight cutoff        WCut        ...    1.0000e-14
Grids for H and He will be reduced by one unit

# of grid points (after initial pruning)     ...  29584 (   0.0 sec)
# of grid points (after weights+screening)   ...  27210 (   0.0 sec)
nearest neighbour list constructed           ...    0.0 sec
Grid point re-assignment to atoms done       ...    0.0 sec
Grid point division into batches done        ...    0.0 sec
Reduced shell lists constructed in    0.0 sec

Total number of grid points                  ...    27210
Total number of batches                      ...      438
Average number of points per batch           ...       62
Average number of grid points per atom       ...     1134
Average number of shells per batch           ...    86.55 (48.08%)
Average number of basis functions per batch  ...   204.95 (46.16%)
Average number of large shells per batch     ...    59.40 (68.63%)
Average number of large basis fcns per batch ...   134.90 (65.82%)
Maximum spatial batch extension              ...  15.79, 14.02, 17.29 au
Average spatial batch extension              ...   0.15,  0.16,  0.18 au

Time for grid setup =    0.074 sec

------------------------------
INITIAL GUESS: MODEL POTENTIAL
------------------------------
Loading Hartree-Fock densities                     ... done
Calculating cut-offs                               ... done
Setting up the integral package                    ... done
Initializing the effective Hamiltonian             ... done
Starting the Coulomb interaction                   ... done (   0.0 sec)
Reading the grid                                   ... done
Mapping shells                                     ... done
Starting the XC term evaluation                    ... done (   0.0 sec)
Transforming the Hamiltonian                       ... done (   0.0 sec)
Diagonalizing the Hamiltonian                      ... done (   0.1 sec)
Back transforming the eigenvectors                 ... done (   0.0 sec)
Now organizing SCF variables                       ... done
                      ------------------
                      INITIAL GUESS DONE (   0.3 sec)
                      ------------------
--------------
SCF ITERATIONS
--------------
ITER       Energy         Delta-E        Max-DP      RMS-DP      [F,P]     Damp
               ***  Starting incremental Fock matrix formation  ***
  0   -527.2842894125   0.000000000000 0.03674391  0.00069719  0.2778230 0.7000
  1   -527.5106375237  -0.226348111242 0.02625922  0.00054361  0.1869062 0.7000
                               ***Turning on DIIS***
  2   -527.6431824203  -0.132544896623 0.01575022  0.00036844  0.1412821 0.7000
  3   -528.8964758084  -1.253293388085 0.00950704  0.00025001  0.1050093 0.7000
  4   -528.8238703099   0.072605498522 0.02337463  0.00060706  0.0741098 0.0000
  5   -527.9531550344   0.870715275473 0.00360734  0.00007928  0.0056166 0.0000
                      *** Initiating the SOSCF procedure ***
                           *** Shutting down DIIS ***
                      *** Re-Reading the Fockian *** 
                      *** Removing any level shift *** 
ITER      Energy       Delta-E        Grad      Rot      Max-DP    RMS-DP
  6   -527.92391947   0.0292355633  0.001177  0.001177  0.002546  0.000047
               *** Restarting incremental Fock matrix formation ***
  7   -527.91610440   0.0078150706  0.000393  0.000608  0.001680  0.000033
  8   -527.91612672  -0.0000223165  0.000233  0.000479  0.001367  0.000027
  9   -527.91613160  -0.0000048802  0.000104  0.000126  0.000422  0.000007
 10   -527.91613227  -0.0000006765  0.000009  0.000012  0.000041  0.000001
 11   -527.91613228  -0.0000000088  0.000004  0.000013  0.000017  0.000000
                  ***Gradient check signals convergence***
              ***Rediagonalizing the Fockian in SOSCF/NRSCF***

               *****************************************************
               *                     SUCCESS                       *
               *           SCF CONVERGED AFTER  12 CYCLES          *
               *****************************************************


----------------
TOTAL SCF ENERGY
----------------

Total Energy       :         -527.91613228 Eh          -14365.32828 eV

Components:
Nuclear Repulsion  :          599.82829010 Eh           16322.15758 eV
Electronic Energy  :        -1127.74442238 Eh          -30687.48585 eV
One Electron Energy:        -1905.71620666 Eh          -51857.17435 eV
Two Electron Energy:          777.97178428 Eh           21169.68850 eV

Virial components:
Potential Energy   :        -1054.99343064 Eh          -28707.83073 eV
Kinetic Energy     :          527.07729836 Eh           14342.50245 eV
Virial Ratio       :            2.00159148


---------------
SCF CONVERGENCE
---------------

  Last Energy change         ...    4.8487e-09  Tolerance :   1.0000e-08
  Last MAX-Density change    ...    5.1268e-06  Tolerance :   1.0000e-07
  Last RMS-Density change    ...    8.7507e-08  Tolerance :   5.0000e-09
  Last Orbital Gradient      ...    2.0102e-06  Tolerance :   1.0000e-05
  Last Orbital Rotation      ...    3.6419e-06  Tolerance :   1.0000e-05

             **** THE GBW FILE WAS UPDATED (4acn-opt-gas.gbw) ****
             **** DENSITY FILE WAS UPDATED (4acn-opt-gas.scfp) ****
             **** ENERGY FILE WAS UPDATED (4acn-opt-gas.en.tmp) ****
             **** THE GBW FILE WAS UPDATED (4acn-opt-gas.gbw) ****
             **** DENSITY FILE WAS UPDATED (4acn-opt-gas.scfp) ****
----------------
ORBITAL ENERGIES
----------------

  NO   OCC          E(Eh)            E(eV) 
   0   2.0000     -15.561528      -423.4507 
   1   2.0000     -15.561528      -423.4507 
   2   2.0000     -15.561527      -423.4507 
   3   2.0000     -15.561526      -423.4507 
   4   2.0000     -11.276407      -306.8466 
   5   2.0000     -11.276407      -306.8466 
   6   2.0000     -11.276407      -306.8466 
   7   2.0000     -11.276406      -306.8466 
   8   2.0000     -11.266976      -306.5900 
   9   2.0000     -11.266976      -306.5900 
  10   2.0000     -11.266976      -306.5900 
  11   2.0000     -11.266976      -306.5900 
  12   2.0000      -1.221721       -33.2447 
  13   2.0000      -1.219879       -33.1946 
  14   2.0000      -1.218402       -33.1544 
  15   2.0000      -1.218402       -33.1544 
  16   2.0000      -1.014353       -27.6019 
  17   2.0000      -1.014353       -27.6019 
  18   2.0000      -1.013826       -27.5876 
  19   2.0000      -1.012384       -27.5484 
  20   2.0000      -0.675056       -18.3692 
  21   2.0000      -0.673849       -18.3364 
  22   2.0000      -0.672258       -18.2931 
  23   2.0000      -0.672258       -18.2931 
  24   2.0000      -0.621469       -16.9110 
  25   2.0000      -0.618303       -16.8249 
  26   2.0000      -0.615628       -16.7521 
  27   2.0000      -0.615106       -16.7379 
  28   2.0000      -0.615106       -16.7379 
  29   2.0000      -0.610070       -16.6009 
  30   2.0000      -0.607707       -16.5365 
  31   2.0000      -0.607707       -16.5365 
  32   2.0000      -0.552546       -15.0355 
  33   2.0000      -0.552546       -15.0355 
  34   2.0000      -0.551962       -15.0197 
  35   2.0000      -0.550296       -14.9743 
  36   2.0000      -0.472940       -12.8694 
  37   2.0000      -0.470003       -12.7894 
  38   2.0000      -0.465716       -12.6728 
  39   2.0000      -0.465095       -12.6559 
  40   2.0000      -0.465095       -12.6559 
  41   2.0000      -0.464329       -12.6350 
  42   2.0000      -0.459134       -12.4937 
  43   2.0000      -0.459134       -12.4937 
  44   0.0000       0.128933         3.5085 
  45   0.0000       0.153161         4.1677 
  46   0.0000       0.153161         4.1677 
  47   0.0000       0.158907         4.3241 
  48   0.0000       0.180280         4.9057 
  49   0.0000       0.180611         4.9147 
  50   0.0000       0.188169         5.1204 
  51   0.0000       0.188170         5.1204 
  52   0.0000       0.198546         5.4027 
  53   0.0000       0.199233         5.4214 
  54   0.0000       0.200685         5.4609 
  55   0.0000       0.200685         5.4609 
  56   0.0000       0.210746         5.7347 
  57   0.0000       0.217689         5.9236 
  58   0.0000       0.217689         5.9236 
  59   0.0000       0.225416         6.1339 
  60   0.0000       0.227814         6.1991 
  61   0.0000       0.235443         6.4067 
  62   0.0000       0.249117         6.7788 
  63   0.0000       0.249118         6.7788 
  64   0.0000       0.253515         6.8985 
  65   0.0000       0.276012         7.5107 
  66   0.0000       0.276013         7.5107 
  67   0.0000       0.278029         7.5656 
  68   0.0000       0.294191         8.0053 
  69   0.0000       0.294191         8.0054 
  70   0.0000       0.315272         8.5790 
  71   0.0000       0.315506         8.5853 
  72   0.0000       0.329302         8.9608 
  73   0.0000       0.338383         9.2079 
  74   0.0000       0.345022         9.3885 
  75   0.0000       0.345022         9.3885 
  76   0.0000       0.357019         9.7150 
  77   0.0000       0.377611        10.2753 
  78   0.0000       0.381435        10.3794 
  79   0.0000       0.390247        10.6192 
  80   0.0000       0.390248        10.6192 
  81   0.0000       0.434939        11.8353 
  82   0.0000       0.444219        12.0878 
  83   0.0000       0.444220        12.0878 
  84   0.0000       0.474524        12.9124 
  85   0.0000       0.483593        13.1592 
  86   0.0000       0.487388        13.2625 
  87   0.0000       0.487388        13.2625 
  88   0.0000       0.495513        13.4836 
  89   0.0000       0.506562        13.7842 
  90   0.0000       0.506562        13.7843 
  91   0.0000       0.514413        13.9979 
  92   0.0000       0.520098        14.1526 
  93   0.0000       0.540191        14.6993 
  94   0.0000       0.540191        14.6993 
  95   0.0000       0.558693        15.2028 
  96   0.0000       0.561038        15.2666 
  97   0.0000       0.566768        15.4226 
  98   0.0000       0.588334        16.0094 
  99   0.0000       0.588335        16.0094 
 100   0.0000       0.611487        16.6394 
 101   0.0000       0.615055        16.7365 
 102   0.0000       0.615056        16.7365 
 103   0.0000       0.629300        17.1241 
 104   0.0000       0.643413        17.5081 
 105   0.0000       0.650827        17.7099 
 106   0.0000       0.650827        17.7099 
 107   0.0000       0.656007        17.8509 
 108   0.0000       0.667050        18.1513 
 109   0.0000       0.667050        18.1514 
 110   0.0000       0.677251        18.4289 
 111   0.0000       0.689129        18.7521 
 112   0.0000       0.692211        18.8360 
 113   0.0000       0.728751        19.8303 
 114   0.0000       0.733416        19.9573 
 115   0.0000       0.736595        20.0438 
 116   0.0000       0.736596        20.0438 
 117   0.0000       0.749526        20.3956 
 118   0.0000       0.749527        20.3957 
 119   0.0000       0.758596        20.6425 
 120   0.0000       0.763354        20.7719 
 121   0.0000       0.777785        21.1646 
 122   0.0000       0.811853        22.0916 
 123   0.0000       0.824086        22.4245 
 124   0.0000       0.836232        22.7550 
 125   0.0000       0.836233        22.7550 
 126   0.0000       0.857073        23.3222 
 127   0.0000       0.857075        23.3222 
 128   0.0000       0.874985        23.8096 
 129   0.0000       0.900123        24.4936 
 130   0.0000       0.900125        24.4936 
 131   0.0000       0.906296        24.6616 
 132   0.0000       0.917554        24.9679 
 133   0.0000       0.917555        24.9679 
 134   0.0000       0.922323        25.0977 
 135   0.0000       0.924734        25.1633 
 136   0.0000       0.934058        25.4170 
 137   0.0000       0.941794        25.6275 
 138   0.0000       0.950187        25.8559 
 139   0.0000       0.950188        25.8559 
 140   0.0000       0.958722        26.0881 
 141   0.0000       1.033724        28.1291 
 142   0.0000       1.069623        29.1059 
 143   0.0000       1.071495        29.1569 
 144   0.0000       1.071496        29.1569 
 145   0.0000       1.078984        29.3606 
 146   0.0000       1.103001        30.0142 
 147   0.0000       1.103002        30.0142 
 148   0.0000       1.147155        31.2157 
 149   0.0000       1.148441        31.2507 
 150   0.0000       1.152959        31.3736 
 151   0.0000       1.152960        31.3736 
 152   0.0000       1.203755        32.7558 
 153   0.0000       1.206071        32.8189 
 154   0.0000       1.206072        32.8189 
 155   0.0000       1.239237        33.7214 
 156   0.0000       1.312350        35.7109 
 157   0.0000       1.312350        35.7109 
 158   0.0000       1.316615        35.8269 
 159   0.0000       1.321520        35.9604 
 160   0.0000       1.395818        37.9821 
 161   0.0000       1.395818        37.9821 
 162   0.0000       1.408905        38.3382 
 163   0.0000       1.408905        38.3382 
 164   0.0000       1.414517        38.4910 
 165   0.0000       1.419860        38.6364 
 166   0.0000       1.445022        39.3211 
 167   0.0000       1.450258        39.4635 
 168   0.0000       1.453418        39.5495 
 169   0.0000       1.453418        39.5495 
 170   0.0000       1.474853        40.1328 
 171   0.0000       1.479368        40.2556 
 172   0.0000       1.502310        40.8799 
 173   0.0000       1.503295        40.9067 
 174   0.0000       1.503296        40.9068 
 175   0.0000       1.505106        40.9560 
 176   0.0000       1.523778        41.4641 
 177   0.0000       1.545258        42.0486 
 178   0.0000       1.545260        42.0487 
 179   0.0000       1.556200        42.3464 
 180   0.0000       1.621532        44.1241 
 181   0.0000       1.640292        44.6346 
 182   0.0000       1.653849        45.0035 
 183   0.0000       1.653851        45.0036 
 184   0.0000       1.731926        47.1281 
 185   0.0000       1.732924        47.1553 
 186   0.0000       1.737440        47.2781 
 187   0.0000       1.737441        47.2782 
 188   0.0000       1.775617        48.3170 
 189   0.0000       1.781264        48.4707 
 190   0.0000       1.781264        48.4707 
 191   0.0000       1.789511        48.6951 
 192   0.0000       1.793304        48.7983 
 193   0.0000       1.803530        49.0765 
 194   0.0000       1.810889        49.2768 
 195   0.0000       1.810889        49.2768 
 196   0.0000       1.827689        49.7339 
 197   0.0000       1.835359        49.9427 
 198   0.0000       1.835360        49.9427 
 199   0.0000       1.837580        50.0031 
 200   0.0000       1.845026        50.2057 
 201   0.0000       1.861168        50.6449 
 202   0.0000       1.861168        50.6450 
 203   0.0000       1.872953        50.9656 
 204   0.0000       1.886330        51.3296 
 205   0.0000       1.907164        51.8966 
 206   0.0000       1.907164        51.8966 
 207   0.0000       1.937582        52.7243 
 208   0.0000       1.962177        53.3935 
 209   0.0000       1.962177        53.3936 
 210   0.0000       1.971403        53.6446 
 211   0.0000       1.988626        54.1133 
 212   0.0000       1.988627        54.1133 
 213   0.0000       1.992216        54.2109 
 214   0.0000       2.012584        54.7652 
 215   0.0000       2.045093        55.6498 
 216   0.0000       2.059507        56.0420 
 217   0.0000       2.090303        56.8800 
 218   0.0000       2.090304        56.8801 
 219   0.0000       2.097166        57.0668 
 220   0.0000       2.239575        60.9419 
 221   0.0000       2.246220        61.1228 
 222   0.0000       2.246944        61.1424 
 223   0.0000       2.246944        61.1425 
 224   0.0000       2.263158        61.5836 
 225   0.0000       2.272597        61.8405 
 226   0.0000       2.279713        62.0342 
 227   0.0000       2.279714        62.0342 
 228   0.0000       2.281000        62.0692 
 229   0.0000       2.289259        62.2939 
 230   0.0000       2.332895        63.4813 
 231   0.0000       2.332896        63.4813 
 232   0.0000       2.369082        64.4660 
 233   0.0000       2.384324        64.8807 
 234   0.0000       2.408099        65.5277 
 235   0.0000       2.408101        65.5278 
 236   0.0000       2.551007        69.4164 
 237   0.0000       2.552219        69.4494 
 238   0.0000       2.555595        69.5413 
 239   0.0000       2.555596        69.5413 
 240   0.0000       2.563145        69.7467 
 241   0.0000       2.582043        70.2610 
 242   0.0000       2.582045        70.2610 
 243   0.0000       2.582852        70.2830 
 244   0.0000       2.612705        71.0953 
 245   0.0000       2.616624        71.2020 
 246   0.0000       2.617909        71.2369 
 247   0.0000       2.617910        71.2369 
 248   0.0000       2.630630        71.5831 
 249   0.0000       2.655342        72.2555 
 250   0.0000       2.672713        72.7282 
 251   0.0000       2.672714        72.7282 
 252   0.0000       2.684783        73.0567 
 253   0.0000       2.693418        73.2916 
 254   0.0000       2.706674        73.6523 
 255   0.0000       2.706674        73.6523 
 256   0.0000       2.723900        74.1211 
 257   0.0000       2.735028        74.4239 
 258   0.0000       2.773937        75.4827 
 259   0.0000       2.773938        75.4827 
 260   0.0000       2.793018        76.0019 
 261   0.0000       2.803078        76.2756 
 262   0.0000       2.818090        76.6841 
 263   0.0000       2.824460        76.8575 
 264   0.0000       2.824461        76.8575 
 265   0.0000       2.847360        77.4806 
 266   0.0000       2.862284        77.8867 
 267   0.0000       2.862285        77.8867 
 268   0.0000       2.933732        79.8309 
 269   0.0000       2.934897        79.8626 
 270   0.0000       2.934897        79.8626 
 271   0.0000       2.935720        79.8850 
 272   0.0000       2.938712        79.9664 
 273   0.0000       2.942221        80.0619 
 274   0.0000       2.946342        80.1740 
 275   0.0000       2.946342        80.1740 
 276   0.0000       2.957604        80.4805 
 277   0.0000       2.962630        80.6173 
 278   0.0000       2.964820        80.6768 
 279   0.0000       2.964820        80.6769 
 280   0.0000       2.970814        80.8399 
 281   0.0000       2.970814        80.8400 
 282   0.0000       2.988883        81.3316 
 283   0.0000       3.018095        82.1265 
 284   0.0000       3.067553        83.4724 
 285   0.0000       3.067553        83.4724 
 286   0.0000       3.079653        83.8016 
 287   0.0000       3.086321        83.9831 
 288   0.0000       3.094329        84.2010 
 289   0.0000       3.094329        84.2010 
 290   0.0000       3.095670        84.2375 
 291   0.0000       3.106658        84.5365 
 292   0.0000       3.108318        84.5816 
 293   0.0000       3.122232        84.9603 
 294   0.0000       3.125784        85.0569 
 295   0.0000       3.125784        85.0569 
 296   0.0000       3.256927        88.6255 
 297   0.0000       3.273357        89.0726 
 298   0.0000       3.286391        89.4272 
 299   0.0000       3.287107        89.4467 
 300   0.0000       3.287108        89.4467 
 301   0.0000       3.291589        89.5687 
 302   0.0000       3.311144        90.1008 
 303   0.0000       3.311145        90.1008 
 304   0.0000       3.314262        90.1857 
 305   0.0000       3.323761        90.4441 
 306   0.0000       3.334954        90.7487 
 307   0.0000       3.334954        90.7487 
 308   0.0000       3.338097        90.8343 
 309   0.0000       3.343894        90.9920 
 310   0.0000       3.343896        90.9920 
 311   0.0000       3.347969        91.1029 
[...]
 22 C s       :     3.234444  s :     3.234444
      pz      :     0.885893  p :     2.699750
      px      :     0.894969
      py      :     0.918888
      dz2     :     0.016648  d :     0.104698
      dxz     :     0.011790
      dyz     :     0.024833
      dx2y2   :     0.024725
      dxy     :     0.026703
      f0      :     0.001517  f :     0.018746
      f+1     :     0.001075
      f-1     :     0.003490
      f+2     :     0.002339
      f-2     :     0.002646
      f+3     :     0.002911
      f-3     :     0.004768
 23 N s       :     3.709826  s :     3.709826
      pz      :     1.107642  p :     3.417883
      px      :     1.113775
      py      :     1.196466
      dz2     :     0.010508  d :     0.067075
      dxz     :     0.008893
      dyz     :     0.016167
      dx2y2   :     0.016179
      dxy     :     0.015328
      f0      :     0.000532  f :     0.005229
      f+1     :     0.000448
      f-1     :     0.000893
      f+2     :     0.000704
      f-2     :     0.000737
      f+3     :     0.000760
      f-3     :     0.001154


                     *******************************
                     * LOEWDIN POPULATION ANALYSIS *
                     *******************************

----------------------
LOEWDIN ATOMIC CHARGES
----------------------
   0 C :   -0.284299
   1 H :    0.153303
   2 H :    0.146452
   3 H :    0.154759
   4 C :   -0.194621
   5 N :    0.024061
   6 C :   -0.284236
   7 H :    0.146428
   8 H :    0.153328
   9 H :    0.154886
  10 C :   -0.194480
  11 N :    0.024408
  12 C :   -0.284299
  13 H :    0.154854
  14 H :    0.146468
  15 H :    0.153203
  16 C :   -0.194552
  17 N :    0.023934
  18 C :   -0.284211
  19 H :    0.154964
  20 H :    0.153274
  21 H :    0.146438
  22 C :   -0.194369
  23 N :    0.024305

-------------------------------
LOEWDIN REDUCED ORBITAL CHARGES
-------------------------------
  0 C s       :     2.817584  s :     2.817584
      pz      :     1.067878  p :     3.163671
      px      :     1.052499
      py      :     1.043294
      dz2     :     0.054230  d :     0.272169
      dxz     :     0.056344
      dyz     :     0.032732
      dx2y2   :     0.060948
      dxy     :     0.067914
      f0      :     0.003783  f :     0.030875
      f+1     :     0.003016
      f-1     :     0.004334
      f+2     :     0.004589
      f-2     :     0.004052
      f+3     :     0.006457
      f-3     :     0.004643
  1 H s       :     0.778668  s :     0.778668
      pz      :     0.014329  p :     0.068030
      px      :     0.022571
      py      :     0.031130
  2 H s       :     0.787218  s :     0.787218
      pz      :     0.023711  p :     0.066329
      px      :     0.029429
      py      :     0.013189
  3 H s       :     0.776335  s :     0.776335
      pz      :     0.039855  p :     0.068906
      px      :     0.015334
      py      :     0.013717
  4 C s       :     2.844983  s :     2.844983
      pz      :     0.855257  p :     2.825731
      px      :     0.931698
      py      :     1.038777
      dz2     :     0.058494  d :     0.457503
      dxz     :     0.057788
      dyz     :     0.091973
      dx2y2   :     0.130391
      dxy     :     0.118857
      f0      :     0.006279  f :     0.066403
      f+1     :     0.004798
      f-1     :     0.008648
      f+2     :     0.004584
      f-2     :     0.012031
      f+3     :     0.014169
      f-3     :     0.015895
  5 N s       :     3.297348  s :     3.297348
      pz      :     1.062047  p :     3.525413
      px      :     1.161516
      py      :     1.301850
      dz2     :     0.018574  d :     0.134386
      dxz     :     0.017030
      dyz     :     0.027398
      dx2y2   :     0.034069
      dxy     :     0.037315
      f0      :     0.001896  f :     0.018792
      f+1     :     0.001424
      f-1     :     0.002435
      f+2     :     0.001456
      f-2     :     0.003325
      f+3     :     0.004156
      f-3     :     0.004099
  6 C s       :     2.817560  s :     2.817560
      pz      :     1.035849  p :     3.163627
      px      :     1.061406
      py      :     1.066371
      dz2     :     0.075597  d :     0.272171
      dxz     :     0.049729
      dyz     :     0.062991
      dx2y2   :     0.055878
      dxy     :     0.027975
      f0      :     0.004999  f :     0.030878
      f+1     :     0.005857
      f-1     :     0.006563
      f+2     :     0.003049
      f-2     :     0.005091
      f+3     :     0.004105
      f-3     :     0.001214
  7 H s       :     0.787242  s :     0.787242
      pz      :     0.013072  p :     0.066330
      px      :     0.038986
      py      :     0.014272
  8 H s       :     0.778625  s :     0.778625
      pz      :     0.026562  p :     0.068048
      px      :     0.019567
      py      :     0.021919
  9 H s       :     0.776273  s :     0.776273
      pz      :     0.012723  p :     0.068841
      px      :     0.018476
      py      :     0.037642
 10 C s       :     2.844888  s :     2.844888
      pz      :     1.091566  p :     2.825578
      px      :     0.843275
      py      :     0.890737
      dz2     :     0.148233  d :     0.457590
      dxz     :     0.111963
      dyz     :     0.125856
      dx2y2   :     0.038469
      dxy     :     0.033070
      f0      :     0.017691  f :     0.066423
      f+1     :     0.011753
      f-1     :     0.016736
      f+2     :     0.008984
      f-2     :     0.008683
      f+3     :     0.001222
      f-3     :     0.001354
 11 N s       :     3.297043  s :     3.297043
      pz      :     1.369317  p :     3.525344
      px      :     1.046198
      py      :     1.109830
      dz2     :     0.042035  d :     0.134406
      dxz     :     0.030627
      dyz     :     0.037410
      dx2y2   :     0.011927
      dxy     :     0.012407
      f0      :     0.004652  f :     0.018798
      f+1     :     0.003299
      f-1     :     0.004860
      f+2     :     0.002427
      f-2     :     0.002458
      f+3     :     0.000553
      f-3     :     0.000549
 12 C s       :     2.817632  s :     2.817632
      pz      :     1.028865  p :     3.163571
      px      :     1.070596
      py      :     1.064111
      dz2     :     0.072267  d :     0.272223
      dxz     :     0.059772
      dyz     :     0.066425
      dx2y2   :     0.039021
      dxy     :     0.034737
      f0      :     0.006750  f :     0.030872
      f+1     :     0.005411
      f-1     :     0.006492
      f+2     :     0.003159
      f-2     :     0.004136
      f+3     :     0.003846
      f-3     :     0.001078
 13 H s       :     0.776333  s :     0.776333
      pz      :     0.012342  p :     0.068813
      px      :     0.019692
      py      :     0.036779
 14 H s       :     0.787212  s :     0.787212
      pz      :     0.021549  p :     0.066320
      px      :     0.020200
      py      :     0.024572
 15 H s       :     0.778779  s :     0.778779
      pz      :     0.013817  p :     0.068018
      px      :     0.039722
      py      :     0.014479
 16 C s       :     2.845034  s :     2.845034
      pz      :     1.122164  p :     2.825683
      px      :     0.829401
      py      :     0.874117
      dz2     :     0.154168  d :     0.457433
      dxz     :     0.124789
      dyz     :     0.133753
      dx2y2   :     0.022619
      dxy     :     0.022104
      f0      :     0.020904  f :     0.066402
      f+1     :     0.014119
      f-1     :     0.018535
      f+2     :     0.005858
      f-2     :     0.005766
      f+3     :     0.000602
      f-3     :     0.000618
 17 N s       :     3.297318  s :     3.297318
      pz      :     1.408032  p :     3.525582
      px      :     1.031947
      py      :     1.085602
      dz2     :     0.046305  d :     0.134377
      dxz     :     0.031972
      dyz     :     0.037887
      dx2y2   :     0.009196
      dxy     :     0.009017
      f0      :     0.005704  f :     0.018789
      f+1     :     0.003679
      f-1     :     0.005235
      f+2     :     0.001723
      f-2     :     0.001681
      f+3     :     0.000385
      f-3     :     0.000383
 18 C s       :     2.817592  s :     2.817592
      pz      :     1.070365  p :     3.163513
      px      :     1.059377
      py      :     1.033770
      dz2     :     0.061157  d :     0.272229
      dxz     :     0.038803
      dyz     :     0.041761
      dx2y2   :     0.053334
      dxy     :     0.077173
      f0      :     0.004156  f :     0.030877
      f+1     :     0.002211
      f-1     :     0.004468
      f+2     :     0.005398
      f-2     :     0.003968
      f+3     :     0.005374
      f-3     :     0.005303
 19 H s       :     0.776289  s :     0.776289
      pz      :     0.040413  p :     0.068746
      px      :     0.015294
      py      :     0.013039
 20 H s       :     0.778704  s :     0.778704
      pz      :     0.021717  p :     0.068022
      px      :     0.033096
      py      :     0.013209
 21 H s       :     0.787239  s :     0.787239
      pz      :     0.014827  p :     0.066323
      px      :     0.025731
      py      :     0.025765
 22 C s       :     2.844912  s :     2.844912
      pz      :     0.862163  p :     2.825502
      px      :     0.884423
      py      :     1.078916
      dz2     :     0.064388  d :     0.457525
      dxz     :     0.038103
      dyz     :     0.112431
      dx2y2   :     0.119879
      dxy     :     0.122725
      f0      :     0.005954  f :     0.066429
      f+1     :     0.002897
      f-1     :     0.011225
      f+2     :     0.008188
      f-2     :     0.009556
      f+3     :     0.013673
      f-3     :     0.014935
 23 N s       :     3.296963  s :     3.296963
      pz      :     1.073368  p :     3.525541
      px      :     1.099714
      py      :     1.352459
      dz2     :     0.018970  d :     0.134395
      dxz     :     0.013274
      dyz     :     0.032651
      dx2y2   :     0.034318
      dxy     :     0.035182
      f0      :     0.001839  f :     0.018796
      f+1     :     0.000940
      f-1     :     0.003009
      f+2     :     0.002384
      f-2     :     0.002737
      f+3     :     0.003961
      f-3     :     0.003927


                      *****************************
                      * MAYER POPULATION ANALYSIS *
                      *****************************

  NA   - Mulliken gross atomic population
  ZA   - Total nuclear charge
  QA   - Mulliken gross atomic charge
  VA   - Mayer's total valence
  BVA  - Mayer's bonded valence
  FA   - Mayer's free valence

  ATOM       NA         ZA         QA         VA         BVA        FA
  0 C      6.2901     6.0000    -0.2901     3.9009     3.6149     0.2860
  1 H      0.8138     1.0000     0.1862     0.9719     0.9253     0.0466
  2 H      0.8325     1.0000     0.1675     0.9600     0.9128     0.0472
  3 H      0.8056     1.0000     0.1944     0.9747     0.9280     0.0466
  4 C      6.0598     6.0000    -0.0598     4.0265     3.6007     0.4258
  5 N      7.1983     7.0000    -0.1983     3.2629     2.7758     0.4870
  6 C      6.2905     6.0000    -0.2905     3.9009     3.6149     0.2860
  7 H      0.8326     1.0000     0.1674     0.9601     0.9129     0.0472
  8 H      0.8135     1.0000     0.1865     0.9719     0.9253     0.0466
  9 H      0.8055     1.0000     0.1945     0.9745     0.9279     0.0466
 10 C      6.0586     6.0000    -0.0586     4.0248     3.5991     0.4257
 11 N      7.1993     7.0000    -0.1993     3.2616     2.7745     0.4871
 12 C      6.2893     6.0000    -0.2893     3.9013     3.6154     0.2859
 13 H      0.8058     1.0000     0.1942     0.9746     0.9280     0.0466
 14 H      0.8325     1.0000     0.1675     0.9600     0.9127     0.0472
 15 H      0.8141     1.0000     0.1859     0.9720     0.9254     0.0466
 16 C      6.0592     6.0000    -0.0592     4.0256     3.5998     0.4258
 17 N      7.1990     7.0000    -0.1990     3.2621     2.7750     0.4871
 18 C      6.2900     6.0000    -0.2900     3.9016     3.6157     0.2859
 19 H      0.8058     1.0000     0.1942     0.9745     0.9278     0.0466
 20 H      0.8138     1.0000     0.1862     0.9719     0.9253     0.0466
 21 H      0.8326     1.0000     0.1674     0.9600     0.9128     0.0472
 22 C      6.0576     6.0000    -0.0576     4.0237     3.5980     0.4257
 23 N      7.2000     7.0000    -0.2000     3.2609     2.7737     0.4872

  Mayer bond orders larger than 0.100000
B(  0-C ,  1-H ) :   0.9127 B(  0-C ,  2-H ) :   0.9100 B(  0-C ,  3-H ) :   0.9090 
B(  0-C ,  4-C ) :   0.8942 B(  4-C ,  5-N ) :   2.7140 B(  6-C ,  7-H ) :   0.9101 
B(  6-C ,  8-H ) :   0.9127 B(  6-C ,  9-H ) :   0.9090 B(  6-C , 10-C ) :   0.8941 
B( 10-C , 11-N ) :   2.7126 B( 12-C , 13-H ) :   0.9092 B( 12-C , 14-H ) :   0.9101 
B( 12-C , 15-H ) :   0.9129 B( 12-C , 16-C ) :   0.8942 B( 16-C , 17-N ) :   2.7130 
B( 18-C , 19-H ) :   0.9092 B( 18-C , 20-H ) :   0.9129 B( 18-C , 21-H ) :   0.9101 
B( 18-C , 22-C ) :   0.8941 B( 22-C , 23-N ) :   2.7116 


----------------------------------
MP2 DERIVATIVE INTEGRAL GENERATION
----------------------------------


Input Wavefunction Amplitudes       ... 4acn-opt-gas.mp2tsaa.tmp
Input Correlated Electron Density   ... 4acn-opt-gas.pmp2re
Input Energy Weighted Density       ... 4acn-opt-gas.wmp2.tmp
Input SCF Electron Density          ... 4acn-opt-gas.scfp

One-Electron Terms    ...
                        ... One-Electron Terms done
Prescreening matrices              ... done

Batch handling in the gradient evaluation:
Memory available                      ...  700.0 MB
Memory per occupied orbital in Q2     ...   48.1 MB
Memory per occupied orbital in Q3     ...    0.2 MB
Total memory requirement per |i>      ...   48.3 MB
Max. Number of orbitals possible      ...     14
Number of orbitals treated per batch  ...     14
Number of batches to be done          ...      3
Batch   0: i=   12 ...    25
Batch   1: i=   26 ...    39
Batch   2: i=   40 ...    43

---------------------------------------
MP2 TOTAL ENERGY:     -529.968937845 Eh
---------------------------------------

-----------------------------------
NORM OF THE MP2 GRADIENT:  0.000627
-----------------------------------

-------------------------   --------------------
FINAL SINGLE POINT ENERGY      -529.968937845066
-------------------------   --------------------

                                *** OPTIMIZATION RUN DONE ***

                            ***************************************
                            *     ORCA property calculations      *
                            ***************************************

                                    ---------------------
                                    Active property flags
                                    ---------------------
   (+) Dipole Moment


------------------------------------------------------------------------------
                       ORCA ELECTRIC PROPERTIES CALCULATION
------------------------------------------------------------------------------

Dipole Moment Calculation                       ... on
Quadrupole Moment Calculation                   ... off
Polarizability Calculation                      ... off
GBWName                                         ... 4acn-opt-gas.gbw
Electron density file                           ... 4acn-opt-gas.scfp
The origin for moment calculation is the CENTER OF MASS  = ( 0.001092,  0.000916  0.002990)

-------------
DIPOLE MOMENT
-------------
                                X             Y             Z
Electronic contribution:      0.00839       0.00322       0.01968
Nuclear contribution   :     -0.01346      -0.01110      -0.03680
                        -----------------------------------------
Total Dipole Moment    :     -0.00506      -0.00788      -0.01712
                        -----------------------------------------
Magnitude (a.u.)       :      0.01952
Magnitude (Debye)      :      0.04961



--------------------
Rotational spectrum 
--------------------
 
Rotational constants in cm-1:     0.024430     0.022284     0.022274 
Rotational constants in MHz :   732.390452   668.062996   667.765047 

 Dipole components along the rotational axes: 
x,y,z [a.u.] :     0.002520     0.007331    -0.017913 
x,y,z [Debye]:     0.006405     0.018634    -0.045530 

 

                         *** MP2 UNRELAXED DENSITY ***

------------------------------------------------------------------------------
                       ORCA ELECTRIC PROPERTIES CALCULATION
------------------------------------------------------------------------------

Dipole Moment Calculation                       ... on
Quadrupole Moment Calculation                   ... off
Polarizability Calculation                      ... off
GBWName                                         ... 4acn-opt-gas.gbw
Electron density file                           ... 4acn-opt-gas.pmp2ur
The origin for moment calculation is the CENTER OF MASS  = ( 0.001092,  0.000916  0.002990)

-------------
DIPOLE MOMENT
-------------
                                X             Y             Z
Electronic contribution:      0.00852       0.00346       0.02009
Nuclear contribution   :     -0.01346      -0.01110      -0.03680
                        -----------------------------------------
Total Dipole Moment    :     -0.00493      -0.00764      -0.01671
                        -----------------------------------------
Magnitude (a.u.)       :      0.01903
Magnitude (Debye)      :      0.04836



--------------------
Rotational spectrum 
--------------------
 
Rotational constants in cm-1:     0.024430     0.022284     0.022274 
Rotational constants in MHz :   732.390452   668.062996   667.765047 

 Dipole components along the rotational axes: 
x,y,z [a.u.] :     0.002432     0.007108    -0.017479 
x,y,z [Debye]:     0.006182     0.018068    -0.044428 

 

                           *** MP2 RELAXED DENSITY ***

------------------------------------------------------------------------------
                       ORCA ELECTRIC PROPERTIES CALCULATION
------------------------------------------------------------------------------

Dipole Moment Calculation                       ... on
Quadrupole Moment Calculation                   ... off
Polarizability Calculation                      ... off
GBWName                                         ... 4acn-opt-gas.gbw
Electron density file                           ... 4acn-opt-gas.pmp2re
The origin for moment calculation is the CENTER OF MASS  = ( 0.001092,  0.000916  0.002990)

-------------
DIPOLE MOMENT
-------------
                                X             Y             Z
Electronic contribution:      0.00872       0.00433       0.02130
Nuclear contribution   :     -0.01346      -0.01110      -0.03680
                        -----------------------------------------
Total Dipole Moment    :     -0.00473      -0.00677      -0.01550
                        -----------------------------------------
Magnitude (a.u.)       :      0.01757
Magnitude (Debye)      :      0.04465



--------------------
Rotational spectrum 
--------------------
 
Rotational constants in cm-1:     0.024430     0.022284     0.022274 
Rotational constants in MHz :   732.390452   668.062996   667.765047 

 Dipole components along the rotational axes: 
x,y,z [a.u.] :     0.002249     0.006242    -0.016265 
x,y,z [Debye]:     0.005718     0.015865    -0.041341 

 

Timings for individual modules:

Sum of individual times         ...    10914.022 sec (= 181.900 min)
GTO integral calculation        ...       26.246 sec (=   0.437 min)   0.2 %
SCF iterations                  ...      410.365 sec (=   6.839 min)   3.8 %
MP2 module                      ...    10460.089 sec (= 174.335 min)  95.8 %
Geometry relaxation             ...       17.323 sec (=   0.289 min)   0.2 %
                             ****ORCA TERMINATED NORMALLY****
TOTAL RUN TIME: 0 days 3 hours 2 minutes 1 seconds 743 msec
cp: cannot stat /scratch/slurm-3517411/*.hess: No such file or directory
