
                                 *****************
                                 * O   R   C   A *
                                 *****************

           --- An Ab Initio, DFT and Semiempirical electronic structure package ---

                  #######################################################
                  #                        -***-                        #
                  #          Department of theory and spectroscopy      #
                  #               Directorship: Frank Neese             #
                  #        Max Planck Institute fuer Kohlenforschung    #
                  #                Kaiser Wilhelm Platz 1               #
                  #                 D-45470 Muelheim/Ruhr               #
                  #                      Germany                        #
                  #                                                     #
                  #                  All rights reserved                #
                  #                        -***-                        #
                  #######################################################


                         Program Version 4.2.0 -  RELEASE  -


 With contributions from (in alphabetic order):
   Daniel Aravena         : Magnetic Suceptibility
   Michael Atanasov       : Ab Initio Ligand Field Theory (pilot matlab implementation)
   Alexander A. Auer      : GIAO ZORA, VPT2
   Ute Becker             : Parallelization
   Giovanni Bistoni       : ED, misc. LED, open-shell LED, HFLED
   Martin Brehm           : Molecular dynamics
   Dmytro Bykov           : SCF Hessian
   Vijay G. Chilkuri      : MRCI spin determinant printing, contributions to CSF-ICE
   Dipayan Datta          : RHF DLPNO-CCSD density
   Achintya Kumar Dutta   : EOM-CC, STEOM-CC
   Dmitry Ganyushin       : Spin-Orbit,Spin-Spin,Magnetic field MRCI
   Miquel Garcia          : C-PCM Hessian, Gaussian charge scheme
   Yang Guo               : DLPNO-NEVPT2, CIM, IAO-localization
   Andreas Hansen         : Spin unrestricted coupled pair/coupled cluster methods
   Benjamin Helmich-Paris : CASSCF linear response (MC-RPA)
   Lee Huntington         : MR-EOM, pCC
   Robert Izsak           : Overlap fitted RIJCOSX, COSX-SCS-MP3, EOM
   Christian Kollmar      : KDIIS, OOCD, Brueckner-CCSD(T), CCSD density
   Simone Kossmann        : Meta GGA functionals, TD-DFT gradient, OOMP2, MP2 Hessian
   Martin Krupicka        : AUTO-CI
   Lucas Lang             : DCDCAS
   Dagmar Lenk            : GEPOL surface, SMD
   Dimitrios Liakos       : Extrapolation schemes; Compound Job, initial MDCI parallelization
   Dimitrios Manganas     : Further ROCIS development; embedding schemes
   Dimitrios Pantazis     : SARC Basis sets
   Taras Petrenko         : DFT Hessian,TD-DFT gradient, ASA, ECA, R-Raman, ABS, FL, XAS/XES, NRVS
   Peter Pinski           : DLPNO-MP2, DLPNO-MP2 Gradient
   Christoph Reimann      : Effective Core Potentials
   Marius Retegan         : Local ZFS, SOC
   Christoph Riplinger    : Optimizer, TS searches, QM/MM, DLPNO-CCSD(T), (RO)-DLPNO pert. Triples
   Tobias Risthaus        : Range-separated hybrids, TD-DFT gradient, RPA, STAB
   Michael Roemelt        : Original ROCIS implementation
   Masaaki Saitow         : Open-shell DLPNO-CCSD energy and density
   Barbara Sandhoefer     : DKH picture change effects
   Avijit Sen             : IP-ROCIS
   Kantharuban Sivalingam : CASSCF convergence, NEVPT2, FIC-MRCI
   Bernardo de Souza      : ESD, SOC TD-DFT
   Georgi Stoychev        : AutoAux, RI-MP2 NMR
   Willem Van den Heuvel  : Paramagnetic NMR
   Boris Wezisla          : Elementary symmetry handling
   Frank Wennmohs         : Technical directorship


 We gratefully acknowledge several colleagues who have allowed us to
 interface, adapt or use parts of their codes:
   Stefan Grimme, W. Hujo, H. Kruse,             : VdW corrections, initial TS optimization,
                  C. Bannwarth                     DFT functionals, gCP, sTDA/sTD-DF
   Ed Valeev, F. Pavosevic, A. Kumar             : LibInt (2-el integral package), F12 methods
   Garnet Chan, S. Sharma, J. Yang, R. Olivares  : DMRG
   Ulf Ekstrom                                   : XCFun DFT Library
   Mihaly Kallay                                 : mrcc  (arbitrary order and MRCC methods)
   Andreas Klamt, Michael Diedenhofen            : otool_cosmo (COSMO solvation model)
   Jiri Pittner, Ondrej Demel                    : Mk-CCSD
   Frank Weinhold                                : gennbo (NPA and NBO analysis)
   Christopher J. Cramer and Donald G. Truhlar   : smd solvation model
   Lars Goerigk                                  : TD-DFT with DH, B97 family of functionals
   V. Asgeirsson, H. Jonsson                     : NEB implementation
   FAccTs GmbH                                   : IRC, NEB, NEB-TS, Multilevel, MM, QM/MM, CI optimization
   S Lehtola, MJT Oliveira, MAL Marques          : LibXC Library


 Your calculation uses the libint2 library for the computation of 2-el integrals
 For citations please refer to: http://libint.valeyev.net

 Your ORCA version has been built with support for libXC version: 4.2.3
 For citations please refer to: https://tddft.org/programs/libxc/

 This ORCA versions uses:
   CBLAS   interface :  Fast vector & matrix operations
   LAPACKE interface :  Fast linear algebra routines
   SCALAPACK package :  Parallel linear algebra routines


----- Orbital basis set information -----
Your calculation utilizes the basis: def2-TZVP
   F. Weigend and R. Ahlrichs, Phys. Chem. Chem. Phys. 7, 3297 (2005).

================================================================================
                                        WARNINGS
                       Please study these warnings very carefully!
================================================================================


WARNING: The frozen-core approximation for MP2-gradient calculations is turned on by default.

INFO   : the flag for use of LIBINT has been found!

================================================================================
                                       INPUT FILE
================================================================================
NAME = 12h2o.su.etal.mol0,2,4,8,9,10,11-orca.engrad-mp2.def2tzvp.frozencore.inp
|  1> # 12h2o.su.etal.mol0,2,4,8,9,10,11
|  2> ! MP2 def2-TZVP EnGrad TightSCF
|  3> 
|  4> %pal
|  5>     nprocs 6
|  6> end
|  7> 
|  8> %maxcore 8000
|  9> 
| 10> %scf
| 11>     ConvForced true
| 12> end
| 13> 
| 14> *xyz 0 1
| 15> O   1.794470000   0.923410000   2.768350000
| 16> H   2.338250000   1.359750000   3.430940000
| 17> H   0.879480000   1.303000000   2.865760000
| 18> O   0.923410000  -1.794470000  -2.768350000
| 19> H   1.359750000  -2.338250000  -3.430940000
| 20> H   1.303000000  -0.879480000  -2.865760000
| 21> O  -0.885520000   1.737840000   0.052730000
| 22> H  -1.032320000   2.090180000  -0.841890000
| 23> H  -1.284090000   0.839590000   0.017130000
| 24> O   1.752130000   0.741530000  -2.896280000
| 25> H   2.036450000   0.920500000  -1.984040000
| 26> H   0.921210000   1.242140000  -2.984230000
| 27> O   0.741530000  -1.752130000   2.896280000
| 28> H   0.920500000  -2.036450000   1.984040000
| 29> H   1.242140000  -0.921210000   2.984230000
| 30> O  -0.923410000   1.794470000  -2.768350000
| 31> H  -1.359750000   2.338250000  -3.430940000
| 32> H  -1.303000000   0.879480000  -2.865760000
| 33> O  -0.741530000   1.752130000   2.896280000
| 34> H  -0.920500000   2.036450000   1.984040000
| 35> H  -1.242140000   0.921210000   2.984230000
| 36> *
| 37> 
| 38>                          ****END OF INPUT****
================================================================================

                     *******************************
                     * Energy+Gradient Calculation *
                     *******************************

---------------------------------
CARTESIAN COORDINATES (ANGSTROEM)
---------------------------------
  O      1.794470    0.923410    2.768350
  H      2.338250    1.359750    3.430940
  H      0.879480    1.303000    2.865760
  O      0.923410   -1.794470   -2.768350
  H      1.359750   -2.338250   -3.430940
  H      1.303000   -0.879480   -2.865760
  O     -0.885520    1.737840    0.052730
  H     -1.032320    2.090180   -0.841890
  H     -1.284090    0.839590    0.017130
  O      1.752130    0.741530   -2.896280
  H      2.036450    0.920500   -1.984040
  H      0.921210    1.242140   -2.984230
  O      0.741530   -1.752130    2.896280
  H      0.920500   -2.036450    1.984040
  H      1.242140   -0.921210    2.984230
  O     -0.923410    1.794470   -2.768350
  H     -1.359750    2.338250   -3.430940
  H     -1.303000    0.879480   -2.865760
  O     -0.741530    1.752130    2.896280
  H     -0.920500    2.036450    1.984040
  H     -1.242140    0.921210    2.984230

----------------------------
CARTESIAN COORDINATES (A.U.)
----------------------------
  NO LB      ZA    FRAG     MASS         X           Y           Z
   0 O     8.0000    0    15.999    3.391057    1.744992    5.231423
   1 H     1.0000    0     1.008    4.418652    2.569555    6.483537
   2 H     1.0000    0     1.008    1.661976    2.462313    5.415502
   3 O     8.0000    0    15.999    1.744992   -3.391057   -5.231423
   4 H     1.0000    0     1.008    2.569555   -4.418652   -6.483537
   5 H     1.0000    0     1.008    2.462313   -1.661976   -5.415502
   6 O     8.0000    0    15.999   -1.673390    3.284042    0.099645
   7 H     1.0000    0     1.008   -1.950802    3.949868   -1.590942
   8 H     1.0000    0     1.008   -2.426578    1.586595    0.032371
   9 O     8.0000    0    15.999    3.311046    1.401289   -5.473176
  10 H     1.0000    0     1.008    3.848333    1.739493   -3.749292
  11 H     1.0000    0     1.008    1.740835    2.347304   -5.639377
  12 O     8.0000    0    15.999    1.401289   -3.311046    5.473176
  13 H     1.0000    0     1.008    1.739493   -3.848333    3.749292
  14 H     1.0000    0     1.008    2.347304   -1.740835    5.639377
  15 O     8.0000    0    15.999   -1.744992    3.391057   -5.231423
  16 H     1.0000    0     1.008   -2.569555    4.418652   -6.483537
  17 H     1.0000    0     1.008   -2.462313    1.661976   -5.415502
  18 O     8.0000    0    15.999   -1.401289    3.311046    5.473176
  19 H     1.0000    0     1.008   -1.739493    3.848333    3.749292
  20 H     1.0000    0     1.008   -2.347304    1.740835    5.639377

--------------------------------
INTERNAL COORDINATES (ANGSTROEM)
--------------------------------
 O      0   0   0     0.000000000000     0.00000000     0.00000000
 H      1   0   0     0.961828878803     0.00000000     0.00000000
 H      1   2   0     0.995381322057   106.21731035     0.00000000
 O      1   2   3     6.229017908788   152.78811022   148.20682389
 H      4   1   2     0.961828878803   142.70840549    32.77530239
 H      4   1   2     0.995381322057    68.44287781   304.10042923
 O      3   1   2     3.349245975813   116.85538783   143.82107740
 H      7   3   1     0.972645187106   154.03893681   304.15813038
 H      7   3   1     0.983350632989    97.20424340    87.67157074
 O      6   4   1     1.682356278379   171.61043709   305.15113011
 H     10   6   4     0.972136791249   103.79460456    70.64587838
 H     10   6   4     0.974050112161   105.61118924   321.69395179
 O      1   2   3     2.878117964938   126.72240291   256.40918860
 H     13   1   2     0.972136791249    99.37069922   223.07499144
 H     13   1   2     0.974050112161    12.30570018   335.59052045
 O     12  10   6     1.937600461318   161.54375213    39.05245435
 H     16  12  10     0.961828878803   121.08403650   202.75419110
 H     16  12  10     0.995381322057    95.17003195   315.21089530
 O      3   1   2     1.682356278379   171.61043709   195.73896161
 H     19   3   1     0.972136791249   103.79460456   289.35412162
 H     19   3   1     0.974050112161   105.61118924    38.30604821

---------------------------
INTERNAL COORDINATES (A.U.)
---------------------------
 O      0   0   0     0.000000000000     0.00000000     0.00000000
 H      1   0   0     1.817593168635     0.00000000     0.00000000
 H      1   2   0     1.880998097508   106.21731035     0.00000000
 O      1   2   3    11.771137930900   152.78811022   148.20682389
 H      4   1   2     1.817593168635   142.70840549    32.77530239
 H      4   1   2     1.880998097508    68.44287781   304.10042923
 O      3   1   2     6.329157649425   116.85538783   143.82107740
 H      7   3   1     1.838033029106   154.03893681   304.15813038
 H      7   3   1     1.858263389967    97.20424340    87.67157074
 O      6   4   1     3.179192625819   171.61043709   305.15113011
 H     10   6   4     1.837072300170   103.79460456    70.64587838
 H     10   6   4     1.840687952699   105.61118924   321.69395179
 O      1   2   3     5.438854734852   126.72240291   256.40918860
 H     13   1   2     1.837072300170    99.37069922   223.07499144
 H     13   1   2     1.840687952699    12.30570018   335.59052045
 O     12  10   6     3.661534228851   161.54375213    39.05245435
 H     16  12  10     1.817593168635   121.08403650   202.75419110
 H     16  12  10     1.880998097508    95.17003195   315.21089530
 O      3   1   2     3.179192625819   171.61043709   195.73896161
 H     19   3   1     1.837072300170   103.79460456   289.35412162
 H     19   3   1     1.840687952699   105.61118924    38.30604821

---------------------
BASIS SET INFORMATION
---------------------
There are 2 groups of distinct atoms

 Group   1 Type O   : 11s6p2d1f contracted to 5s3p2d1f pattern {62111/411/11/1}
 Group   2 Type H   : 5s1p contracted to 3s1p pattern {311/1}

Atom   0O    basis set group =>   1
Atom   1H    basis set group =>   2
Atom   2H    basis set group =>   2
Atom   3O    basis set group =>   1
Atom   4H    basis set group =>   2
Atom   5H    basis set group =>   2
Atom   6O    basis set group =>   1
Atom   7H    basis set group =>   2
Atom   8H    basis set group =>   2
Atom   9O    basis set group =>   1
Atom  10H    basis set group =>   2
Atom  11H    basis set group =>   2
Atom  12O    basis set group =>   1
Atom  13H    basis set group =>   2
Atom  14H    basis set group =>   2
Atom  15O    basis set group =>   1
Atom  16H    basis set group =>   2
Atom  17H    basis set group =>   2
Atom  18O    basis set group =>   1
Atom  19H    basis set group =>   2
Atom  20H    basis set group =>   2


           ************************************************************
           *        Program running with 6 parallel MPI-processes     *
           *              working on a common directory               *
           ************************************************************
------------------------------------------------------------------------------
                           ORCA GTO INTEGRAL CALCULATION
------------------------------------------------------------------------------

                         BASIS SET STATISTICS AND STARTUP INFO

 # of primitive gaussian shells          ...  224
 # of primitive gaussian functions       ...  434
 # of contracted shells                  ...  133
 # of contracted basis functions         ...  301
 Highest angular momentum                ...    3
 Maximum contraction depth               ...    6
 Integral package used                   ... LIBINT
 Integral threshhold            Thresh   ...  2.500e-11
 Primitive cut-off              TCut     ...  2.500e-12


------------------------------ INTEGRAL EVALUATION ----------------------------


 * One electron integrals 
 Pre-screening matrix                    ... done
 Shell pair data                         ... done (   0.002 sec)



           ************************************************************
           *        Program running with 6 parallel MPI-processes     *
           *              working on a common directory               *
           ************************************************************
-------------------------------------------------------------------------------
                                 ORCA SCF
-------------------------------------------------------------------------------

------------
SCF SETTINGS
------------
Hamiltonian:
 Ab initio Hamiltonian  Method          .... Hartree-Fock(GTOs)


General Settings:
 Integral files         IntName         .... 12h2o.su.etal.mol0,2,4,8,9,10,11-orca.engrad-mp2.def2tzvp.frozencore
 Hartree-Fock type      HFTyp           .... RHF
 Total Charge           Charge          ....    0
 Multiplicity           Mult            ....    1
 Number of Electrons    NEL             ....   70
 Basis Dimension        Dim             ....  301
 Nuclear Repulsion      ENuc            ....    330.9449982902 Eh

Convergence Acceleration:
 DIIS                   CNVDIIS         .... on
   Start iteration      DIISMaxIt       ....    12
   Startup error        DIISStart       ....  0.200000
   # of expansion vecs  DIISMaxEq       ....     5
   Bias factor          DIISBfac        ....   1.050
   Max. coefficient     DIISMaxC        ....  10.000
 Newton-Raphson         CNVNR           .... off
 SOSCF                  CNVSOSCF        .... on
   Start iteration      SOSCFMaxIt      ....   150
   Startup grad/error   SOSCFStart      ....  0.003300
 Level Shifting         CNVShift        .... on
   Level shift para.    LevelShift      ....    0.2500
   Turn off err/grad.   ShiftErr        ....    0.0010
 Zerner damping         CNVZerner       .... off
 Static damping         CNVDamp         .... on
   Fraction old density DampFac         ....    0.7000
   Max. Damping (<1)    DampMax         ....    0.9800
   Min. Damping (>=0)   DampMin         ....    0.0000
   Turn off err/grad.   DampErr         ....    0.1000
 Fernandez-Rico         CNVRico         .... off

SCF Procedure:
 Maximum # iterations   MaxIter         ....   125
 SCF integral mode      SCFMode         .... Direct
   Integral package                     .... LIBINT
 Reset frequency        DirectResetFreq ....    20
 Integral Threshold     Thresh          ....  2.500e-11 Eh
 Primitive CutOff       TCut            ....  2.500e-12 Eh

Convergence Tolerance:
 Convergence Check Mode ConvCheckMode   .... Total+1el-Energy
 Convergence forced     ConvForced      .... 1
 Energy Change          TolE            ....  1.000e-08 Eh
 1-El. energy change                    ....  1.000e-05 Eh
 Orbital Gradient       TolG            ....  1.000e-05
 Orbital Rotation angle TolX            ....  1.000e-05
 DIIS Error             TolErr          ....  5.000e-07


Diagonalization of the overlap matrix:
Smallest eigenvalue                        ... 4.141e-03
Time for diagonalization                   ...    0.026 sec
Threshold for overlap eigenvalues          ... 1.000e-08
Number of eigenvalues below threshold      ... 0
Time for construction of square roots      ...    0.128 sec
Total time needed                          ...    0.155 sec

-------------------
DFT GRID GENERATION
-------------------

General Integration Accuracy     IntAcc      ...  4.340
Radial Grid Type                 RadialGrid  ... Gauss-Chebyshev
Angular Grid (max. acc.)         AngularGrid ... Lebedev-110
Angular grid pruning method      GridPruning ... 3 (G Style)
Weight generation scheme         WeightScheme... Becke
Basis function cutoff            BFCut       ...    1.0000e-11
Integration weight cutoff        WCut        ...    1.0000e-14
Grids for H and He will be reduced by one unit

# of grid points (after initial pruning)     ...  23128 (   0.0 sec)
# of grid points (after weights+screening)   ...  21881 (   0.0 sec)
nearest neighbour list constructed           ...    0.0 sec
Grid point re-assignment to atoms done       ...    0.0 sec
Grid point division into batches done        ...    0.0 sec
Reduced shell lists constructed in    0.1 sec

Total number of grid points                  ...    21881
Total number of batches                      ...      354
Average number of points per batch           ...       61
Average number of grid points per atom       ...     1042
Average number of shells per batch           ...    59.87 (45.01%)
Average number of basis functions per batch  ...   120.43 (40.01%)
Average number of large shells per batch     ...    40.23 (67.20%)
Average number of large basis fcns per batch ...    80.83 (67.12%)
Maximum spatial batch extension              ...  12.83, 14.11, 11.82 au
Average spatial batch extension              ...   0.56,  0.58,  0.53 au

Time for grid setup =    0.351 sec

------------------------------
INITIAL GUESS: MODEL POTENTIAL
------------------------------
Loading Hartree-Fock densities                     ... done
Calculating cut-offs                               ... done
Setting up the integral package                    ... done
Initializing the effective Hamiltonian             ... done
Starting the Coulomb interaction                   ... done (   0.1 sec)
Reading the grid                                   ... done
Mapping shells                                     ... done
Starting the XC term evaluation                    ... done (   0.1 sec)
Transforming the Hamiltonian                       ... done (   0.0 sec)
Diagonalizing the Hamiltonian                      ... done (   0.1 sec)
Back transforming the eigenvectors                 ... done (   0.0 sec)
Now organizing SCF variables                       ... done
                      ------------------
                      INITIAL GUESS DONE (   0.7 sec)
                      ------------------
--------------
SCF ITERATIONS
--------------
ITER       Energy         Delta-E        Max-DP      RMS-DP      [F,P]     Damp
               ***  Starting incremental Fock matrix formation  ***
  0   -531.8149553127   0.000000000000 0.04406102  0.00089564  0.3494118 0.7000
  1   -532.0595743129  -0.244619000192 0.02927727  0.00061935  0.2167576 0.7000
                               ***Turning on DIIS***
  2   -532.1890588071  -0.129484494185 0.01660287  0.00034531  0.1635043 0.7000
  3   -533.3648114156  -1.175752608549 0.00750333  0.00015708  0.1218382 0.7000
  4   -533.1262741369   0.238537278725 0.01697879  0.00036293  0.0862029 0.0000
  5   -532.4858781532   0.640395983693 0.00214423  0.00005818  0.0054644 0.0000
                      *** Initiating the SOSCF procedure ***
                           *** Shutting down DIIS ***
                      *** Re-Reading the Fockian *** 
                      *** Removing any level shift *** 
ITER      Energy       Delta-E        Grad      Rot      Max-DP    RMS-DP
  6   -532.44961825   0.0362599034  0.000854  0.000854  0.001393  0.000036
               *** Restarting incremental Fock matrix formation ***
  7   -532.43891850   0.0106997537  0.000300  0.000410  0.000673  0.000015
  8   -532.43892859  -0.0000100923  0.000130  0.000328  0.000496  0.000013
  9   -532.43893099  -0.0000023995  0.000071  0.000041  0.000087  0.000002
 10   -532.43893118  -0.0000001937  0.000014  0.000007  0.000021  0.000000
                  ***Gradient check signals convergence***
              ***Rediagonalizing the Fockian in SOSCF/NRSCF***

               *****************************************************
               *                     SUCCESS                       *
               *           SCF CONVERGED AFTER  11 CYCLES          *
               *****************************************************


----------------
TOTAL SCF ENERGY
----------------

Total Energy       :         -532.43893119 Eh          -14488.39989 eV

Components:
Nuclear Repulsion  :          330.94499829 Eh            9005.47123 eV
Electronic Energy  :         -863.38392948 Eh          -23493.87113 eV
One Electron Energy:        -1394.72761260 Eh          -37952.46780 eV
Two Electron Energy:          531.34368312 Eh           14458.59668 eV

Virial components:
Potential Energy   :        -1064.16828044 Eh          -28957.49108 eV
Kinetic Energy     :          531.72934925 Eh           14469.09119 eV
Virial Ratio       :            2.00133448


---------------
SCF CONVERGENCE
---------------

  Last Energy change         ...   -4.9195e-09  Tolerance :   1.0000e-08
  Last MAX-Density change    ...    4.0444e-06  Tolerance :   1.0000e-07
  Last RMS-Density change    ...    1.1479e-07  Tolerance :   5.0000e-09
  Last Orbital Gradient      ...    2.4990e-06  Tolerance :   1.0000e-05
  Last Orbital Rotation      ...    2.5715e-06  Tolerance :   1.0000e-05

             **** THE GBW FILE WAS UPDATED (12h2o.su.etal.mol0,2,4,8,9,10,11-orca.engrad-mp2.def2tzvp.frozencore.gbw) ****
             **** DENSITY FILE WAS UPDATED (12h2o.su.etal.mol0,2,4,8,9,10,11-orca.engrad-mp2.def2tzvp.frozencore.scfp) ****
             **** ENERGY FILE WAS UPDATED (12h2o.su.etal.mol0,2,4,8,9,10,11-orca.engrad-mp2.def2tzvp.frozencore.en.tmp) ****
             **** THE GBW FILE WAS UPDATED (12h2o.su.etal.mol0,2,4,8,9,10,11-orca.engrad-mp2.def2tzvp.frozencore.gbw) ****
             **** DENSITY FILE WAS UPDATED (12h2o.su.etal.mol0,2,4,8,9,10,11-orca.engrad-mp2.def2tzvp.frozencore.scfp) ****
----------------
ORBITAL ENERGIES
----------------

  NO   OCC          E(Eh)            E(eV) 
   0   2.0000     -20.633901      -561.4770 
   1   2.0000     -20.580478      -560.0233 
   2   2.0000     -20.577013      -559.9290 
   3   2.0000     -20.567243      -559.6631 
   4   2.0000     -20.531081      -558.6791 
   5   2.0000     -20.523744      -558.4795 
   6   2.0000     -20.518927      -558.3484 
   7   2.0000      -1.414300       -38.4851 
   8   2.0000      -1.365879       -37.1675 
   9   2.0000      -1.364479       -37.1294 
  10   2.0000      -1.353320       -36.8257 
  11   2.0000      -1.315799       -35.8047 
  12   2.0000      -1.305691       -35.5296 
  13   2.0000      -1.299836       -35.3703 
  14   2.0000      -0.779777       -21.2188 
  15   2.0000      -0.734234       -19.9795 
  16   2.0000      -0.729124       -19.8405 
  17   2.0000      -0.713560       -19.4169 
  18   2.0000      -0.698849       -19.0167 
  19   2.0000      -0.693667       -18.8756 
  20   2.0000      -0.668992       -18.2042 
  21   2.0000      -0.654199       -17.8017 
  22   2.0000      -0.620384       -16.8815 
  23   2.0000      -0.606152       -16.4942 
  24   2.0000      -0.590594       -16.0709 
  25   2.0000      -0.570675       -15.5289 
  26   2.0000      -0.559799       -15.2329 
  27   2.0000      -0.552045       -15.0219 
  28   2.0000      -0.537293       -14.6205 
  29   2.0000      -0.526875       -14.3370 
  30   2.0000      -0.508255       -13.8303 
  31   2.0000      -0.502808       -13.6821 
  32   2.0000      -0.480073       -13.0634 
  33   2.0000      -0.474505       -12.9119 
  34   2.0000      -0.466696       -12.6994 
  35   0.0000       0.076816         2.0903 
  36   0.0000       0.119122         3.2415 
  37   0.0000       0.147703         4.0192 
  38   0.0000       0.154512         4.2045 
  39   0.0000       0.171523         4.6674 
  40   0.0000       0.178253         4.8505 
  41   0.0000       0.186463         5.0739 
  42   0.0000       0.202245         5.5034 
  43   0.0000       0.231809         6.3078 
  44   0.0000       0.264907         7.2085 
  45   0.0000       0.280363         7.6291 
  46   0.0000       0.312159         8.4943 
  47   0.0000       0.334891         9.1128 
  48   0.0000       0.347664         9.4604 
  49   0.0000       0.431128        11.7316 
  50   0.0000       0.450772        12.2661 
  51   0.0000       0.468569        12.7504 
  52   0.0000       0.486211        13.2305 
  53   0.0000       0.495230        13.4759 
  54   0.0000       0.526139        14.3170 
  55   0.0000       0.535641        14.5755 
  56   0.0000       0.547266        14.8919 
  57   0.0000       0.549038        14.9401 
  58   0.0000       0.554745        15.0954 
  59   0.0000       0.562667        15.3109 
  60   0.0000       0.585182        15.9236 
  61   0.0000       0.597930        16.2705 
  62   0.0000       0.607110        16.5203 
  63   0.0000       0.613950        16.7064 
  64   0.0000       0.625467        17.0198 
  65   0.0000       0.633516        17.2389 
  66   0.0000       0.636216        17.3123 
  67   0.0000       0.652645        17.7594 
  68   0.0000       0.659447        17.9445 
  69   0.0000       0.678114        18.4524 
  70   0.0000       0.696107        18.9420 
  71   0.0000       0.697364        18.9763 
  72   0.0000       0.703243        19.1362 
  73   0.0000       0.715477        19.4691 
  74   0.0000       0.742480        20.2039 
  75   0.0000       0.765242        20.8233 
  76   0.0000       0.772439        21.0191 
  77   0.0000       0.784340        21.3430 
  78   0.0000       0.790451        21.5093 
  79   0.0000       0.796333        21.6693 
  80   0.0000       0.815138        22.1810 
  81   0.0000       0.821031        22.3414 
  82   0.0000       0.871632        23.7183 
  83   0.0000       0.885304        24.0903 
  84   0.0000       0.901494        24.5309 
  85   0.0000       0.951660        25.8960 
  86   0.0000       0.974402        26.5148 
  87   0.0000       0.995972        27.1018 
  88   0.0000       1.024823        27.8869 
  89   0.0000       1.057883        28.7865 
  90   0.0000       1.067813        29.0567 
  91   0.0000       1.332022        36.2462 
  92   0.0000       1.364667        37.1345 
  93   0.0000       1.374518        37.4025 
  94   0.0000       1.380071        37.5536 
  95   0.0000       1.390620        37.8407 
  96   0.0000       1.414889        38.5011 
  97   0.0000       1.441760        39.2323 
  98   0.0000       1.444969        39.3196 
  99   0.0000       1.448378        39.4124 
 100   0.0000       1.474534        40.1241 
 101   0.0000       1.486277        40.4436 
 102   0.0000       1.496441        40.7202 
 103   0.0000       1.504034        40.9269 
 104   0.0000       1.523375        41.4531 
 105   0.0000       1.535684        41.7881 
 106   0.0000       1.569449        42.7069 
 107   0.0000       1.582544        43.0632 
 108   0.0000       1.593691        43.3665 
 109   0.0000       1.620970        44.1088 
 110   0.0000       1.631041        44.3829 
 111   0.0000       1.642397        44.6919 
 112   0.0000       1.777853        48.3778 
 113   0.0000       1.807805        49.1929 
 114   0.0000       1.829267        49.7769 
 115   0.0000       1.836327        49.9690 
 116   0.0000       1.852753        50.4160 
 117   0.0000       1.871192        50.9177 
 118   0.0000       1.884227        51.2724 
 119   0.0000       1.903386        51.7938 
 120   0.0000       1.919472        52.2315 
 121   0.0000       1.946737        52.9734 
 122   0.0000       1.959479        53.3201 
 123   0.0000       2.004674        54.5500 
 124   0.0000       2.041369        55.5485 
 125   0.0000       2.042048        55.5670 
 126   0.0000       2.046969        55.7009 
 127   0.0000       2.049974        55.7826 
 128   0.0000       2.066303        56.2270 
 129   0.0000       2.096897        57.0595 
 130   0.0000       2.115581        57.5679 
 131   0.0000       2.151155        58.5359 
 132   0.0000       2.183164        59.4069 
 133   0.0000       2.227551        60.6148 
 134   0.0000       2.247528        61.1583 
 135   0.0000       2.285867        62.2016 
 136   0.0000       2.296579        62.4931 
 137   0.0000       2.316834        63.0443 
 138   0.0000       2.323734        63.2320 
 139   0.0000       2.330433        63.4143 
 140   0.0000       2.340263        63.6818 
 141   0.0000       2.348584        63.9082 
 142   0.0000       2.355006        64.0830 
 143   0.0000       2.363937        64.3260 
 144   0.0000       2.383808        64.8667 
 145   0.0000       2.400695        65.3262 
 146   0.0000       2.406490        65.4839 
 147   0.0000       2.409736        65.5722 
 148   0.0000       2.442970        66.4766 
 149   0.0000       2.495079        67.8945 
 150   0.0000       2.511513        68.3417 
 151   0.0000       2.524405        68.6926 
 152   0.0000       2.553919        69.4957 
 153   0.0000       2.571014        69.9608 
 154   0.0000       2.583301        70.2952 
 155   0.0000       2.583820        70.3093 
 156   0.0000       2.596607        70.6573 
 157   0.0000       2.628394        71.5222 
 158   0.0000       2.639877        71.8347 
 159   0.0000       2.646395        72.0121 
 160   0.0000       2.656950        72.2993 
 161   0.0000       2.673971        72.7624 
 162   0.0000       2.680051        72.9279 
 163   0.0000       2.688597        73.1604 
 164   0.0000       2.730922        74.3122 
 165   0.0000       2.737523        74.4918 
 166   0.0000       2.780294        75.6557 
 167   0.0000       2.804416        76.3120 
 168   0.0000       2.858713        77.7895 
 169   0.0000       2.908581        79.1465 
 170   0.0000       2.916072        79.3504 
 171   0.0000       2.942834        80.0786 
 172   0.0000       2.948325        80.2280 
 173   0.0000       2.969809        80.8126 
 174   0.0000       2.989420        81.3463 
 175   0.0000       2.995871        81.5218 
 176   0.0000       3.007274        81.8321 
 177   0.0000       3.019211        82.1569 
 178   0.0000       3.024911        82.3120 
 179   0.0000       3.046931        82.9112 
 180   0.0000       3.052098        83.0518 
 181   0.0000       3.080060        83.8127 
 182   0.0000       3.094108        84.1950 
 183   0.0000       3.121396        84.9375 
 184   0.0000       3.123462        84.9937 
 185   0.0000       3.139387        85.4271 
 186   0.0000       3.164753        86.1173 
 187   0.0000       3.221401        87.6588 
 188   0.0000       3.227399        87.8220 
 189   0.0000       3.249965        88.4360 
 190   0.0000       3.255956        88.5991 
 191   0.0000       3.279371        89.2362 
 192   0.0000       3.337755        90.8249 
 193   0.0000       3.361170        91.4621 
 194   0.0000       3.518175        95.7344 
 195   0.0000       3.522545        95.8533 
 196   0.0000       3.953045       107.5678 
 197   0.0000       4.008659       109.0812 
 198   0.0000       4.044522       110.0570 
 199   0.0000       4.063106       110.5627 
 200   0.0000       4.078890       110.9922 
 201   0.0000       4.118587       112.0724 
 202   0.0000       4.136504       112.5600 
 203   0.0000       4.248913       115.6188 
 204   0.0000       4.289916       116.7345 
 205   0.0000       4.307023       117.2000 
 206   0.0000       4.314893       117.4142 
 207   0.0000       4.354584       118.4943 
 208   0.0000       4.401327       119.7662 
 209   0.0000       4.405118       119.8694 
 210   0.0000       5.479989       149.1181 
 211   0.0000       5.527634       150.4146 
 212   0.0000       5.530363       150.4888 
 213   0.0000       5.537581       150.6853 
 214   0.0000       5.572322       151.6306 
 215   0.0000       5.573844       151.6720 
 216   0.0000       5.581574       151.8824 
 217   0.0000       5.586699       152.0218 
 218   0.0000       5.639919       153.4700 
 219   0.0000       5.665662       154.1705 
 220   0.0000       5.667799       154.2286 
 221   0.0000       5.682186       154.6201 
 222   0.0000       5.686966       154.7502 
 223   0.0000       5.692898       154.9116 
 224   0.0000       5.743053       156.2764 
 225   0.0000       5.782910       157.3610 
 226   0.0000       5.800967       157.8523 
 227   0.0000       5.818180       158.3207 
 228   0.0000       5.819062       158.3447 
 229   0.0000       5.830236       158.6488 
 230   0.0000       5.831933       158.6950 
 231   0.0000       5.846913       159.1026 
 232   0.0000       5.853803       159.2901 
 233   0.0000       5.858374       159.4144 
 234   0.0000       5.867208       159.6548 
 235   0.0000       5.871973       159.7845 
 236   0.0000       5.875077       159.8690 
 237   0.0000       5.878293       159.9565 
 238   0.0000       5.884717       160.1313 
 239   0.0000       5.890059       160.2766 
 240   0.0000       5.895281       160.4188 
 241   0.0000       5.915618       160.9721 
 242   0.0000       5.936757       161.5474 
 243   0.0000       5.957472       162.1111 
 244   0.0000       5.962833       162.2569 
 245   0.0000       6.361718       173.1112 
 246   0.0000       6.446972       175.4310 
 247   0.0000       6.466824       175.9712 
 248   0.0000       6.483145       176.4153 
 249   0.0000       6.500423       176.8855 
 250   0.0000       6.502127       176.9319 
 251   0.0000       6.529671       177.6814 
 252   0.0000       6.632573       180.4815 
 253   0.0000       6.668050       181.4469 
 254   0.0000       6.694621       182.1699 
 255   0.0000       6.713397       182.6808 
 256   0.0000       6.732557       183.2022 
 257   0.0000       6.755719       183.8325 
 258   0.0000       6.762633       184.0206 
 259   0.0000       6.818685       185.5459 
 260   0.0000       6.835336       185.9990 
 261   0.0000       6.838639       186.0888 
 262   0.0000       6.846026       186.2898 
 263   0.0000       6.852835       186.4751 
 264   0.0000       6.870450       186.9545 
 265   0.0000       6.872994       187.0237 
 266   0.0000       6.884665       187.3413 
 267   0.0000       6.911236       188.0643 
 268   0.0000       6.916283       188.2016 
 269   0.0000       6.919564       188.2909 
 270   0.0000       6.929601       188.5640 
 271   0.0000       6.940558       188.8622 
 272   0.0000       6.960888       189.4154 
 273   0.0000       6.971482       189.7037 
 274   0.0000       6.984294       190.0523 
 275   0.0000       6.989508       190.1942 
 276   0.0000       6.999450       190.4647 
 277   0.0000       7.007404       190.6812 
 278   0.0000       7.086598       192.8361 
 279   0.0000       7.092663       193.0012 
 280   0.0000       7.312450       198.9819 
 281   0.0000       7.356455       200.1793 
 282   0.0000       7.396193       201.2606 
 283   0.0000       7.425730       202.0644 
 284   0.0000       7.444428       202.5732 
 285   0.0000       7.448315       202.6790 
 286   0.0000       7.503070       204.1689 
 287   0.0000       7.503703       204.1861 
 288   0.0000       7.528623       204.8642 
 289   0.0000       7.533787       205.0048 
 290   0.0000       7.568150       205.9398 
 291   0.0000       7.573438       206.0837 
 292   0.0000       7.583119       206.3472 
 293   0.0000       7.592039       206.5899 
 294   0.0000      44.872701      1221.0483 
 295   0.0000      44.914141      1222.1759 
 296   0.0000      44.939564      1222.8677 
 297   0.0000      44.964451      1223.5449 
 298   0.0000      44.977343      1223.8957 
 299   0.0000      44.997277      1224.4381 
 300   0.0000      45.015328      1224.9293 

                    ********************************
                    * MULLIKEN POPULATION ANALYSIS *
                    ********************************

-----------------------
MULLIKEN ATOMIC CHARGES
-----------------------
   0 O :   -0.771297
   1 H :    0.342937
   2 H :    0.410369
   3 O :   -0.766371
   4 H :    0.336721
   5 H :    0.392239
   6 O :   -0.738714
   7 H :    0.393365
   8 H :    0.347508
   9 O :   -0.733360
  10 H :    0.372355
  11 H :    0.388314
  12 O :   -0.742553
  13 H :    0.338971
  14 H :    0.383910
  15 O :   -0.752278
  16 H :    0.380317
  17 H :    0.389275
  18 O :   -0.735950
  19 H :    0.403674
  20 H :    0.360568
Sum of atomic charges:   -0.0000000

--------------------------------
MULLIKEN REDUCED ORBITAL CHARGES
--------------------------------
  0 O s       :     3.807807  s :     3.807807
      pz      :     1.728891  p :     4.939037
      px      :     1.428834
      py      :     1.781311
      dz2     :     0.004063  d :     0.023028
      dxz     :     0.004878
      dyz     :     0.005292
      dx2y2   :     0.002280
      dxy     :     0.006516
      f0      :     0.000089  f :     0.001424
      f+1     :     0.000333
      f-1     :     0.000176
      f+2     :     0.000061
      f-2     :     0.000355
      f+3     :     0.000082
      f-3     :     0.000329
  1 H s       :     0.611282  s :     0.611282
      pz      :     0.017141  p :     0.045781
      px      :     0.013704
      py      :     0.014935
  2 H s       :     0.533501  s :     0.533501
      pz      :     0.010521  p :     0.056130
      px      :     0.032430
      py      :     0.013179
  3 O s       :     3.807782  s :     3.807782
      pz      :     1.722123  p :     4.933373
      px      :     1.801161
      py      :     1.410089
      dz2     :     0.004083  d :     0.023752
      dxz     :     0.005571
      dyz     :     0.004738
      dx2y2   :     0.002338
      dxy     :     0.007022
      f0      :     0.000088  f :     0.001465
      f+1     :     0.000183
      f-1     :     0.000329
      f+2     :     0.000069
      f-2     :     0.000359
      f+3     :     0.000349
      f-3     :     0.000088
  4 H s       :     0.617305  s :     0.617305
      pz      :     0.017169  p :     0.045974
      px      :     0.015022
      py      :     0.013783
  5 H s       :     0.550682  s :     0.550682
      pz      :     0.010796  p :     0.057079
      px      :     0.014049
      py      :     0.032234
  6 O s       :     3.808170  s :     3.808170
      pz      :     1.588069  p :     4.905344
      px      :     1.876575
      py      :     1.440700
      dz2     :     0.010048  d :     0.023720
      dxz     :     0.002470
      dyz     :     0.002491
      dx2y2   :     0.003107
      dxy     :     0.005603
      f0      :     0.000186  f :     0.001481
      f+1     :     0.000124
      f-1     :     0.000431
      f+2     :     0.000079
      f-2     :     0.000037
      f+3     :     0.000493
      f-3     :     0.000130
  7 H s       :     0.557351  s :     0.557351
      pz      :     0.024436  p :     0.049284
      px      :     0.013438
      py      :     0.011410
  8 H s       :     0.609183  s :     0.609183
      pz      :     0.009754  p :     0.043309
      px      :     0.015285
      py      :     0.018270
  9 O s       :     3.796650  s :     3.796650
      pz      :     1.530931  p :     4.910232
      px      :     1.588595
      py      :     1.790706
      dz2     :     0.012282  d :     0.025073
      dxz     :     0.001219
      dyz     :     0.002397
      dx2y2   :     0.002404
      dxy     :     0.006772
      f0      :     0.000251  f :     0.001405
      f+1     :     0.000388
      f-1     :     0.000158
      f+2     :     0.000052
      f-2     :     0.000056
      f+3     :     0.000050
      f-3     :     0.000449
 10 H s       :     0.584097  s :     0.584097
      pz      :     0.019408  p :     0.043548
      px      :     0.011593
      py      :     0.012547
 11 H s       :     0.562333  s :     0.562333
      pz      :     0.009782  p :     0.049353
      px      :     0.023840
      py      :     0.015731
 12 O s       :     3.809535  s :     3.809535
      pz      :     1.495145  p :     4.906463
      px      :     1.825994
      py      :     1.585324
      dz2     :     0.011906  d :     0.025078
      dxz     :     0.002888
      dyz     :     0.001254
      dx2y2   :     0.001977
      dxy     :     0.007052
      f0      :     0.000273  f :     0.001477
      f+1     :     0.000168
      f-1     :     0.000381
      f+2     :     0.000056
      f-2     :     0.000055
      f+3     :     0.000482
      f-3     :     0.000062
 13 H s       :     0.616348  s :     0.616348
      pz      :     0.018736  p :     0.044681
      px      :     0.013695
      py      :     0.012250
 14 H s       :     0.565930  s :     0.565930
      pz      :     0.009654  p :     0.050160
      px      :     0.016260
      py      :     0.024246
 15 O s       :     3.808288  s :     3.808288
      pz      :     1.734638  p :     4.918746
      px      :     1.795453
      py      :     1.388654
      dz2     :     0.003973  d :     0.023778
      dxz     :     0.005392
      dyz     :     0.004466
      dx2y2   :     0.002527
      dxy     :     0.007420
      f0      :     0.000085  f :     0.001466
      f+1     :     0.000177
      f-1     :     0.000334
      f+2     :     0.000062
      f-2     :     0.000346
      f+3     :     0.000370
      f-3     :     0.000092
 16 H s       :     0.574906  s :     0.574906
      pz      :     0.017000  p :     0.044777
      px      :     0.014498
      py      :     0.013279
 17 H s       :     0.570283  s :     0.570283
      pz      :     0.010353  p :     0.040442
      px      :     0.011946
      py      :     0.018143
 18 O s       :     3.797343  s :     3.797343
      pz      :     1.576118  p :     4.912256
      px      :     1.787223
      py      :     1.548916
      dz2     :     0.011857  d :     0.024951
      dxz     :     0.002379
      dyz     :     0.001183
      dx2y2   :     0.002420
      dxy     :     0.007112
      f0      :     0.000227  f :     0.001400
      f+1     :     0.000156
      f-1     :     0.000384
      f+2     :     0.000051
      f-2     :     0.000055
      f+3     :     0.000476
      f-3     :     0.000052
 19 H s       :     0.548612  s :     0.548612
      pz      :     0.025024  p :     0.047714
      px      :     0.011732
      py      :     0.010957
 20 H s       :     0.595720  s :     0.595720
      pz      :     0.010536  p :     0.043712
      px      :     0.014794
      py      :     0.018381


                     *******************************
                     * LOEWDIN POPULATION ANALYSIS *
                     *******************************

----------------------
LOEWDIN ATOMIC CHARGES
----------------------
   0 O :   -0.347455
   1 H :    0.151804
   2 H :    0.156019
   3 O :   -0.377781
   4 H :    0.149284
   5 H :    0.150457
   6 O :   -0.329675
   7 H :    0.158884
   8 H :    0.171279
   9 O :   -0.290938
  10 H :    0.175492
  11 H :    0.157547
  12 O :   -0.355358
  13 H :    0.159702
  14 H :    0.154520
  15 O :   -0.298153
  16 H :    0.170810
  17 H :    0.196184
  18 O :   -0.288079
  19 H :    0.164394
  20 H :    0.171062

-------------------------------
LOEWDIN REDUCED ORBITAL CHARGES
-------------------------------
  0 O s       :     3.461577  s :     3.461577
      pz      :     1.708728  p :     4.854690
      px      :     1.400380
      py      :     1.745582
      dz2     :     0.004379  d :     0.029211
      dxz     :     0.007166
      dyz     :     0.005479
      dx2y2   :     0.003663
      dxy     :     0.008523
      f0      :     0.000075  f :     0.001976
      f+1     :     0.000438
      f-1     :     0.000264
      f+2     :     0.000032
      f-2     :     0.000625
      f+3     :     0.000083
      f-3     :     0.000459
  1 H s       :     0.683344  s :     0.683344
      pz      :     0.065831  p :     0.164852
      px      :     0.045904
      py      :     0.053117
  2 H s       :     0.648088  s :     0.648088
      pz      :     0.033359  p :     0.195893
      px      :     0.115121
      py      :     0.047412
  3 O s       :     3.467788  s :     3.467788
      pz      :     1.706304  p :     4.878450
      px      :     1.779701
      py      :     1.392445
      dz2     :     0.004310  d :     0.029538
      dxz     :     0.005759
      dyz     :     0.007160
      dx2y2   :     0.003388
      dxy     :     0.008921
      f0      :     0.000073  f :     0.002005
      f+1     :     0.000264
      f-1     :     0.000440
      f+2     :     0.000034
      f-2     :     0.000630
      f+3     :     0.000478
      f-3     :     0.000085
  4 H s       :     0.686363  s :     0.686363
      pz      :     0.065591  p :     0.164353
      px      :     0.053122
      py      :     0.045639
  5 H s       :     0.654500  s :     0.654500
      pz      :     0.033661  p :     0.195043
      px      :     0.047782
      py      :     0.113600
  6 O s       :     3.464285  s :     3.464285
      pz      :     1.553830  p :     4.832294
      px      :     1.833782
      py      :     1.444681
      dz2     :     0.014093  d :     0.031030
      dxz     :     0.001625
      dyz     :     0.003715
      dx2y2   :     0.004397
      dxy     :     0.007201
      f0      :     0.000358  f :     0.002066
      f+1     :     0.000193
      f-1     :     0.000704
      f+2     :     0.000043
      f-2     :     0.000040
      f+3     :     0.000652
      f-3     :     0.000074
  7 H s       :     0.669812  s :     0.669812
      pz      :     0.093175  p :     0.171304
      px      :     0.042731
      py      :     0.035397
  8 H s       :     0.675104  s :     0.675104
      pz      :     0.030513  p :     0.153617
      px      :     0.049197
      py      :     0.073907
  9 O s       :     3.453200  s :     3.453200
      pz      :     1.520284  p :     4.803776
      px      :     1.550850
      py      :     1.732642
      dz2     :     0.016091  d :     0.031847
      dxz     :     0.001960
      dyz     :     0.001911
      dx2y2   :     0.003483
      dxy     :     0.008402
      f0      :     0.000457  f :     0.002115
      f+1     :     0.000573
      f-1     :     0.000336
      f+2     :     0.000022
      f-2     :     0.000050
      f+3     :     0.000026
      f-3     :     0.000652
 10 H s       :     0.665077  s :     0.665077
      pz      :     0.081304  p :     0.159431
      px      :     0.036432
      py      :     0.041695
 11 H s       :     0.669023  s :     0.669023
      pz      :     0.029883  p :     0.173430
      px      :     0.085550
      py      :     0.057997
 12 O s       :     3.466903  s :     3.466903
      pz      :     1.505628  p :     4.855239
      px      :     1.795642
      py      :     1.553969
      dz2     :     0.016116  d :     0.031116
      dxz     :     0.002372
      dyz     :     0.002220
      dx2y2   :     0.001960
      dxy     :     0.008448
      f0      :     0.000502  f :     0.002101
      f+1     :     0.000315
      f-1     :     0.000576
      f+2     :     0.000025
      f-2     :     0.000050
      f+3     :     0.000630
      f-3     :     0.000002
 13 H s       :     0.682087  s :     0.682087
      pz      :     0.079316  p :     0.158211
      px      :     0.042404
      py      :     0.036491
 14 H s       :     0.670584  s :     0.670584
      pz      :     0.029387  p :     0.174896
      px      :     0.058154
      py      :     0.087355
 15 O s       :     3.461358  s :     3.461358
      pz      :     1.688452  p :     4.803796
      px      :     1.747529
      py      :     1.367815
      dz2     :     0.005354  d :     0.030959
      dxz     :     0.005228
      dyz     :     0.006565
      dx2y2   :     0.004169
      dxy     :     0.009642
      f0      :     0.000089  f :     0.002041
      f+1     :     0.000267
      f-1     :     0.000444
      f+2     :     0.000033
      f-2     :     0.000592
      f+3     :     0.000528
      f-3     :     0.000089
 16 H s       :     0.664981  s :     0.664981
      pz      :     0.066802  p :     0.164208
      px      :     0.052655
      py      :     0.044751
 17 H s       :     0.654406  s :     0.654406
      pz      :     0.033221  p :     0.149410
      px      :     0.043448
      py      :     0.072740
 18 O s       :     3.452767  s :     3.452767
      pz      :     1.545717  p :     4.801521
      px      :     1.725595
      py      :     1.530209
      dz2     :     0.015219  d :     0.031687
      dxz     :     0.001811
      dyz     :     0.001739
      dx2y2   :     0.003662
      dxy     :     0.009256
      f0      :     0.000402  f :     0.002104
      f+1     :     0.000334
      f-1     :     0.000559
      f+2     :     0.000020
      f-2     :     0.000046
      f+3     :     0.000716
      f-3     :     0.000026
 19 H s       :     0.663666  s :     0.663666
      pz      :     0.094865  p :     0.171940
      px      :     0.041239
      py      :     0.035836
 20 H s       :     0.670479  s :     0.670479
      pz      :     0.031198  p :     0.158459
      px      :     0.054871
      py      :     0.072390


                      *****************************
                      * MAYER POPULATION ANALYSIS *
                      *****************************

  NA   - Mulliken gross atomic population
  ZA   - Total nuclear charge
  QA   - Mulliken gross atomic charge
  VA   - Mayer's total valence
  BVA  - Mayer's bonded valence
  FA   - Mayer's free valence

  ATOM       NA         ZA         QA         VA         BVA        FA
  0 O      8.7713     8.0000    -0.7713     1.6949     1.6949    -0.0000
  1 H      0.6571     1.0000     0.3429     0.8987     0.8987     0.0000
  2 H      0.5896     1.0000     0.4104     0.8644     0.8644     0.0000
  3 O      8.7664     8.0000    -0.7664     1.6898     1.6898    -0.0000
  4 H      0.6633     1.0000     0.3367     0.9024     0.9024    -0.0000
  5 H      0.6078     1.0000     0.3922     0.8845     0.8845    -0.0000
  6 O      8.7387     8.0000    -0.7387     1.7466     1.7466    -0.0000
  7 H      0.6066     1.0000     0.3934     0.8726     0.8726    -0.0000
  8 H      0.6525     1.0000     0.3475     0.8953     0.8953    -0.0000
  9 O      8.7334     8.0000    -0.7334     1.7531     1.7531    -0.0000
 10 H      0.6276     1.0000     0.3724     0.8761     0.8761    -0.0000
 11 H      0.6117     1.0000     0.3883     0.8765     0.8765     0.0000
 12 O      8.7426     8.0000    -0.7426     1.7294     1.7294     0.0000
 13 H      0.6610     1.0000     0.3390     0.8987     0.8987     0.0000
 14 H      0.6161     1.0000     0.3839     0.8903     0.8903     0.0000
 15 O      8.7523     8.0000    -0.7523     1.7482     1.7482     0.0000
 16 H      0.6197     1.0000     0.3803     0.8710     0.8710     0.0000
 17 H      0.6107     1.0000     0.3893     0.8643     0.8643     0.0000
 18 O      8.7360     8.0000    -0.7360     1.7482     1.7482    -0.0000
 19 H      0.5963     1.0000     0.4037     0.8628     0.8628    -0.0000
 20 H      0.6394     1.0000     0.3606     0.8881     0.8881    -0.0000

  Mayer bond orders larger than 0.100000
B(  0-O ,  1-H ) :   0.8901 B(  0-O ,  2-H ) :   0.7921 B(  3-O ,  4-H ) :   0.8967 
B(  3-O ,  5-H ) :   0.8116 B(  6-O ,  7-H ) :   0.8425 B(  6-O ,  8-H ) :   0.8845 
B(  9-O , 10-H ) :   0.8692 B(  9-O , 11-H ) :   0.8443 B( 12-O , 13-H ) :   0.8951 
B( 12-O , 14-H ) :   0.8372 B( 15-O , 16-H ) :   0.8625 B( 15-O , 17-H ) :   0.8498 
B( 18-O , 19-H ) :   0.8309 B( 18-O , 20-H ) :   0.8756 

-------
TIMINGS
-------

Total SCF time: 0 days 0 hours 0 min 17 sec 

Total time                  ....      17.891 sec
Sum of individual times     ....      17.210 sec  ( 96.2%)

Fock matrix formation       ....      15.646 sec  ( 87.5%)
Diagonalization             ....       0.482 sec  (  2.7%)
Density matrix formation    ....       0.018 sec  (  0.1%)
Population analysis         ....       0.028 sec  (  0.2%)
Initial guess               ....       0.349 sec  (  2.0%)
Orbital Transformation      ....       0.000 sec  (  0.0%)
Orbital Orthonormalization  ....       0.000 sec  (  0.0%)
DIIS solution               ....       0.142 sec  (  0.8%)
SOSCF solution              ....       0.194 sec  (  1.1%)


           ************************************************************
           *        Program running with 6 parallel MPI-processes     *
           *              working on a common directory               *
           ************************************************************

------------------------------------------------------------------------------
                                ORCA  MP2 
------------------------------------------------------------------------------

Freezing NCore=14 chemical core electrons
MP2 will be done in the AO integral direct mode
The Q1-step will be done using symmetric double matrices
Dimension of the basis                    ...  301
Memory devoted for MP2                    ... 8000 MB   
Memory needed for all in one shot         ...  523 MB
Number of MOs that can be treated together...   75      
MP2 density construction                  ... relaxed
The MP2 gradient is requested => amplitudes will be stored on disk
Total number of MOs              ...   28
Number of MOs treated per batch  ...    5 
Number of batches necessary      ...    1 
OPERATORS   0/  0 PASS   0
-----------------------------------------------
 MP2 CORRELATION ENERGY   :     -1.806851057 Eh
-----------------------------------------------


---------------------
MP2 DENSITY FORMATION
---------------------

Completing the external part of the density      ... done
Storing the unrelaxed density                    ... done

Calculating G(D)                                 ... done
Completing the Lagrangian                        ... done
Solving the Z-vector equations                   ... 

------------------------------------------------------------------------------
                           ORCA CP-SCF CALCULATION
------------------------------------------------------------------------------

Input orbitals are from        ... 12h2o.su.etal.mol0,2,4,8,9,10,11-orca.engrad-mp2.def2tzvp.frozencore.gbw
Input Perturbation             ... 12h2o.su.etal.mol0,2,4,8,9,10,11-orca.engrad-mp2.def2tzvp.frozencore.pin.tmp
Wavefunction output            ... 12h2o.su.etal.mol0,2,4,8,9,10,11-orca.engrad-mp2.def2tzvp.frozencore.pout.tmp
Perturbation mode              ... Real perturbation (singlet)
Solver                         ... POPLE
Max. number of iterations      ... 128
Convergence tolerance          ... 1.000e-08
Integral handling              ... Direct
Number of perturbations        ... 1
Number of operators            ... 1
Orbital ranges used for CP-SCF:
 Operator 0:  Orbitals   0... 34  to  35...300
Variables per vector in CP-SCF ... 9310
Number of vectors sought       ... 1
     CP-SCF ITERATION   0: 
     CP-SCF ITERATION   1:      0.000851133628
     CP-SCF ITERATION   2:      0.000020838701
     CP-SCF ITERATION   3:      0.000000758156
     CP-SCF ITERATION   4:      0.000000081559
     CP-SCF ITERATION   5:      0.000000006828
                                                 ... done
Finalizing the relaxed density                   ... done
Transforming P to the AO basis                   ... done
Storing the relaxed density                      ... done

------------------------------------
ENERGY WEIGHTED DENSITY FINALIZATION
------------------------------------

Gathering the parts of the W-matrix              ...                                                      done
Forming the Z-density                            ... done
Transforming Z to the AO basis                   ... done
Calculating G(Z)                                 ... done
Finalizing the W-matrix                          ...                                                      done
Transforming W to the AO basis and storing       ... done

                *********************************************
                * UNRELAXED MP2 DENSITY POPULATION ANALYSIS *
                *********************************************

------------------------------------------------------------------------------
                           ORCA POPULATION ANALYSIS
------------------------------------------------------------------------------
Input electron density              ... 12h2o.su.etal.mol0,2,4,8,9,10,11-orca.engrad-mp2.def2tzvp.frozencore.pmp2ur
BaseName (.gbw .S,...)              ... 12h2o.su.etal.mol0,2,4,8,9,10,11-orca.engrad-mp2.def2tzvp.frozencore

                    ********************************
                    * MULLIKEN POPULATION ANALYSIS *
                    ********************************

-----------------------
MULLIKEN ATOMIC CHARGES
-----------------------
   0 O :   -0.765122
   1 H :    0.340628
   2 H :    0.405811
   3 O :   -0.760871
   4 H :    0.334466
   5 H :    0.387690
   6 O :   -0.733110
   7 H :    0.390558
   8 H :    0.344795
   9 O :   -0.726864
  10 H :    0.369900
  11 H :    0.385127
  12 O :   -0.737263
  13 H :    0.336581
  14 H :    0.380351
  15 O :   -0.746473
  16 H :    0.378114
  17 H :    0.386353
  18 O :   -0.729335
  19 H :    0.400707
  20 H :    0.357956
Sum of atomic charges:   -0.0000000

--------------------------------
MULLIKEN REDUCED ORBITAL CHARGES
--------------------------------
  0 O s       :     3.802817  s :     3.802817
      pz      :     1.718294  p :     4.907821
      px      :     1.420177
      py      :     1.769350
      dz2     :     0.009568  d :     0.050477
      dxz     :     0.010281
      dyz     :     0.010727
      dx2y2   :     0.007911
      dxy     :     0.011990
      f0      :     0.000459  f :     0.004006
      f+1     :     0.000699
      f-1     :     0.000541
      f+2     :     0.000432
      f-2     :     0.000721
      f+3     :     0.000458
      f-3     :     0.000698
  1 H s       :     0.611918  s :     0.611918
      pz      :     0.017638  p :     0.047455
      px      :     0.014162
      py      :     0.015655
  2 H s       :     0.536423  s :     0.536423
      pz      :     0.011342  p :     0.057765
      px      :     0.032539
      py      :     0.013884
  3 O s       :     3.802854  s :     3.802854
      pz      :     1.711702  p :     4.903203
      px      :     1.789862
      py      :     1.401639
      dz2     :     0.009549  d :     0.050782
      dxz     :     0.010903
      dyz     :     0.010108
      dx2y2   :     0.007837
      dxy     :     0.012385
      f0      :     0.000456  f :     0.004032
      f+1     :     0.000546
      f-1     :     0.000693
      f+2     :     0.000437
      f-2     :     0.000724
      f+3     :     0.000715
      f-3     :     0.000461
  4 H s       :     0.617844  s :     0.617844
      pz      :     0.017680  p :     0.047690
      px      :     0.015762
      py      :     0.014248
  5 H s       :     0.553549  s :     0.553549
      pz      :     0.011634  p :     0.058762
      px      :     0.014786
      py      :     0.032341
  6 O s       :     3.803337  s :     3.803337
      pz      :     1.578083  p :     4.874864
      px      :     1.864745
      py      :     1.432036
      dz2     :     0.015426  d :     0.050861
      dxz     :     0.008089
      dyz     :     0.007888
      dx2y2   :     0.008519
      dxy     :     0.010938
      f0      :     0.000572  f :     0.004047
      f+1     :     0.000499
      f-1     :     0.000799
      f+2     :     0.000441
      f-2     :     0.000402
      f+3     :     0.000842
      f-3     :     0.000492
  7 H s       :     0.558660  s :     0.558660
      pz      :     0.024546  p :     0.050782
      px      :     0.014268
      py      :     0.011968
  8 H s       :     0.610263  s :     0.610263
      pz      :     0.010583  p :     0.044942
      px      :     0.016065
      py      :     0.018293
  9 O s       :     3.791479  s :     3.791479
      pz      :     1.521712  p :     4.878985
      px      :     1.579064
      py      :     1.778208
      dz2     :     0.017413  d :     0.052399
      dxz     :     0.006665
      dyz     :     0.007981
      dx2y2   :     0.008110
      dxy     :     0.012230
      f0      :     0.000631  f :     0.004002
      f+1     :     0.000756
      f-1     :     0.000534
      f+2     :     0.000415
      f-2     :     0.000424
      f+3     :     0.000428
      f-3     :     0.000814
 10 H s       :     0.585004  s :     0.585004
      pz      :     0.019468  p :     0.045096
      px      :     0.012270
      py      :     0.013358
 11 H s       :     0.563983  s :     0.563983
      pz      :     0.010544  p :     0.050890
      px      :     0.024046
      py      :     0.016300
 12 O s       :     3.804687  s :     3.804687
      pz      :     1.486322  p :     4.876745
      px      :     1.814478
      py      :     1.575944
      dz2     :     0.016929  d :     0.051792
      dxz     :     0.008325
      dyz     :     0.006648
      dx2y2   :     0.007527
      dxy     :     0.012363
      f0      :     0.000648  f :     0.004039
      f+1     :     0.000537
      f-1     :     0.000746
      f+2     :     0.000415
      f-2     :     0.000420
      f+3     :     0.000839
      f-3     :     0.000433
 13 H s       :     0.617036  s :     0.617036
      pz      :     0.018840  p :     0.046384
      px      :     0.014568
      py      :     0.012976
 14 H s       :     0.567948  s :     0.567948
      pz      :     0.010415  p :     0.051701
      px      :     0.016862
      py      :     0.024424
 15 O s       :     3.803455  s :     3.803455
      pz      :     1.723577  p :     4.887915
      px      :     1.783618
      py      :     1.380720
      dz2     :     0.009534  d :     0.051067
      dxz     :     0.010894
      dyz     :     0.009870
      dx2y2   :     0.008011
      dxy     :     0.012757
      f0      :     0.000457  f :     0.004036
      f+1     :     0.000545
      f-1     :     0.000697
      f+2     :     0.000431
      f-2     :     0.000712
      f+3     :     0.000730
      f-3     :     0.000464
 16 H s       :     0.575623  s :     0.575623
      pz      :     0.017445  p :     0.046263
      px      :     0.015168
      py      :     0.013649
 17 H s       :     0.571745  s :     0.571745
      pz      :     0.011160  p :     0.041902
      px      :     0.012680
      py      :     0.018062
 18 O s       :     3.792198  s :     3.792198
      pz      :     1.566430  p :     4.880855
      px      :     1.774880
      py      :     1.539545
      dz2     :     0.017084  d :     0.052285
      dxz     :     0.007994
      dyz     :     0.006630
      dx2y2   :     0.008062
      dxy     :     0.012515
      f0      :     0.000612  f :     0.003997
      f+1     :     0.000535
      f-1     :     0.000752
      f+2     :     0.000414
      f-2     :     0.000423
      f+3     :     0.000835
      f-3     :     0.000426
 19 H s       :     0.550134  s :     0.550134
      pz      :     0.025064  p :     0.049159
      px      :     0.012516
      py      :     0.011580
 20 H s       :     0.596759  s :     0.596759
      pz      :     0.011322  p :     0.045285
      px      :     0.015424
      py      :     0.018539


                     *******************************
                     * LOEWDIN POPULATION ANALYSIS *
                     *******************************

----------------------
LOEWDIN ATOMIC CHARGES
----------------------
   0 O :   -0.344086
   1 H :    0.150484
   2 H :    0.153457
   3 O :   -0.375441
   4 H :    0.148021
   5 H :    0.147930
   6 O :   -0.325956
   7 H :    0.156967
   8 H :    0.169565
   9 O :   -0.286875
  10 H :    0.174101
  11 H :    0.155432
  12 O :   -0.352763
  13 H :    0.158268
  14 H :    0.152339
  15 O :   -0.293718
  16 H :    0.169702
  17 H :    0.194401
  18 O :   -0.283837
  19 H :    0.162515
  20 H :    0.169494

-------------------------------
LOEWDIN REDUCED ORBITAL CHARGES
-------------------------------
  0 O s       :     3.457914  s :     3.457914
      pz      :     1.698164  p :     4.823670
      px      :     1.391992
      py      :     1.733513
      dz2     :     0.010003  d :     0.057747
      dxz     :     0.012792
      dyz     :     0.011240
      dx2y2   :     0.009376
      dxy     :     0.014336
      f0      :     0.000455  f :     0.004755
      f+1     :     0.000852
      f-1     :     0.000649
      f+2     :     0.000410
      f-2     :     0.001035
      f+3     :     0.000473
      f-3     :     0.000880
  1 H s       :     0.681413  s :     0.681413
      pz      :     0.067114  p :     0.168103
      px      :     0.046866
      py      :     0.054124
  2 H s       :     0.648274  s :     0.648274
      pz      :     0.034186  p :     0.198270
      px      :     0.115822
      py      :     0.048261
  3 O s       :     3.464160  s :     3.464160
      pz      :     1.695941  p :     4.848876
      px      :     1.768773
      py      :     1.384162
      dz2     :     0.009857  d :     0.057638
      dxz     :     0.011412
      dyz     :     0.012750
      dx2y2   :     0.008990
      dxy     :     0.014629
      f0      :     0.000451  f :     0.004767
      f+1     :     0.000646
      f-1     :     0.000852
      f+2     :     0.000410
      f-2     :     0.001039
      f+3     :     0.000896
      f-3     :     0.000472
  4 H s       :     0.684338  s :     0.684338
      pz      :     0.066896  p :     0.167641
      px      :     0.054138
      py      :     0.046607
  5 H s       :     0.654551  s :     0.654551
      pz      :     0.034500  p :     0.197519
      px      :     0.048655
      py      :     0.114364
  6 O s       :     3.460512  s :     3.460512
      pz      :     1.543340  p :     4.801334
      px      :     1.822334
      py      :     1.435661
      dz2     :     0.020048  d :     0.059281
      dxz     :     0.007172
      dyz     :     0.009162
      dx2y2   :     0.010027
      dxy     :     0.012872
      f0      :     0.000775  f :     0.004828
      f+1     :     0.000584
      f-1     :     0.001141
      f+2     :     0.000413
      f-2     :     0.000411
      f+3     :     0.001057
      f-3     :     0.000447
  7 H s       :     0.668932  s :     0.668932
      pz      :     0.094463  p :     0.174101
      px      :     0.043513
      py      :     0.036125
  8 H s       :     0.673530  s :     0.673530
      pz      :     0.031359  p :     0.156905
      px      :     0.050182
      py      :     0.075364
  9 O s       :     3.449402  s :     3.449402
      pz      :     1.510866  p :     4.772366
      px      :     1.541291
      py      :     1.720210
      dz2     :     0.021918  d :     0.060196
      dxz     :     0.007345
      dyz     :     0.007422
      dx2y2   :     0.009144
      dxy     :     0.014366
      f0      :     0.000878  f :     0.004910
      f+1     :     0.000995
      f-1     :     0.000736
      f+2     :     0.000390
      f-2     :     0.000425
      f+3     :     0.000409
      f-3     :     0.001077
 10 H s       :     0.663464  s :     0.663464
      pz      :     0.082758  p :     0.162435
      px      :     0.037186
      py      :     0.042491
 11 H s       :     0.668290  s :     0.668290
      pz      :     0.030631  p :     0.176277
      px      :     0.086719
      py      :     0.058927
 12 O s       :     3.463234  s :     3.463234
      pz      :     1.496458  p :     4.825754
      px      :     1.784636
      py      :     1.544660
      dz2     :     0.021857  d :     0.058919
      dxz     :     0.007750
      dyz     :     0.007550
      dx2y2   :     0.007482
      dxy     :     0.014280
      f0      :     0.000918  f :     0.004856
      f+1     :     0.000708
      f-1     :     0.000996
      f+2     :     0.000388
      f-2     :     0.000423
      f+3     :     0.001046
      f-3     :     0.000377
 13 H s       :     0.680212  s :     0.680212
      pz      :     0.081002  p :     0.161520
      px      :     0.043230
      py      :     0.037289
 14 H s       :     0.669988  s :     0.669988
      pz      :     0.030119  p :     0.177673
      px      :     0.059064
      py      :     0.088490
 15 O s       :     3.457593  s :     3.457593
      pz      :     1.676973  p :     4.772009
      px      :     1.735453
      py      :     1.359583
      dz2     :     0.011043  d :     0.059311
      dxz     :     0.011012
      dyz     :     0.012176
      dx2y2   :     0.009753
      dxy     :     0.015327
      f0      :     0.000473  f :     0.004804
      f+1     :     0.000654
      f-1     :     0.000854
      f+2     :     0.000409
      f-2     :     0.001000
      f+3     :     0.000941
      f-3     :     0.000474
 16 H s       :     0.663242  s :     0.663242
      pz      :     0.067933  p :     0.167056
      px      :     0.053594
      py      :     0.045529
 17 H s       :     0.653288  s :     0.653288
      pz      :     0.034038  p :     0.152311
      px      :     0.044403
      py      :     0.073871
 18 O s       :     3.448969  s :     3.448969
      pz      :     1.536073  p :     4.769924
      px      :     1.713183
      py      :     1.520669
      dz2     :     0.021106  d :     0.060046
      dxz     :     0.007354
      dyz     :     0.007139
      dx2y2   :     0.009286
      dxy     :     0.015161
      f0      :     0.000828  f :     0.004898
      f+1     :     0.000736
      f-1     :     0.000982
      f+2     :     0.000389
      f-2     :     0.000421
      f+3     :     0.001136
      f-3     :     0.000406
 19 H s       :     0.662845  s :     0.662845
      pz      :     0.096072  p :     0.174640
      px      :     0.042019
      py      :     0.036549
 20 H s       :     0.668946  s :     0.668946
      pz      :     0.031959  p :     0.161561
      px      :     0.055899
      py      :     0.073703


                      *****************************
                      * MAYER POPULATION ANALYSIS *
                      *****************************

  NA   - Mulliken gross atomic population
  ZA   - Total nuclear charge
  QA   - Mulliken gross atomic charge
  VA   - Mayer's total valence
  BVA  - Mayer's bonded valence
  FA   - Mayer's free valence

  ATOM       NA         ZA         QA         VA         BVA        FA
  0 O      8.7651     8.0000    -0.7651     2.0107     1.6169     0.3938
  1 H      0.6594     1.0000     0.3406     0.9046     0.8572     0.0474
  2 H      0.5942     1.0000     0.4058     0.8718     0.8268     0.0450
  3 O      8.7609     8.0000    -0.7609     2.0038     1.6117     0.3921
  4 H      0.6655     1.0000     0.3345     0.9084     0.8608     0.0476
  5 H      0.6123     1.0000     0.3877     0.8921     0.8461     0.0460
  6 O      8.7331     8.0000    -0.7331     2.0583     1.6664     0.3918
  7 H      0.6094     1.0000     0.3906     0.8784     0.8349     0.0435
  8 H      0.6552     1.0000     0.3448     0.9016     0.8526     0.0490
  9 O      8.7269     8.0000    -0.7269     2.0621     1.6743     0.3877
 10 H      0.6301     1.0000     0.3699     0.8818     0.8363     0.0455
 11 H      0.6149     1.0000     0.3851     0.8828     0.8383     0.0445
 12 O      8.7373     8.0000    -0.7373     2.0390     1.6504     0.3886
 13 H      0.6634     1.0000     0.3366     0.9048     0.8566     0.0482
 14 H      0.6196     1.0000     0.3804     0.8971     0.8521     0.0450
 15 O      8.7465     8.0000    -0.7465     2.0616     1.6693     0.3922
 16 H      0.6219     1.0000     0.3781     0.8763     0.8323     0.0440
 17 H      0.6136     1.0000     0.3864     0.8704     0.8239     0.0465
 18 O      8.7293     8.0000    -0.7293     2.0580     1.6698     0.3882
 19 H      0.5993     1.0000     0.4007     0.8687     0.8258     0.0429
 20 H      0.6420     1.0000     0.3580     0.8942     0.8473     0.0469

  Mayer bond orders larger than 0.100000
B(  0-O ,  1-H ) :   0.8493 B(  0-O ,  2-H ) :   0.7565 B(  3-O ,  4-H ) :   0.8556 
B(  3-O ,  5-H ) :   0.7751 B(  6-O ,  7-H ) :   0.8056 B(  6-O ,  8-H ) :   0.8424 
B(  9-O , 10-H ) :   0.8299 B(  9-O , 11-H ) :   0.8070 B( 12-O , 13-H ) :   0.8534 
B( 12-O , 14-H ) :   0.8005 B( 15-O , 16-H ) :   0.8245 B( 15-O , 17-H ) :   0.8101 
B( 18-O , 19-H ) :   0.7948 B( 18-O , 20-H ) :   0.8355 


                *******************************************
                * RELAXED MP2 DENSITY POPULATION ANALYSIS *
                *******************************************

------------------------------------------------------------------------------
                           ORCA POPULATION ANALYSIS
------------------------------------------------------------------------------
Input electron density              ... 12h2o.su.etal.mol0,2,4,8,9,10,11-orca.engrad-mp2.def2tzvp.frozencore.pmp2re
BaseName (.gbw .S,...)              ... 12h2o.su.etal.mol0,2,4,8,9,10,11-orca.engrad-mp2.def2tzvp.frozencore

                    ********************************
                    * MULLIKEN POPULATION ANALYSIS *
                    ********************************

-----------------------
MULLIKEN ATOMIC CHARGES
-----------------------
   0 O :   -0.739586
   1 H :    0.334377
   2 H :    0.383255
   3 O :   -0.741759
   4 H :    0.328408
   5 H :    0.364700
   6 O :   -0.710427
   7 H :    0.375506
   8 H :    0.338243
   9 O :   -0.700429
  10 H :    0.363662
  11 H :    0.369692
  12 O :   -0.719589
  13 H :    0.330747
  14 H :    0.361358
  15 O :   -0.723840
  16 H :    0.371176
  17 H :    0.378841
  18 O :   -0.702111
  19 H :    0.386864
  20 H :    0.350910
Sum of atomic charges:   -0.0000000

--------------------------------
MULLIKEN REDUCED ORBITAL CHARGES
--------------------------------
  0 O s       :     3.803954  s :     3.803954
      pz      :     1.713840  p :     4.883017
      px      :     1.414453
      py      :     1.754724
      dz2     :     0.009381  d :     0.048675
      dxz     :     0.009714
      dyz     :     0.010438
      dx2y2   :     0.007784
      dxy     :     0.011358
      f0      :     0.000456  f :     0.003940
      f+1     :     0.000682
      f-1     :     0.000533
      f+2     :     0.000431
      f-2     :     0.000701
      f+3     :     0.000456
      f-3     :     0.000679
  1 H s       :     0.617374  s :     0.617374
      pz      :     0.017771  p :     0.048249
      px      :     0.014162
      py      :     0.016316
  2 H s       :     0.558842  s :     0.558842
      pz      :     0.012065  p :     0.057903
      px      :     0.031489
      py      :     0.014349
  3 O s       :     3.803141  s :     3.803141
      pz      :     1.706894  p :     4.885753
      px      :     1.783734
      py      :     1.395125
      dz2     :     0.009346  d :     0.048898
      dxz     :     0.010605
      dyz     :     0.009546
      dx2y2   :     0.007705
      dxy     :     0.011696
      f0      :     0.000454  f :     0.003967
      f+1     :     0.000538
      f-1     :     0.000676
      f+2     :     0.000438
      f-2     :     0.000705
      f+3     :     0.000697
      f-3     :     0.000459
  4 H s       :     0.623133  s :     0.623133
      pz      :     0.017851  p :     0.048459
      px      :     0.016369
      py      :     0.014239
  5 H s       :     0.576303  s :     0.576303
      pz      :     0.012394  p :     0.058997
      px      :     0.015333
      py      :     0.031270
  6 O s       :     3.805054  s :     3.805054
      pz      :     1.569044  p :     4.852729
      px      :     1.859766
      py      :     1.423918
      dz2     :     0.014357  d :     0.048668
      dxz     :     0.008117
      dyz     :     0.007614
      dx2y2   :     0.008211
      dxy     :     0.010369
      f0      :     0.000561  f :     0.003976
      f+1     :     0.000493
      f-1     :     0.000769
      f+2     :     0.000441
      f-2     :     0.000401
      f+3     :     0.000820
      f-3     :     0.000491
  7 H s       :     0.573119  s :     0.573119
      pz      :     0.023836  p :     0.051375
      px      :     0.015192
      py      :     0.012347
  8 H s       :     0.615994  s :     0.615994
      pz      :     0.011397  p :     0.045763
      px      :     0.016894
      py      :     0.017472
  9 O s       :     3.791332  s :     3.791332
      pz      :     1.516216  p :     4.854663
      px      :     1.577940
      py      :     1.760507
      dz2     :     0.016133  d :     0.050504
      dxz     :     0.006624
      dyz     :     0.007962
      dx2y2   :     0.008116
      dxy     :     0.011668
      f0      :     0.000613  f :     0.003930
      f+1     :     0.000734
      f-1     :     0.000525
      f+2     :     0.000416
      f-2     :     0.000423
      f+3     :     0.000428
      f-3     :     0.000791
 10 H s       :     0.590646  s :     0.590646
      pz      :     0.018700  p :     0.045691
      px      :     0.012784
      py      :     0.014207
 11 H s       :     0.578942  s :     0.578942
      pz      :     0.011172  p :     0.051366
      px      :     0.023528
      py      :     0.016667
 12 O s       :     3.805429  s :     3.805429
      pz      :     1.479408  p :     4.860498
      px      :     1.807154
      py      :     1.573936
      dz2     :     0.015597  d :     0.049694
      dxz     :     0.008277
      dyz     :     0.006580
      dx2y2   :     0.007487
      dxy     :     0.011753
      f0      :     0.000630  f :     0.003967
      f+1     :     0.000527
      f-1     :     0.000724
      f+2     :     0.000416
      f-2     :     0.000419
      f+3     :     0.000817
      f-3     :     0.000433
 13 H s       :     0.622100  s :     0.622100
      pz      :     0.018093  p :     0.047152
      px      :     0.015502
      py      :     0.013558
 14 H s       :     0.586427  s :     0.586427
      pz      :     0.011030  p :     0.052214
      px      :     0.017302
      py      :     0.023882
 15 O s       :     3.806752  s :     3.806752
      pz      :     1.714524  p :     4.864198
      px      :     1.772140
      py      :     1.377534
      dz2     :     0.009304  d :     0.048928
      dxz     :     0.010637
      dyz     :     0.009289
      dx2y2   :     0.007758
      dxy     :     0.011941
      f0      :     0.000455  f :     0.003962
      f+1     :     0.000536
      f-1     :     0.000678
      f+2     :     0.000431
      f-2     :     0.000691
      f+3     :     0.000710
      f-3     :     0.000462
 16 H s       :     0.581924  s :     0.581924
      pz      :     0.017553  p :     0.046900
      px      :     0.015774
      py      :     0.013573
 17 H s       :     0.578764  s :     0.578764
      pz      :     0.011951  p :     0.042395
      px      :     0.013348
      py      :     0.017096
 18 O s       :     3.791780  s :     3.791780
      pz      :     1.563741  p :     4.856062
      px      :     1.759174
      py      :     1.533147
      dz2     :     0.015925  d :     0.050344
      dxz     :     0.007984
      dyz     :     0.006597
      dx2y2   :     0.008006
      dxy     :     0.011832
      f0      :     0.000596  f :     0.003924
      f+1     :     0.000525
      f-1     :     0.000731
      f+2     :     0.000415
      f-2     :     0.000421
      f+3     :     0.000810
      f-3     :     0.000426
 19 H s       :     0.563621  s :     0.563621
      pz      :     0.024268  p :     0.049514
      px      :     0.013262
      py      :     0.011984
 20 H s       :     0.603135  s :     0.603135
      pz      :     0.012032  p :     0.045955
      px      :     0.015964
      py      :     0.017960


                     *******************************
                     * LOEWDIN POPULATION ANALYSIS *
                     *******************************

----------------------
LOEWDIN ATOMIC CHARGES
----------------------
   0 O :   -0.340943
   1 H :    0.152410
   2 H :    0.145948
   3 O :   -0.377612
   4 H :    0.149844
   5 H :    0.140489
   6 O :   -0.323688
   7 H :    0.153139
   8 H :    0.171254
   9 O :   -0.280980
  10 H :    0.175562
  11 H :    0.151056
  12 O :   -0.354750
  13 H :    0.160108
  14 H :    0.146856
  15 O :   -0.287770
  16 H :    0.171423
  17 H :    0.195256
  18 O :   -0.277296
  19 H :    0.158934
  20 H :    0.170761

-------------------------------
LOEWDIN REDUCED ORBITAL CHARGES
-------------------------------
  0 O s       :     3.459392  s :     3.459392
      pz      :     1.697888  p :     4.819621
      px      :     1.395809
      py      :     1.725924
      dz2     :     0.009985  d :     0.057137
      dxz     :     0.012428
      dyz     :     0.011175
      dx2y2   :     0.009406
      dxy     :     0.014143
      f0      :     0.000457  f :     0.004792
      f+1     :     0.000863
      f-1     :     0.000650
      f+2     :     0.000411
      f-2     :     0.001036
      f+3     :     0.000478
      f-3     :     0.000896
  1 H s       :     0.679355  s :     0.679355
      pz      :     0.067186  p :     0.168235
      px      :     0.046509
      py      :     0.054540
  2 H s       :     0.655674  s :     0.655674
      pz      :     0.034864  p :     0.198377
      px      :     0.114841
      py      :     0.048672
  3 O s       :     3.465719  s :     3.465719
      pz      :     1.695535  p :     4.850238
      px      :     1.766998
      py      :     1.387705
      dz2     :     0.009805  d :     0.056850
      dxz     :     0.011324
      dyz     :     0.012386
      dx2y2   :     0.008967
      dxy     :     0.014369
      f0      :     0.000453  f :     0.004805
      f+1     :     0.000647
      f-1     :     0.000864
      f+2     :     0.000411
      f-2     :     0.001040
      f+3     :     0.000913
      f-3     :     0.000477
  4 H s       :     0.682285  s :     0.682285
      pz      :     0.066997  p :     0.167870
      px      :     0.054666
      py      :     0.046207
  5 H s       :     0.661757  s :     0.661757
      pz      :     0.035210  p :     0.197754
      px      :     0.049236
      py      :     0.113308
  6 O s       :     3.461627  s :     3.461627
      pz      :     1.540986  p :     4.798980
      px      :     1.819823
      py      :     1.438170
      dz2     :     0.019653  d :     0.058231
      dxz     :     0.007244
      dyz     :     0.008961
      dx2y2   :     0.009813
      dxy     :     0.012561
      f0      :     0.000779  f :     0.004850
      f+1     :     0.000584
      f-1     :     0.001149
      f+2     :     0.000416
      f-2     :     0.000410
      f+3     :     0.001062
      f-3     :     0.000449
  7 H s       :     0.672535  s :     0.672535
      pz      :     0.093790  p :     0.174326
      px      :     0.044482
      py      :     0.036054
  8 H s       :     0.671583  s :     0.671583
      pz      :     0.031867  p :     0.157163
      px      :     0.050922
      py      :     0.074374
  9 O s       :     3.450322  s :     3.450322
      pz      :     1.512963  p :     4.766308
      px      :     1.543084
      py      :     1.710261
      dz2     :     0.021291  d :     0.059417
      dxz     :     0.007220
      dyz     :     0.007455
      dx2y2   :     0.009246
      dxy     :     0.014204
      f0      :     0.000878  f :     0.004933
      f+1     :     0.001003
      f-1     :     0.000737
      f+2     :     0.000392
      f-2     :     0.000425
      f+3     :     0.000410
      f-3     :     0.001089
 10 H s       :     0.662118  s :     0.662118
      pz      :     0.081785  p :     0.162320
      px      :     0.037433
      py      :     0.043102
 11 H s       :     0.672204  s :     0.672204
      pz      :     0.031036  p :     0.176741
      px      :     0.086305
      py      :     0.059400
 12 O s       :     3.464633  s :     3.464633
      pz      :     1.498323  p :     4.827421
      px      :     1.782328
      py      :     1.546771
      dz2     :     0.021139  d :     0.057818
      dxz     :     0.007760
      dyz     :     0.007402
      dx2y2   :     0.007458
      dxy     :     0.014059
      f0      :     0.000918  f :     0.004878
      f+1     :     0.000706
      f-1     :     0.001005
      f+2     :     0.000390
      f-2     :     0.000422
      f+3     :     0.001058
      f-3     :     0.000377
 13 H s       :     0.678122  s :     0.678122
      pz      :     0.080213  p :     0.161770
      px      :     0.044017
      py      :     0.037540
 14 H s       :     0.674949  s :     0.674949
      pz      :     0.030454  p :     0.178195
      px      :     0.059629
      py      :     0.088111
 15 O s       :     3.459124  s :     3.459124
      pz      :     1.672058  p :     4.765538
      px      :     1.728792
      py      :     1.364688
      dz2     :     0.010992  d :     0.058284
      dxz     :     0.011002
      dyz     :     0.011826
      dx2y2   :     0.009555
      dxy     :     0.014910
      f0      :     0.000476  f :     0.004823
      f+1     :     0.000654
      f-1     :     0.000859
      f+2     :     0.000409
      f-2     :     0.001001
      f+3     :     0.000946
      f-3     :     0.000477
 16 H s       :     0.661904  s :     0.661904
      pz      :     0.067875  p :     0.166673
      px      :     0.054045
      py      :     0.044753
 17 H s       :     0.652635  s :     0.652635
      pz      :     0.034687  p :     0.152109
      px      :     0.045019
      py      :     0.072404
 18 O s       :     3.449723  s :     3.449723
      pz      :     1.537685  p :     4.763440
      px      :     1.703459
      py      :     1.522296
      dz2     :     0.020606  d :     0.059216
      dxz     :     0.007400
      dyz     :     0.007033
      dx2y2   :     0.009334
      dxy     :     0.014843
      f0      :     0.000831  f :     0.004918
      f+1     :     0.000737
      f-1     :     0.000988
      f+2     :     0.000390
      f-2     :     0.000421
      f+3     :     0.001143
      f-3     :     0.000408
 19 H s       :     0.666347  s :     0.666347
      pz      :     0.095224  p :     0.174719
      px      :     0.042643
      py      :     0.036853
 20 H s       :     0.667616  s :     0.667616
      pz      :     0.032398  p :     0.161623
      px      :     0.056277
      py      :     0.072947


                      *****************************
                      * MAYER POPULATION ANALYSIS *
                      *****************************

  NA   - Mulliken gross atomic population
  ZA   - Total nuclear charge
  QA   - Mulliken gross atomic charge
  VA   - Mayer's total valence
  BVA  - Mayer's bonded valence
  FA   - Mayer's free valence

  ATOM       NA         ZA         QA         VA         BVA        FA
  0 O      8.7396     8.0000    -0.7396     2.0369     1.6487     0.3882
  1 H      0.6656     1.0000     0.3344     0.9088     0.8614     0.0475
  2 H      0.6167     1.0000     0.3833     0.8990     0.8547     0.0443
  3 O      8.7418     8.0000    -0.7418     2.0110     1.6237     0.3873
  4 H      0.6716     1.0000     0.3284     0.9121     0.8644     0.0477
  5 H      0.6353     1.0000     0.3647     0.9206     0.8753     0.0453
  6 O      8.7104     8.0000    -0.7104     2.0861     1.7001     0.3860
  7 H      0.6245     1.0000     0.3755     0.8980     0.8549     0.0431
  8 H      0.6618     1.0000     0.3382     0.9075     0.8585     0.0490
  9 O      8.7004     8.0000    -0.7004     2.0963     1.7144     0.3819
 10 H      0.6363     1.0000     0.3637     0.8868     0.8413     0.0455
 11 H      0.6303     1.0000     0.3697     0.9042     0.8602     0.0440
 12 O      8.7196     8.0000    -0.7196     2.0480     1.6644     0.3837
 13 H      0.6693     1.0000     0.3307     0.9084     0.8601     0.0483
 14 H      0.6386     1.0000     0.3614     0.9240     0.8797     0.0443
 15 O      8.7238     8.0000    -0.7238     2.0997     1.7137     0.3860
 16 H      0.6288     1.0000     0.3712     0.8818     0.8378     0.0440
 17 H      0.6212     1.0000     0.3788     0.8786     0.8323     0.0463
 18 O      8.7021     8.0000    -0.7021     2.0939     1.7116     0.3823
 19 H      0.6131     1.0000     0.3869     0.8873     0.8446     0.0427
 20 H      0.6491     1.0000     0.3509     0.9014     0.8547     0.0468

  Mayer bond orders larger than 0.100000
B(  0-O ,  1-H ) :   0.8520 B(  0-O ,  2-H ) :   0.7574 B(  3-O ,  4-H ) :   0.8590 
B(  3-O ,  5-H ) :   0.7775 B(  6-O ,  7-H ) :   0.8105 B(  6-O ,  8-H ) :   0.8450 
B(  9-O , 10-H ) :   0.8331 B(  9-O , 11-H ) :   0.8102 B( 12-O , 13-H ) :   0.8569 
B( 12-O , 14-H ) :   0.8041 B( 15-O , 16-H ) :   0.8281 B( 15-O , 17-H ) :   0.8133 
B( 18-O , 19-H ) :   0.7991 B( 18-O , 20-H ) :   0.8381 


----------------------------------
MP2 DERIVATIVE INTEGRAL GENERATION
----------------------------------


Input Wavefunction Amplitudes       ... 12h2o.su.etal.mol0,2,4,8,9,10,11-orca.engrad-mp2.def2tzvp.frozencore.mp2tsaa.tmp
Input Correlated Electron Density   ... 12h2o.su.etal.mol0,2,4,8,9,10,11-orca.engrad-mp2.def2tzvp.frozencore.pmp2re
Input Energy Weighted Density       ... 12h2o.su.etal.mol0,2,4,8,9,10,11-orca.engrad-mp2.def2tzvp.frozencore.wmp2.tmp
Input SCF Electron Density          ... 12h2o.su.etal.mol0,2,4,8,9,10,11-orca.engrad-mp2.def2tzvp.frozencore.scfp

One-Electron Terms    ...
                        ... One-Electron Terms done
Prescreening matrices              ... done

Batch handling in the gradient evaluation:
Memory available                      ... 8000.0 MB
Memory per occupied orbital in Q2     ...   19.4 MB
Memory per occupied orbital in Q3     ...    0.1 MB
Total memory requirement per |i>      ...   19.5 MB
Max. Number of orbitals possible      ...    410
Number of orbitals treated per batch  ...     28
Number of batches to be done          ...      1
Batch   0: i=    7 ...    34

---------------------------------------
MP2 TOTAL ENERGY:     -534.245782244 Eh
---------------------------------------

The final MP2 gradient
  0:   0.00666795  -0.00011495  -0.00120876
  1:   0.00092574  -0.00039833  -0.00009627
  2:  -0.01243069   0.00252921   0.00034629
  3:  -0.00067831  -0.01030012   0.00040896
  4:  -0.00034364  -0.00167136  -0.00065621
  5:   0.00389287   0.01754745   0.00082916
  6:   0.01132727   0.01588051   0.00082846
  7:  -0.00231879   0.00175516  -0.00345717
  8:  -0.00926420  -0.01609405  -0.00016204
  9:   0.00001067  -0.00772121  -0.00788764
 10:   0.00067690   0.00015321   0.00641880
 11:  -0.00373442  -0.00030764  -0.00109298
 12:  -0.00024467   0.00124455   0.00887067
 13:   0.00090286  -0.00289320  -0.00956020
 14:  -0.00028468  -0.00027479   0.00200518
 15:   0.00815991   0.02570587   0.00021540
 16:   0.00245658  -0.00019846   0.00323516
 17:  -0.00885553  -0.02411403   0.00061452
 18:   0.01002300   0.00715631   0.00016256
 19:  -0.00170626  -0.00057844   0.00174734
 20:  -0.00518255  -0.00730570  -0.00156126

-----------------------------------
NORM OF THE MP2 GRADIENT:  0.058284
-----------------------------------

-------------------------   --------------------
FINAL SINGLE POINT ENERGY      -534.245782243867
-------------------------   --------------------


                            ***************************************
                            *     ORCA property calculations      *
                            ***************************************

                                    ---------------------
                                    Active property flags
                                    ---------------------
   (+) Dipole Moment


------------------------------------------------------------------------------
                       ORCA ELECTRIC PROPERTIES CALCULATION
------------------------------------------------------------------------------

Dipole Moment Calculation                       ... on
Quadrupole Moment Calculation                   ... off
Polarizability Calculation                      ... off
GBWName                                         ... 12h2o.su.etal.mol0,2,4,8,9,10,11-orca.engrad-mp2.def2tzvp.frozencore.gbw
Electron density file                           ... 12h2o.su.etal.mol0,2,4,8,9,10,11-orca.engrad-mp2.def2tzvp.frozencore.scfp
The origin for moment calculation is the CENTER OF MASS  = ( 0.696286,  0.932961  0.010789)

-------------
DIPOLE MOMENT
-------------
                                X             Y             Z
Electronic contribution:     -0.12964       0.58842      -0.08128
Nuclear contribution   :     -1.21789       0.79041      -2.09298
                        -----------------------------------------
Total Dipole Moment    :     -1.34754       1.37883      -2.17426
                        -----------------------------------------
Magnitude (a.u.)       :      2.90593
Magnitude (Debye)      :      7.38629



--------------------
Rotational spectrum 
--------------------
 
Rotational constants in cm-1:     0.038149     0.017325     0.013931 
Rotational constants in MHz :  1143.692268   519.397482   417.638330 

 Dipole components along the rotational axes: 
x,y,z [a.u.] :    -2.154536     1.905866     0.412411 
x,y,z [Debye]:    -5.476395     4.844325     1.048266 

 

                         *** MP2 UNRELAXED DENSITY ***

------------------------------------------------------------------------------
                       ORCA ELECTRIC PROPERTIES CALCULATION
------------------------------------------------------------------------------

Dipole Moment Calculation                       ... on
Quadrupole Moment Calculation                   ... off
Polarizability Calculation                      ... off
GBWName                                         ... 12h2o.su.etal.mol0,2,4,8,9,10,11-orca.engrad-mp2.def2tzvp.frozencore.gbw
Electron density file                           ... 12h2o.su.etal.mol0,2,4,8,9,10,11-orca.engrad-mp2.def2tzvp.frozencore.pmp2ur
The origin for moment calculation is the CENTER OF MASS  = ( 0.696286,  0.932961  0.010789)

-------------
DIPOLE MOMENT
-------------
                                X             Y             Z
Electronic contribution:     -0.11898       0.58871      -0.06440
Nuclear contribution   :     -1.21789       0.79041      -2.09298
                        -----------------------------------------
Total Dipole Moment    :     -1.33687       1.37912      -2.15738
                        -----------------------------------------
Magnitude (a.u.)       :      2.88851
Magnitude (Debye)      :      7.34200



--------------------
Rotational spectrum 
--------------------
 
Rotational constants in cm-1:     0.038149     0.017325     0.013931 
Rotational constants in MHz :  1143.692268   519.397482   417.638330 

 Dipole components along the rotational axes: 
x,y,z [a.u.] :    -2.137647     1.900337     0.403299 
x,y,z [Debye]:    -5.433466     4.830274     1.025105 

 

                           *** MP2 RELAXED DENSITY ***

------------------------------------------------------------------------------
                       ORCA ELECTRIC PROPERTIES CALCULATION
------------------------------------------------------------------------------

Dipole Moment Calculation                       ... on
Quadrupole Moment Calculation                   ... off
Polarizability Calculation                      ... off
GBWName                                         ... 12h2o.su.etal.mol0,2,4,8,9,10,11-orca.engrad-mp2.def2tzvp.frozencore.gbw
Electron density file                           ... 12h2o.su.etal.mol0,2,4,8,9,10,11-orca.engrad-mp2.def2tzvp.frozencore.pmp2re
The origin for moment calculation is the CENTER OF MASS  = ( 0.696286,  0.932961  0.010789)

-------------
DIPOLE MOMENT
-------------
                                X             Y             Z
Electronic contribution:     -0.11169       0.59947      -0.05566
Nuclear contribution   :     -1.21789       0.79041      -2.09298
                        -----------------------------------------
Total Dipole Moment    :     -1.32958       1.38988      -2.14864
                        -----------------------------------------
Magnitude (a.u.)       :      2.88379
Magnitude (Debye)      :      7.33000



--------------------
Rotational spectrum 
--------------------
 
Rotational constants in cm-1:     0.038149     0.017325     0.013931 
Rotational constants in MHz :  1143.692268   519.397482   417.638330 

 Dipole components along the rotational axes: 
x,y,z [a.u.] :    -2.128752     1.905607     0.391535 
x,y,z [Debye]:    -5.410857     4.843667     0.995203 

 

Timings for individual modules:

Sum of individual times         ...      113.022 sec (=   1.884 min)
GTO integral calculation        ...        1.007 sec (=   0.017 min)   0.9 %
SCF iterations                  ...       20.336 sec (=   0.339 min)  18.0 %
MP2 module                      ...       91.679 sec (=   1.528 min)  81.1 %
                             ****ORCA TERMINATED NORMALLY****
TOTAL RUN TIME: 0 days 0 hours 1 minutes 56 seconds 335 msec
