43
Energy:   -266.65443733
C   -0.31016208   3.46079823  -0.42412420
H    0.46582295   2.80254707  -0.09328767
H   -0.21226633   4.40455943   0.07047698
H   -0.23088602   3.60246809  -1.48173663
C   -1.68199786   2.84597744  -0.08996556
N   -2.70339195   2.38821541   0.15883074
C   -1.60464221  -0.10275360  -2.24653422
H   -1.83138123  -0.93840708  -2.87516198
H   -2.44412831   0.10864435  -1.61766771
H   -0.75375101  -0.33315537  -1.64007048
C   -1.29472181   1.12731621  -3.11973386
N   -1.06397198   2.04315910  -3.76987068
C   -2.30486343  -0.73735733   1.43897933
H   -3.23684073  -0.42922966   1.01309693
H   -1.50520440  -0.19895124   0.97469127
H   -2.30850194  -0.53476707   2.48961868
C   -2.10918695  -2.24731435   1.20802370
N   -1.96349691  -3.37154599   1.03606673
C    0.07431239   1.94359913   3.19145577
H   -0.54029631   1.48686267   2.44409499
H   -0.19883341   1.56885217   4.15574576
H    1.10133906   1.71443700   2.99754850
C   -0.12613579   3.47013856   3.15832133
N   -0.27537856   4.60671656   3.13365123
C    2.22220578   0.29623352  -3.19297870
H    2.59368019  -0.30223139  -2.38753057
H    1.42028235  -0.21864727  -3.67951306
H    1.86611033   1.22940393  -2.80919737
C    3.35424383   0.55555172  -4.20433616
N    4.19709762   0.74862590  -4.95733776
C    1.02574026  -3.17744805  -1.09185711
H    1.97893599  -2.70318307  -0.98512939
H    1.11902688  -4.21979655  -0.86890799
H    0.32687730  -2.72946188  -0.41672894
C    0.52542730  -3.00459735  -2.53802777
N    0.15292156  -2.87590215  -3.61476756
C    1.18513174  -2.25535732   3.05212994
H    1.96024511  -1.53349906   2.90040616
H    0.72805415  -2.49049024   2.11367819
H    1.60327785  -3.14359031   3.47768261
C    0.12557825  -1.67748540   4.00869172
N   -0.66330749  -1.24723350   4.72089545
Cl   1.33703583   0.06829875   0.36037939
