43
Energy:   -271.01870541
C   -1.00669739   2.54021321  -0.23330734
H   -0.34458996   1.80883541  -0.64755418
H   -0.49129565   3.47269158  -0.13459451
H   -1.84965979   2.66536528  -0.88033937
C   -1.48819551   2.07065244   1.15207068
N   -1.84669275   1.72104311   2.18354758
C   -2.51226730  -1.30316692   0.15817629
H   -2.76628951  -1.13865920   1.18448526
H   -1.45488102  -1.19941941   0.03140958
H   -2.81089215  -2.28956318  -0.12947751
C   -3.23871578  -0.26957884  -0.72248726
N   -3.77958969   0.49997447  -1.37818130
C   -0.53153686  -0.30722642  -3.29692781
H    0.52486587  -0.45496091  -3.21273760
H   -0.87361541   0.29479710  -2.48117722
H   -0.75013683   0.18642098  -4.22073807
C   -1.24501038  -1.67154871  -3.26257359
N   -1.77622386  -2.68734867  -3.23699531
C    0.00973835  -1.48811486   2.99030722
H    0.76619785  -1.94343846   2.38586564
H   -0.42957900  -0.67136217   2.45662717
H   -0.74507632  -2.21049897   3.22120786
C    0.63966073  -0.96860854   4.29602962
N    1.10866657  -0.58181246   5.26819929
C    2.51979934   2.42048798  -1.96764536
H    2.92958014   1.45116301  -2.16100766
H    2.06280998   2.42801482  -1.00017280
H    3.30124799   3.15074448  -1.99867038
C    1.46304061   2.75373543  -3.03713455
N    0.67623570   3.00185331  -3.83341786
C    2.02916735   1.78098977   2.46716388
H    2.25181012   1.89840196   3.50713732
H    2.78243345   1.17604949   2.00723288
H    1.07572739   1.30783377   2.35773480
C    1.99682886   3.16365919   1.78983125
N    1.97275138   4.19311943   1.28552632
C    0.40709886  -3.93652088  -0.49878572
H    0.01239794  -3.13691965  -1.09018172
H    0.54284789  -4.80159295  -1.11370165
H    1.34860513  -3.64236816  -0.08413017
C   -0.57527095  -4.26565244   0.64060973
N   -1.30668992  -4.51070585   1.48894143
Cl   1.40139453  -0.50697855  -0.25016487
