120
Energy:   -588.10416616
    C      4.85344340     -6.06264685      2.00531307
    H      5.55739588     -5.66170041      1.30631876
    H      5.10616274     -7.07942088      2.22257466
    H      4.87983612     -5.48797172      2.90750540
    C      3.43856281     -6.00341797      1.40016444
    N      2.38511990     -5.95931937      0.94960378
    C      0.77904715     -0.79643262     -3.00065958
    H      1.83470377     -0.67713188     -2.87315812
    H      0.32376531      0.16410695     -3.12305761
    H      0.58980096     -1.39394948     -3.86787269
    C      0.18732827     -1.49061906     -1.75986389
    N     -0.25323333     -2.00747242     -0.83603509
    C      0.65006778      5.04583565     -2.06116447
    H      0.45031817      4.05680492     -2.41728030
    H      0.77747769      5.70575089     -2.89373740
    H     -0.17043598      5.38172031     -1.46212009
    C      1.93509719      5.03609310     -1.21251586
    N      2.89186001      5.02883932     -0.58065838
    C     -0.08833098      2.54127448     -5.04952835
    H      0.30524449      2.23518149     -4.10279417
    H      0.67914642      3.02797027     -5.61433340
    H     -0.43585047      1.68297050     -5.58566599
    C     -1.25921298      3.51665932     -4.82758298
    N     -2.13098786      4.24287767     -4.66233457
    C      1.51268379     -2.76400154      2.10395910
    H      1.15782395     -3.76715658      1.99146625
    H      1.51291415     -2.27681930      1.15130360
    H      0.87215942     -2.23237872      2.77627212
    C      2.94496399     -2.78652592      2.66934932
    N      4.01136170     -2.80329634      3.09030803
    C     -2.71699404      0.25185595     -0.45000827
    H     -3.46988260      0.72258845      0.14704276
    H     -2.07064958     -0.32343563      0.17941808
    H     -3.18153151     -0.39175072     -1.16755582
    C     -1.89506205      1.32865729     -1.18248808
    N     -1.28309631      2.13038483     -1.72785259
    C     -3.25093459     -3.04528309     -3.04708556
    H     -2.27420125     -2.62431171     -3.16402684
    H     -3.97198910     -2.40930026     -3.51666550
    H     -3.27897367     -4.01322878     -3.50227128
    C     -3.57856623     -3.17338904     -1.54780361
    N     -3.82250288     -3.26876974     -0.43152005
    C      2.77925538      0.25059790      4.44886971
    H      1.88631357     -0.18308133      4.04952347
    H      2.52262921      0.96178271      5.20600791
    H      3.38993314     -0.51829977      4.87403806
    C      3.55485585      0.95783645      3.32199015
    N      4.13232566      1.48440770      2.48297709
    C      2.14874310      4.62949274      2.65813219
    H      2.63601407      5.34618100      3.28568706
    H      1.53246872      5.13873083      1.94694899
    H      2.88443137      4.04907052      2.14163252
    C      1.27556887      3.70044766      3.52186943
    N      0.62545097      3.00873138      4.16496107
    C      4.84505042      2.33007665     -1.32185346
    H      5.64804403      1.69658725     -1.63616640
    H      4.53001782      2.04581833     -0.33958529
    H      5.17701820      3.34720269     -1.30956133
    C      3.66496380      2.18704589     -2.30090288
    N      2.78633567      2.08055299     -3.02984967
    C      2.78104156     -4.02113058     -1.88949351
    H      2.13360635     -3.69644230     -1.10189885
    H      2.47793783     -4.99153985     -2.22315962
    H      2.72540520     -3.33020901     -2.70461992
    C      4.22918441     -4.08618575     -1.36963767
    N      5.30739260     -4.13462229     -0.98258136
    C      1.31964857      1.72919947      0.27269872
    H      0.83328374      2.67491970      0.15453492
    H      1.34935629      1.22319960     -0.66962855
    H      2.31766238      1.88312555      0.62649851
    C      0.54049821      0.87479085      1.28980768
    N     -0.03961464      0.23864480      2.04709154
    C     -0.86332476     -5.38796542     -0.14117507
    H     -0.33800701     -6.26066033      0.18646044
    H     -1.91176444     -5.51813225      0.02832396
    H     -0.51655826     -4.53644324      0.40614756
    C     -0.60950433     -5.17014918     -1.64441533
    N     -0.42052348     -5.00797509     -2.76364604
    C     -6.28188292     -0.47319163      0.45804033
    H     -5.92759127      0.48037520      0.78983530
    H     -5.74879420     -1.24867238      0.96729972
    H     -7.32686516     -0.55936176      0.67131458
    C     -6.05505361     -0.60548214     -1.05940742
    N     -5.88616888     -0.70397843     -2.18921625
    C     -1.38711804      0.51407226      5.34017935
    H     -1.27741370      1.01046300      4.39865857
    H     -0.98015052      1.12776555      6.11648926
    H     -2.42500472      0.33808319      5.53179925
    C     -0.63695700     -0.83032861      5.30217001
    N     -0.07842800     -1.83129617      5.27387033
    C     -2.17916737     -2.63548008      2.38515261
    H     -1.61573464     -2.88498644      3.25990418
    H     -1.50939021     -2.41432174      1.58054920
    H     -2.80167806     -3.46242526      2.11396781
    C     -3.05811926     -1.40449501      2.67449558
    N     -3.71253889     -0.48797068      2.88992458
    C      5.76180928     -1.13809859      0.70949666
    H      5.83561059     -0.48866677      1.55666362
    H      6.52667467     -0.89123717      0.00314018
    H      5.88302290     -2.15288445      1.02638151
    C      4.38029672     -0.96755750      0.05075636
    N      3.35169783     -0.84058191     -0.43970574
    C     -4.49645317      1.59149149     -4.10403660
    H     -4.30304314      2.50841940     -4.62050146
    H     -4.68689094      1.79709569     -3.07138978
    H     -5.35024540      1.11226967     -4.53564333
    C     -3.27190626      0.66560391     -4.22576194
    N     -2.36017542     -0.02376147     -4.31639199
    C     -3.45131557      4.97412284     -1.61642899
    H     -3.40858982      5.81321329     -0.95385679
    H     -3.93350777      5.26282860     -2.52694464
    H     -2.45839712      4.63731993     -1.82991398
    C     -4.24787414      3.83568177     -0.95231577
    N     -4.84094820      2.98806064     -0.45785330
    C     -2.61471432      2.80851549      2.43189796
    H     -2.52836959      3.06139391      3.46799509
    H     -2.29368652      1.79868832      2.28327319
    H     -3.63480747      2.90739482      2.12443748
    C     -1.73285309      3.75564522      1.59711292
    N     -1.07626733      4.46082636      0.97557752
