120
Energy:   -587.07928492
    C      5.61015460     -4.56623566      1.97465741
    H      6.18848299     -3.87157911      1.40204171
    H      6.14050595     -5.49220396      2.05345621
    H      5.44065703     -4.16790035      2.95317601
    C      4.25843197     -4.80662516      1.27704806
    N      3.25201302     -4.98560607      0.75764620
    C      1.14218197     -1.56925263     -5.17178075
    H      1.81739031     -1.82871241     -5.96024413
    H      1.62519553     -0.89466565     -4.49611116
    H      0.27446650     -1.09932917     -5.58547253
    C      0.72406914     -2.84306625     -4.41403374
    N      0.41276513     -3.79147839     -3.84985665
    C      0.72943975      5.99573026     -0.81536997
    H     -0.15660685      5.50871839     -1.16557141
    H      1.11152376      6.63603831     -1.58277892
    H      0.49744015      6.57771954      0.05201909
    C      1.78867700      4.93746700     -0.45523764
    N      2.57732728      4.14954189     -0.18710275
    C      0.75380120      2.15996053     -3.55725210
    H      1.74922522      2.53071605     -3.42852159
    H      0.32187598      2.59480308     -4.43432203
    H      0.78054678      1.09553830     -3.66303057
    C     -0.09571098      2.53247452     -2.32795865
    N     -0.72821141      2.80982812     -1.41269380
    C      1.02420014     -3.75754022      3.31189562
    H      1.15171975     -4.53113578      2.58375494
    H      0.65767035     -2.87375022      2.83286509
    H      0.32292487     -4.07808684      4.05375945
    C      2.37751070     -3.45478978      3.98159159
    N      3.38511193     -3.22937832      4.48021068
    C     -2.39473698     -0.06556593     -1.22585164
    H     -2.95346653      0.84193636     -1.13013819
    H     -1.50232152      0.00148351     -0.63933812
    H     -2.98718253     -0.88720840     -0.88116191
    C     -2.02231585     -0.28564135     -2.70384667
    N     -1.74503140     -0.44949751     -3.80428116
    C     -3.15057207     -3.71514867     -3.83673046
    H     -3.27652686     -2.73327561     -4.24288420
    H     -4.01222416     -4.30788518     -4.06282381
    H     -2.28224260     -4.16991819     -4.26578488
    C     -2.97890146     -3.62068610     -2.30924690
    N     -2.85108490     -3.55035442     -1.17196595
    C      1.58485219     -0.20455630      5.15472225
    H      1.07841879     -0.76218070      4.39480093
    H      0.86881782      0.33781965      5.73611901
    H      2.12489365     -0.87564321      5.78946367
    C      2.56703770      0.78325531      4.49810985
    N      3.29831945      1.51872596      4.00923207
    C      1.47734325      4.49795135      3.35431490
    H      0.99108197      5.18558026      2.69430229
    H      2.25152124      3.98257589      2.82522544
    H      1.90315749      5.03361624      4.17689890
    C      0.45010237      3.47907635      3.88182785
    N     -0.31472515      2.72047760      4.27458522
    C      4.19711260      0.97933195     -1.15104949
    H      3.44679792      0.48001121     -0.57432870
    H      4.09896221      2.03727976     -1.02451085
    H      5.16631362      0.66898814     -0.82054203
    C      4.02334276      0.62198901     -2.63890367
    N      3.89396322      0.35593096     -3.74667874
    C      3.79352640     -3.17093408     -2.36035133
    H      4.23912600     -3.78231973     -3.11702085
    H      3.27470523     -2.35585574     -2.82010233
    H      3.10346126     -3.75633063     -1.78936964
    C      4.89209062     -2.62156489     -1.43140023
    N      5.71002162     -2.21253456     -0.73975392
    C      1.08294908      1.46722617      1.06894242
    H      0.58151927      2.40748804      1.16577187
    H      1.27956835      1.27264402      0.03531882
    H      2.00671224      1.49846368      1.60800173
    C      0.19211843      0.34904414      1.64138430
    N     -0.47114548     -0.48349320      2.06759330
    C      0.41411497     -3.00106944     -0.35672841
    H      1.20317938     -3.30767432      0.29769575
    H      0.21490386     -3.77880935     -1.06407179
    H     -0.46829033     -2.80512044      0.21586567
    C      0.83517190     -1.72244132     -1.10467306
    N      1.14866793     -0.77044457     -1.66155185
    C     -6.24409622     -0.04791496     -0.68244631
    H     -7.12615143      0.52716118     -0.87262053
    H     -5.47800085      0.59131575     -0.29594782
    H     -6.46440223     -0.81307587      0.03232158
    C     -5.76012391     -0.69435049     -1.99374029
    N     -5.39978453     -1.17565113     -2.97005827
    C     -2.46061039      0.18538764      4.91593632
    H     -2.13630421      0.84080618      5.69705873
    H     -3.52767650      0.10851322      4.93489227
    H     -2.14788677      0.57570695      3.97002202
    C     -1.84167846     -1.20905394      5.12583144
    N     -1.38085551     -2.24727907      5.28210790
    C     -2.90866750     -3.03506827      2.21233099
    H     -3.14102378     -3.40242251      3.19006388
    H     -1.84877257     -2.92513194      2.11519269
    H     -3.26432141     -3.72683524      1.47757399
    C     -3.58782997     -1.66894917      2.00243352
    N     -4.09349730     -0.65181141      1.84615531
    C      5.36176111     -0.82680715      2.51129859
    H      5.46687000     -1.35967233      3.43320260
    H      5.43760263      0.22435174      2.69626385
    H      6.13539160     -1.12680890      1.83572927
    C      3.98787575     -1.14098496      1.89054798
    N      2.96495565     -1.37490461      1.42837093
    C     -4.31725955      1.51565505     -4.91379634
    H     -4.80634989      1.45516750     -3.96404264
    H     -3.90960818      0.55920044     -5.16660860
    H     -5.02414445      1.81084189     -5.66084222
    C     -3.18266045      2.55444501     -4.84168324
    N     -2.33789985      3.32787135     -4.78799176
    C     -3.17339353      5.14154194     -1.93956035
    H     -3.75427514      5.85100100     -2.49105340
    H     -2.28920978      4.89881873     -2.49110694
    H     -2.89999655      5.56214706     -0.99444422
    C     -4.00341063      3.86443197     -1.71226815
    N     -4.62139609      2.91356555     -1.54303878
    C     -2.80832772      2.55752003      1.59122487
    H     -2.90204862      2.29277104      2.62370952
    H     -2.25272000      1.80070540      1.07796980
    H     -3.78169212      2.64293601      1.15514582
    C     -2.07218104      3.90487521      1.47155008
    N     -1.52408637      4.90804240      1.38244676
