120
Energy:   -587.04006821
    C      5.40042181     -4.56045256      1.82064429
    H      5.88397198     -3.75752552      1.30451681
    H      6.01695123     -5.43397223      1.77876411
    H      5.24249923     -4.28399964      2.84217909
    C      4.04441757     -4.85673803      1.15351054
    N      3.03481079     -5.07733604      0.65679914
    C      0.39142752     -1.31680272     -3.28720861
    H      1.36631110     -1.55414173     -3.65892407
    H      0.18867672     -0.27959651     -3.45452417
    H     -0.33882902     -1.90975431     -3.79714280
    C      0.33115694     -1.61460702     -1.77748014
    N      0.28628275     -1.83633587     -0.65341867
    C      0.81564387      5.10938203     -1.85408827
    H      0.27345268      4.30878071     -2.31230920
    H      1.15443597      5.78838620     -2.60845711
    H      0.17670433      5.62687049     -1.16935399
    C      2.02798398      4.53959346     -1.09436961
    N      2.93062630      4.11535997     -0.52872454
    C      0.56638114      2.22566518     -4.91558603
    H      1.35299112      2.60547622     -5.53355731
    H      0.20446409      1.30541236     -5.32430341
    H      0.93995658      2.05465448     -3.92761041
    C     -0.58253062      3.24962674     -4.85986810
    N     -1.43794765      4.01201266     -4.81838357
    C      1.14967589     -3.02910267      2.72062013
    H      0.85514039     -4.05412459      2.63413847
    H      1.35767202     -2.63449393      1.74803561
    H      0.35844841     -2.46748394      3.17166622
    C      2.41300622     -2.93008990      3.59571608
    N      3.35361308     -2.85637039      4.24726480
    C     -2.59310880      0.15103249     -0.83302803
    H     -3.33972210      0.63512298     -0.23878469
    H     -2.05734455     -0.55167610     -0.22965716
    H     -3.06206544     -0.36194909     -1.64655655
    C     -1.61469501      1.20399101     -1.38582529
    N     -0.88622147      1.98796650     -1.79740798
    C     -3.27631446     -3.19589795     -3.93224671
    H     -2.26828207     -3.23574118     -4.28887451
    H     -3.74584221     -2.30306569     -4.28902863
    H     -3.81478331     -4.04900709     -4.28883498
    C     -3.27636599     -3.19572511     -2.39224672
    N     -3.27640436     -3.19559642     -1.24564673
    C      1.74634554      0.16392784      5.18740670
    H      1.09527643     -0.39559612      4.54870322
    H      1.16815729      0.83978036      5.78223509
    H      2.28097058     -0.50657677      5.82732758
    C      2.74609859      0.96152851      4.32954482
    N      3.49046018      1.55537846      3.69082765
    C      1.75963928      4.48506613      2.75418545
    H      1.25579762      4.94723424      1.93111534
    H      2.50229335      3.80957755      2.38394336
    H      2.22871595      5.23744077      3.35318343
    C      0.74080637      3.70922972      3.60955517
    N     -0.01776104      3.13158425      4.24641682
    C      4.87929561      1.41434489     -0.95987965
    H      4.40379328      1.60142557     -0.01977405
    H      5.34851739      2.31115271     -1.30696142
    H      5.61736441      0.64894911     -0.84020155
    C      3.82606569      0.95595263     -1.98563950
    N      3.04188814      0.61465875     -2.74936434
    C      3.69606173     -2.86624756     -1.92379322
    H      2.96169895     -2.70635214     -1.16218640
    H      3.69350056     -3.89699051     -2.21095435
    H      3.46631591     -2.25856421     -2.77399137
    C      5.08734604     -2.48748722     -1.38298959
    N      6.12322045     -2.20548292     -0.98033671
    C      1.31001433      1.34125079      0.68674968
    H      2.22638617      1.51468173      1.21123470
    H      0.89106276      2.27732895      0.38156721
    H      1.50150871      0.73799225     -0.17598326
    C      0.31849044      0.61262712      1.61281012
    N     -0.41974416      0.07013367      2.30230420
    C     -0.25286299     -5.22134915     -0.44309067
    H      0.10987798     -6.20741507     -0.24062293
    H     -1.26410869     -5.13666243     -0.10381295
    H      0.35604211     -4.50533543      0.06823899
    C     -0.19586900     -4.95456096     -1.95873435
    N     -0.15343439     -4.75592503     -3.08719996
    C     -6.26410321     -0.49172394     -0.33457882
    H     -7.32512956     -0.46328950     -0.19924682
    H     -5.83399685      0.41919908      0.02615218
    H     -5.85716750     -1.31829663      0.20955351
    C     -5.94173272     -0.65405000     -1.83168520
    N     -5.70171324     -0.77490913     -2.94634896
    C     -2.30242194      0.44099276      5.19500673
    H     -1.70898070      1.05078443      4.54625270
    H     -2.31149753      0.86781369      6.17614924
    H     -3.30296065      0.38917528      4.81932558
    C     -1.70344277     -0.97637858      5.25731593
    N     -1.25747555     -2.03167597      5.30370796
    C     -2.42888638     -2.77479595      1.95710411
    H     -2.07328583     -3.11683127      2.90655673
    H     -1.59918533     -2.46939819      1.35442057
    H     -2.95369578     -3.56752659      1.46613331
    C     -3.37950312     -1.58112359      2.16464718
    N     -4.08728049     -0.69238027      2.31917243
    C      5.77312920     -0.76445430      2.55964110
    H      5.89107397      0.26155400      2.83945564
    H      6.62007006     -1.07715304      1.98535043
    H      5.69676960     -1.36774179      3.44004584
    C      4.49431363     -0.92280413      1.71634039
    N      3.54217732     -1.04070277      1.08846468
    C     -4.35572811      1.87199886     -4.60432985
    H     -3.96186089      2.86064780     -4.71542472
    H     -4.90684858      1.80835572     -3.68939003
    H     -5.00349707      1.65160789     -5.42696117
    C     -3.19709587      0.85787843     -4.57729146
    N     -2.33444149      0.10281968     -4.55716016
    C     -3.15436564      4.80836678     -1.99740924
    H     -3.49275453      5.09711844     -2.97055652
    H     -2.14561646      4.45711617     -2.06023588
    H     -3.19820594      5.65134964     -1.33987064
    C     -4.05608770      3.68505140     -1.45274433
    N     -4.72746076      2.84869203     -1.04721654
    C     -2.92775847      2.64182684      2.13924608
    H     -2.60270354      1.62655157      2.04729171
    H     -3.90804715      2.74164249      1.72214894
    H     -2.95031208      2.91686602      3.17304678
    C     -1.95224961      3.56355514      1.38399819
    N     -1.22593892      4.24982377      0.82168180
