
                                 *****************
                                 * O   R   C   A *
                                 *****************

           --- An Ab Initio, DFT and Semiempirical electronic structure package ---

                  #######################################################
                  #                        -***-                        #
                  #  Department of molecular theory and spectroscopy    #
                  #              Directorship: Frank Neese              #
                  # Max Planck Institute for Chemical Energy Conversion #
                  #                  D-45470 Muelheim/Ruhr              #
                  #                       Germany                       #
                  #                                                     #
                  #                  All rights reserved                #
                  #                        -***-                        #
                  #######################################################


                         Program Version 3.0.3 - RELEASE   -


 With contributions from (in alphabetic order):
   Ute Becker             : Parallelization
   Dmytro Bykov           : SCF Hessian
   Dmitry Ganyushin       : Spin-Orbit,Spin-Spin,Magnetic field MRCI
   Andreas Hansen         : Spin unrestricted coupled pair/coupled cluster methods
   Dimitrios Liakos       : Extrapolation schemes; parallel MDCI
   Robert Izsak           : Overlap fitted RIJCOSX, COSX-SCS-MP3
   Christian Kollmar      : KDIIS, OOCD, Brueckner-CCSD(T), CCSD density
   Simone Kossmann        : Meta GGA functionals, TD-DFT gradient, OOMP2, MP2 Hessian
   Taras Petrenko         : DFT Hessian,TD-DFT gradient, ASA and ECA modules, normal mode analysis, Resonance Raman, ABS, FL, XAS/XES, NRVS
   Christoph Reimann      : Effective Core Potentials
   Michael Roemelt        : Restricted open shell CIS
   Christoph Riplinger    : Improved optimizer, TS searches, QM/MM, DLPNO-CCSD
   Barbara Sandhoefer     : DKH picture change effects
   Igor Schapiro          : Molecular dynamics
   Kantharuban Sivalingam : CASSCF convergence, NEVPT2
   Boris Wezisla          : Elementary symmetry handling
   Frank Wennmohs         : Technical directorship


 We gratefully acknowledge several colleagues who have allowed us to
 interface, adapt or use parts of their codes:
   Stefan Grimme, W. Hujo, H. Kruse, T. Risthaus : VdW corrections, initial TS optimization,
                                                   DFT functionals, gCP
   Ed Valeev                                     : LibInt (2-el integral package), F12 methods
   Garnet Chan, S. Sharma, R. Olivares           : DMRG
   Ulf Ekstrom                                   : XCFun DFT Library
   Mihaly Kallay                                 : mrcc  (arbitrary order and MRCC methods)
   Andreas Klamt, Michael Diedenhofen            : otool_cosmo (COSMO solvation model)
   Frank Weinhold                                : gennbo (NPA and NBO analysis)
   Christopher J. Cramer and Donald G. Truhlar   : smd solvation model


 Your calculation uses the libint2 library for the computation of 2-el integrals
 For citations please refer to: http://libint.valeyev.net

 This ORCA versions uses:
   CBLAS   interface :  Fast vector & matrix operations
   LAPACKE interface :  Fast linear algebra routines
   SCALAPACK package :  Parallel linear algebra routines


Your calculation utilizes the basis: Ahlrichs-TZV
Cite in your paper:
H - Kr: A. Schaefer, H. Horn and R. Ahlrichs, J. Chem. Phys. 97, 2571 (1992).

The def2-TZV basis will be loaded
Cite in your paper:
 	F. Weigend, R. Ahlrichs, Phys. Chem. Chem. Phys. 2005, 7, 3297.

Your calculation utilizes the atom-pairwise dispersion correction
with the Becke-Johnson damping scheme (D3BJ)
Cite in your paper:
S.Grimme, S.Ehrlich, L.Goerigk, J Comput Chem, (2011), 32, 1456–1465 
S.Grimme, J.Antony, S.Ehrlich and H.Krieg, J.Chem.Phys., 132, (2010), 154104 
   

================================================================================
                                        WARNINGS
                       Please study these warnings very carefully!
================================================================================
Now building the actual basis set


INFO   : the flag for use of LIBINT has been found!

================================================================================
                                       INPUT FILE
================================================================================
NAME = 0_B3LYP_GasPhase_onB3LYP_4_waters.inp
|  1> ! B3LYP Def2-TZVP def2-TZVP/J RIJCOSX TightSCF Grid4 D3BJ
|  2> 
|  3> %pal nprocs 12 end
|  4> 
|  5> %scf
|  6>         maxiter 400
|  7> end
|  8> 
|  9> * xyz  0  1
| 10> O  1.859564	0.397019	0.274746
| 11> H  1.390834	0.129123	-0.562454
| 12> H  2.440986	-0.352296	0.463463
| 13> O  0.359035	-0.389193	-1.782078
| 14> H  -0.518355	-0.450512	-1.315457
| 15> H  0.218420	0.274116	-2.470899
| 16> O  -0.351615	0.394840	1.792929
| 17> H  0.526501	0.399612	1.323415
| 18> H  -0.481612	1.315755	2.057465
| 19> O  -1.852869	-0.387030	-0.280741
| 20> H  -2.190508	-1.262445	-0.047154
| 21> H  -1.400382	-0.068990	0.546765
| 22> **                         ****END OF INPUT****
================================================================================

                       ****************************
                       * Single Point Calculation *
                       ****************************

---------------------------------
CARTESIAN COORDINATES (ANGSTROEM)
---------------------------------
  O      1.859564    0.397019    0.274746
  H      1.390834    0.129123   -0.562454
  H      2.440986   -0.352296    0.463463
  O      0.359035   -0.389193   -1.782078
  H     -0.518355   -0.450512   -1.315457
  H      0.218420    0.274116   -2.470899
  O     -0.351615    0.394840    1.792929
  H      0.526501    0.399612    1.323415
  H     -0.481612    1.315755    2.057465
  O     -1.852869   -0.387030   -0.280741
  H     -2.190508   -1.262445   -0.047154
  H     -1.400382   -0.068990    0.546765

----------------------------
CARTESIAN COORDINATES (A.U.)
----------------------------
  NO LB      ZA    FRAG    MASS        X           Y           Z
   0 O     8.0000    0    15.999          3.514066688499138          0.750257179963281          0.519194696390328
   1 H     1.0000    0     1.008          2.628295357746230          0.244007107590314         -1.062884022928544
   2 H     1.0000    0     1.008          4.612795036735901         -0.665742958075921          0.875818143205545
   3 O     8.0000    0    15.999          0.678477822492417         -0.735468183239214         -3.367639369286116
   4 H     1.0000    0     1.008         -0.979548990148750         -0.851344300045131         -2.485853470949648
   5 H     1.0000    0     1.008          0.412753982171080          0.518004168925958         -4.669322414579887
   6 O     8.0000    0    15.999         -0.664456054578721          0.746139466717467          3.388144787565296
   7 H     1.0000    0     1.008          0.994942699235673          0.755157239828539          2.500891911523393
   8 H     1.0000    0     1.008         -0.910114782810082          2.486416609337557          3.888045380128288
   9 O     8.0000    0    15.999         -3.501414972032536         -0.731380705611542         -0.530523604563186
  10 H     1.0000    0     1.008         -4.139460214163573         -2.385675309138215         -0.089108146118923
  11 H     1.0000    0     1.008         -2.646338462872910         -0.130372205979227          1.033236109613453

--------------------------------
INTERNAL COORDINATES (ANGSTROEM)
--------------------------------
 O      0   0   0   0.000000     0.000     0.000
 H      1   0   0   0.996183     0.000     0.000
 H      1   2   0   0.967026   103.800     0.000
 O      2   1   3   1.679507   169.218   101.956
 H      4   2   1   0.995645   102.712    11.485
 H      4   2   1   0.966554   113.272   123.438
 O      1   2   3   2.682200    95.024   245.221
 H      7   1   2   0.995768     6.345   166.400
 H      7   1   2   0.966935   105.362   245.418
 O      5   4   2   1.689851   168.690    12.388
 H     10   5   4   0.966910   112.934   238.419
 H     10   5   4   0.995319    99.326   348.388

---------------------------
INTERNAL COORDINATES (A.U.)
---------------------------
 O      0   0   0   0.000000     0.000     0.000
 H      1   0   0   1.882512     0.000     0.000
 H      1   2   0   1.827414   103.800     0.000
 O      2   1   3   3.173808   169.218   101.956
 H      4   2   1   1.881496   102.712    11.485
 H      4   2   1   1.826522   113.272   123.438
 O      1   2   3   5.068623    95.024   245.221
 H      7   1   2   1.881729     6.345   166.400
 H      7   1   2   1.827242   105.362   245.418
 O      5   4   2   3.193355   168.690    12.388
 H     10   5   4   1.827195   112.934   238.419
 H     10   5   4   1.880881    99.326   348.388

---------------------
BASIS SET INFORMATION
---------------------
There are 2 groups of distinct atoms

 Group   1 Type O   : 11s6p2d1f contracted to 5s3p2d1f pattern {62111/411/11/1}
 Group   2 Type H   : 5s1p contracted to 3s1p pattern {311/1}

Atom   0O    basis set group =>   1
Atom   1H    basis set group =>   2
Atom   2H    basis set group =>   2
Atom   3O    basis set group =>   1
Atom   4H    basis set group =>   2
Atom   5H    basis set group =>   2
Atom   6O    basis set group =>   1
Atom   7H    basis set group =>   2
Atom   8H    basis set group =>   2
Atom   9O    basis set group =>   1
Atom  10H    basis set group =>   2
Atom  11H    basis set group =>   2
-------------------------------
AUXILIARY BASIS SET INFORMATION
-------------------------------
There are 2 groups of distinct atoms

 Group   1 Type O   : 12s5p4d2f1g contracted to 6s4p3d1f1g pattern {711111/2111/211/2/1}
 Group   2 Type H   : 5s2p1d contracted to 3s1p1d pattern {311/2/1}

Atom   0O    basis set group =>   1
Atom   1H    basis set group =>   2
Atom   2H    basis set group =>   2
Atom   3O    basis set group =>   1
Atom   4H    basis set group =>   2
Atom   5H    basis set group =>   2
Atom   6O    basis set group =>   1
Atom   7H    basis set group =>   2
Atom   8H    basis set group =>   2
Atom   9O    basis set group =>   1
Atom  10H    basis set group =>   2
Atom  11H    basis set group =>   2
smp-n107.crc.pitt.edu.219609hfi_wait_for_device: The /dev/hfi1_0 device failed to appear after 15.0 seconds: Connection timed out
smp-n107.crc.pitt.edu.219611hfi_wait_for_device: The /dev/hfi1_0 device failed to appear after 15.0 seconds: Connection timed out
smp-n107.crc.pitt.edu.219612hfi_wait_for_device: The /dev/hfi1_0 device failed to appear after 15.0 seconds: Connection timed out
smp-n107.crc.pitt.edu.219613hfi_wait_for_device: The /dev/hfi1_0 device failed to appear after 15.0 seconds: Connection timed out
smp-n107.crc.pitt.edu.219617hfi_wait_for_device: The /dev/hfi1_0 device failed to appear after 15.0 seconds: Connection timed out
smp-n107.crc.pitt.edu.219615hfi_wait_for_device: The /dev/hfi1_0 device failed to appear after 15.0 seconds: Connection timed out
smp-n107.crc.pitt.edu.219610hfi_wait_for_device: The /dev/hfi1_0 device failed to appear after 15.0 seconds: Connection timed out
smp-n107.crc.pitt.edu.219619hfi_wait_for_device: The /dev/hfi1_0 device failed to appear after 15.0 seconds: Connection timed out
smp-n107.crc.pitt.edu.219614hfi_wait_for_device: The /dev/hfi1_0 device failed to appear after 15.0 seconds: Connection timed out
smp-n107.crc.pitt.edu.219616hfi_wait_for_device: The /dev/hfi1_0 device failed to appear after 15.0 seconds: Connection timed out
smp-n107.crc.pitt.edu.219620hfi_wait_for_device: The /dev/hfi1_0 device failed to appear after 15.0 seconds: Connection timed out
smp-n107.crc.pitt.edu.219618hfi_wait_for_device: The /dev/hfi1_0 device failed to appear after 15.0 seconds: Connection timed out


           ************************************************************
           *        Program running with 12 parallel MPI-processes    *
           *              working on a common directory               *
           ************************************************************
------------------------------------------------------------------------------
                           ORCA GTO INTEGRAL CALCULATION
                           -- RI-GTO INTEGRALS CHOSEN --
------------------------------------------------------------------------------

                         BASIS SET STATISTICS AND STARTUP INFO

Gaussian basis set:
 # of primitive gaussian shells          ...  128
 # of primitive gaussian functions       ...  248
 # of contracted shells                  ...   76
 # of contracted basis functions         ...  172
 Highest angular momentum                ...    3
 Maximum contraction depth               ...    6
Auxiliary gaussian basis set:
 # of primitive gaussian shells          ...  160
 # of primitive gaussian functions       ...  408
 # of contracted shells                  ...  100
 # of contracted aux-basis functions     ...  284
 Highest angular momentum                ...    4
 Maximum contraction depth               ...    7
Ratio of auxiliary to basis functions    ...  1.65
Integral package used                  ... LIBINT
 One Electron integrals                  ... done
 Ordering auxiliary basis shells         ... done
 Integral threshhold             Thresh  ...  2.500e-11
 Primitive cut-off               TCut    ...  2.500e-12
 Pre-screening matrix                    ... done
 Shell pair data                         ... 
 Ordering of the shell pairs             ... done (   0.000 sec) 2691 of 2926 pairs
 Determination of significant pairs      ... done (   0.000 sec)
 Creation of shell pair data             ... done (   0.000 sec)
 Storage of shell pair data              ... done (   0.000 sec)
 Shell pair data done in (   0.001 sec)
 Computing two index integrals           ... done
 Cholesky decomposition of the V-matrix  ... done


Timings:
 Total evaluation time                   ...   0.121 sec (  0.002 min)
 One electron matrix time                ...   0.012 sec (  0.000 min) = 10.0%
 Schwartz matrix evaluation time         ...   0.091 sec (  0.002 min) = 75.0%
 Two index repulsion integral time       ...   0.002 sec (  0.000 min) =  1.4%
 Cholesky decomposition of V             ...   0.001 sec (  0.000 min) =  1.1%
 Three index repulsion integral time     ...   0.000 sec (  0.000 min) =  0.0%

           ************************************************************
           *              Shut down parallel processing               *
           ************************************************************
smp-n107.crc.pitt.edu.219635hfi_wait_for_device: The /dev/hfi1_0 device failed to appear after 15.0 seconds: Connection timed out
smp-n107.crc.pitt.edu.219641hfi_wait_for_device: The /dev/hfi1_0 device failed to appear after 15.0 seconds: Connection timed out
smp-n107.crc.pitt.edu.219639hfi_wait_for_device: The /dev/hfi1_0 device failed to appear after 15.0 seconds: Connection timed out
smp-n107.crc.pitt.edu.219643hfi_wait_for_device: The /dev/hfi1_0 device failed to appear after 15.0 seconds: Connection timed out
smp-n107.crc.pitt.edu.219637hfi_wait_for_device: The /dev/hfi1_0 device failed to appear after 15.0 seconds: Connection timed out
smp-n107.crc.pitt.edu.219640hfi_wait_for_device: The /dev/hfi1_0 device failed to appear after 15.0 seconds: Connection timed out
smp-n107.crc.pitt.edu.219644hfi_wait_for_device: The /dev/hfi1_0 device failed to appear after 15.0 seconds: Connection timed out
smp-n107.crc.pitt.edu.219647hfi_wait_for_device: The /dev/hfi1_0 device failed to appear after 15.0 seconds: Connection timed out
smp-n107.crc.pitt.edu.219642hfi_wait_for_device: The /dev/hfi1_0 device failed to appear after 15.0 seconds: Connection timed out
smp-n107.crc.pitt.edu.219636hfi_wait_for_device: The /dev/hfi1_0 device failed to appear after 15.0 seconds: Connection timed out
smp-n107.crc.pitt.edu.219638hfi_wait_for_device: The /dev/hfi1_0 device failed to appear after 15.0 seconds: Connection timed out
smp-n107.crc.pitt.edu.219651hfi_wait_for_device: The /dev/hfi1_0 device failed to appear after 15.0 seconds: Connection timed out


           ************************************************************
           *        Program running with 12 parallel MPI-processes    *
           *              working on a common directory               *
           ************************************************************
-------------------------------------------------------------------------------
                                 ORCA SCF
-------------------------------------------------------------------------------

------------
SCF SETTINGS
------------
Hamiltonian:
 Density Functional     Method          .... DFT(GTOs)
 Exchange Functional    Exchange        .... B88
   X-Alpha parameter    XAlpha          ....  0.666667
   Becke's b parameter  XBeta           ....  0.004200
 Correlation Functional Correlation     .... LYP
 LDA part of GGA corr.  LDAOpt          .... VWN-5
 Gradients option       PostSCFGGA      .... off
 Hybrid DFT is turned on
   Fraction HF Exchange ScalHFX         ....  0.200000
   Scaling of DF-GGA-X  ScalDFX         ....  0.720000
   Scaling of DF-GGA-C  ScalDFC         ....  0.810000
   Scaling of DF-LDA-C  ScalLDAC        ....  1.000000
   Perturbative correction              ....  0.000000
   NL short-range parameter             ....  4.800000
 RI-approximation to the Coulomb term is turned on
   Number of auxiliary basis functions  .... 284
   RIJ-COSX (HFX calculated with COS-X)).... on


General Settings:
 Integral files         IntName         .... 0_B3LYP_GasPhase_onB3LYP_4_waters
 Hartree-Fock type      HFTyp           .... RHF
 Total Charge           Charge          ....    0
 Multiplicity           Mult            ....    1
 Number of Electrons    NEL             ....   40
 Basis Dimension        Dim             ....  172
 Nuclear Repulsion      ENuc            ....    144.3628251494 Eh

Convergence Acceleration:
 DIIS                   CNVDIIS         .... on
   Start iteration      DIISMaxIt       ....    12
   Startup error        DIISStart       ....  0.200000
   # of expansion vecs  DIISMaxEq       ....     5
   Bias factor          DIISBfac        ....   1.050
   Max. coefficient     DIISMaxC        ....  10.000
 Newton-Raphson         CNVNR           .... off
 SOSCF                  CNVSOSCF        .... on
   Start iteration      SOSCFMaxIt      ....   150
   Startup grad/error   SOSCFStart      ....  0.003300
 Level Shifting         CNVShift        .... on
   Level shift para.    LevelShift      ....    0.2500
   Turn off err/grad.   ShiftErr        ....    0.0010
 Zerner damping         CNVZerner       .... off
 Static damping         CNVDamp         .... on
   Fraction old density DampFac         ....    0.7000
   Max. Damping (<1)    DampMax         ....    0.9800
   Min. Damping (>=0)   DampMin         ....    0.0000
   Turn off err/grad.   DampErr         ....    0.1000
 Fernandez-Rico         CNVRico         .... off

SCF Procedure:
 Maximum # iterations   MaxIter         ....   400
 SCF integral mode      SCFMode         .... Direct
   Integral package                     .... LIBINT
 Reset frequeny         DirectResetFreq ....    20
 Integral Threshold     Thresh          ....  2.500e-11 Eh
 Primitive CutOff       TCut            ....  2.500e-12 Eh

Convergence Tolerance:
 Convergence Check Mode ConvCheckMode   .... Total+1el-Energy
 Energy Change          TolE            ....  1.000e-08 Eh
 1-El. energy change                    ....  1.000e-05 Eh
 Orbital Gradient       TolG            ....  1.000e-05
 Orbital Rotation angle TolX            ....  1.000e-05
 DIIS Error             TolErr          ....  5.000e-07


Diagonalization of the overlap matrix:
Smallest eigenvalue                        ... 3.647e-03
Time for diagonalization                   ...    0.005 sec
Threshold for overlap eigenvalues          ... 1.000e-08
Number of eigenvalues below threshold      ... 0
Time for construction of square roots      ...    0.002 sec
Total time needed                          ...    0.007 sec

-------------------
DFT GRID GENERATION
-------------------

General Integration Accuracy     IntAcc      ...  4.670
Radial Grid Type                 RadialGrid  ... Gauss-Chebyshev
Angular Grid (max. acc.)         AngularGrid ... Lebedev-302
Angular grid pruning method      GridPruning ... 3 (G Style)
Weight generation scheme         WeightScheme... Becke
Basis function cutoff            BFCut       ...    1.0000e-11
Integration weight cutoff        WCut        ...    1.0000e-14
Grids for H and He will be reduced by one unit

# of grid points (after initial pruning)     ...  52000 (   0.0 sec)
# of grid points (after weights+screening)   ...  49066 (   0.0 sec)
nearest neighbour list constructed           ...    0.0 sec
Grid point re-assignment to atoms done       ...    0.0 sec
Grid point division into batches done        ...    0.1 sec
Reduced shell lists constructed in    0.1 sec

Total number of grid points                  ...    49066
Total number of batches                      ...      772
Average number of points per batch           ...       63
Average number of grid points per atom       ...     4089
Average number of shells per batch           ...    47.88 (63.00%)
Average number of basis functions per batch  ...   102.48 (59.58%)
Average number of large shells per batch     ...    36.86 (76.99%)
Average number of large basis fcns per batch ...    73.83 (72.04%)
Maximum spatial batch extension              ...  12.08, 12.00, 13.64 au
Average spatial batch extension              ...   0.17,  0.17,  0.17 au

Time for grid setup =    0.175 sec

------------------------------
INITIAL GUESS: MODEL POTENTIAL
------------------------------
Loading Hartree-Fock densities                     ... done
Calculating cut-offs                               ... done
Setting up the integral package                    ... done
Initializing the effective Hamiltonian             ... done
Starting the Coulomb interaction                   ... done (   0.0 sec)
Reading the grid                                   ... done
Mapping shells                                     ... done
Starting the XC term evaluation                    ... done (   0.0 sec)
  promolecular density results
     # of electrons  =     39.995892978
     EX              =    -35.158667467
     EC              =     -1.369400107
     EX+EC           =    -36.528067574
Transforming the Hamiltonian                       ... done (   0.0 sec)
Diagonalizing the Hamiltonian                      ... done (   0.0 sec)
Back transforming the eigenvectors                 ... done (   0.0 sec)
Now organizing SCF variables                       ... done
                      ------------------
                      INITIAL GUESS DONE (   0.3 sec)
                      ------------------
--------------------
COSX GRID GENERATION
--------------------

General Integration Accuracy     IntAcc      ...  3.340
Radial Grid Type                 RadialGrid  ... Gauss-Chebyshev
Angular Grid (max. acc.)         AngularGrid ... Lebedev-50
Angular grid pruning method      GridPruning ... 3 (G Style)
Weight generation scheme         WeightScheme... Becke
Basis function cutoff            BFCut       ...    1.0000e-11
Integration weight cutoff        WCut        ...    1.0000e-14
Grids for H and He will be reduced by one unit

# of grid points (after initial pruning)     ...   4880 (   0.0 sec)
# of grid points (after weights+screening)   ...   4647 (   0.0 sec)
nearest neighbour list constructed           ...    0.0 sec
Grid point re-assignment to atoms done       ...    0.0 sec
Grid point division into batches done        ...    0.0 sec
Reduced shell lists constructed in    0.0 sec

Total number of grid points                  ...     4647
Total number of batches                      ...       78
Average number of points per batch           ...       59
Average number of grid points per atom       ...      387
Average number of shells per batch           ...    49.38 (64.97%)
Average number of basis functions per batch  ...   109.62 (63.74%)
Average number of large shells per batch     ...    37.38 (75.70%)
Average number of large basis fcns per batch ...    76.12 (69.44%)
Maximum spatial batch extension              ...  11.24,  9.55, 16.92 au
Average spatial batch extension              ...   0.31,  0.40,  0.38 au

Overlap Fitting                  UseSFitting ... on
Constructing numerical overlap ... done (      0.0 sec)
Inverting numerical overlap    ... done (      0.0 sec)
Obtaining analytic overlap     ... done (      0.0 sec)
Final contraction and storage  ... done (      0.0 sec)


General Integration Accuracy     IntAcc      ...  3.670
Radial Grid Type                 RadialGrid  ... Gauss-Chebyshev
Angular Grid (max. acc.)         AngularGrid ... Lebedev-50
Angular grid pruning method      GridPruning ... 3 (G Style)
Weight generation scheme         WeightScheme... Becke
Basis function cutoff            BFCut       ...    1.0000e-11
Integration weight cutoff        WCut        ...    1.0000e-14
Grids for H and He will be reduced by one unit

# of grid points (after initial pruning)     ...   6408 (   0.0 sec)
# of grid points (after weights+screening)   ...   6093 (   0.0 sec)
nearest neighbour list constructed           ...    0.0 sec
Grid point re-assignment to atoms done       ...    0.0 sec
Grid point division into batches done        ...    0.0 sec
Reduced shell lists constructed in    0.0 sec

Total number of grid points                  ...     6093
Total number of batches                      ...      100
Average number of points per batch           ...       60
Average number of grid points per atom       ...      508
Average number of shells per batch           ...    49.80 (65.53%)
Average number of basis functions per batch  ...   109.80 (63.84%)
Average number of large shells per batch     ...    37.70 (75.70%)
Average number of large basis fcns per batch ...    75.70 (68.94%)
Maximum spatial batch extension              ...  12.22, 10.02, 18.51 au
Average spatial batch extension              ...   0.28,  0.28,  0.34 au

Overlap Fitting                  UseSFitting ... on
Constructing numerical overlap ... done (      0.0 sec)
Inverting numerical overlap    ... done (      0.0 sec)
Obtaining analytic overlap     ... done (      0.0 sec)
Final contraction and storage  ... done (      0.0 sec)


General Integration Accuracy     IntAcc      ...  4.010
Radial Grid Type                 RadialGrid  ... Gauss-Chebyshev
Angular Grid (max. acc.)         AngularGrid ... Lebedev-110
Angular grid pruning method      GridPruning ... 3 (G Style)
Weight generation scheme         WeightScheme... Becke
Basis function cutoff            BFCut       ...    1.0000e-11
Integration weight cutoff        WCut        ...    1.0000e-14
Grids for H and He will be reduced by one unit

# of grid points (after initial pruning)     ...  11032 (   0.0 sec)
# of grid points (after weights+screening)   ...  10506 (   0.0 sec)
nearest neighbour list constructed           ...    0.0 sec
Grid point re-assignment to atoms done       ...    0.0 sec
Grid point division into batches done        ...    0.0 sec
Reduced shell lists constructed in    0.0 sec

Total number of grid points                  ...    10506
Total number of batches                      ...      169
Average number of points per batch           ...       62
Average number of grid points per atom       ...      876
Average number of shells per batch           ...    50.25 (66.12%)
Average number of basis functions per batch  ...   110.00 (63.95%)
Average number of large shells per batch     ...    38.19 (76.00%)
Average number of large basis fcns per batch ...    78.31 (71.19%)
Maximum spatial batch extension              ...  11.15, 12.34, 17.78 au
Average spatial batch extension              ...   0.23,  0.25,  0.29 au

Overlap Fitting                  UseSFitting ... on
Constructing numerical overlap ... done (      0.0 sec)
Inverting numerical overlap    ... done (      0.0 sec)
Obtaining analytic overlap     ... done (      0.0 sec)
Final contraction and storage  ... done (      0.0 sec)

Time for X-Grid setup             =    0.107 sec
--------------
SCF ITERATIONS
--------------
ITER       Energy         Delta-E        Max-DP      RMS-DP      [F,P]     Damp
               ***  Starting incremental Fock matrix formation  ***
  0   -305.4087990341   0.000000000000 0.05190123  0.00189263  0.3244687 0.7000
  1   -305.5795386027  -0.170739568549 0.03099077  0.00115489  0.1352025 0.7000
                               ***Turning on DIIS***
  2   -305.6345799563  -0.055041353608 0.03057821  0.00136720  0.0312381 0.0000
  3   -305.7320424020  -0.097462445741 0.02083416  0.00071978  0.0767562 0.0000
  4   -305.7507376747  -0.018695272635 0.00475322  0.00020371  0.0133066 0.0000
                      *** Initiating the SOSCF procedure ***
                           *** Shutting down DIIS ***
                      *** Re-Reading the Fockian *** 
                      *** Removing any level shift *** 
ITER      Energy       Delta-E        Grad      Rot      Max-DP    RMS-DP
  5   -305.75140618  -0.0006685053  0.000593  0.000593  0.001335  0.000062
               *** Restarting incremental Fock matrix formation ***
  6   -305.75142840  -0.0000222166  0.000233  0.000524  0.000707  0.000035
  7   -305.75142969  -0.0000012967  0.000168  0.000112  0.000230  0.000009
  8   -305.75143062  -0.0000009298  0.000052  0.000108  0.000149  0.000007
  9   -305.75143074  -0.0000001179  0.000012  0.000018  0.000029  0.000001
 10   -305.75143074   0.0000000035  0.000016  0.000011  0.000018  0.000001
                  ***Gradient check signals convergence***
              ***Rediagonalizing the Fockian in SOSCF/NRSCF***

               *****************************************************
               *                     SUCCESS                       *
               *           SCF CONVERGED AFTER  11 CYCLES          *
               *****************************************************

Setting up the final grid:

General Integration Accuracy     IntAcc      ...  5.010
Radial Grid Type                 RadialGrid  ... Gauss-Chebyshev
Angular Grid (max. acc.)         AngularGrid ... Lebedev-434
Angular grid pruning method      GridPruning ... 3 (G Style)
Weight generation scheme         WeightScheme... Becke
Basis function cutoff            BFCut       ...    1.0000e-11
Integration weight cutoff        WCut        ...    1.0000e-14
Grids for H and He will be reduced by one unit

# of grid points (after initial pruning)     ...  96904 (   0.0 sec)
# of grid points (after weights+screening)   ...  91228 (   0.0 sec)
nearest neighbour list constructed           ...    0.0 sec
Grid point re-assignment to atoms done       ...    0.0 sec
Grid point division into batches done        ...    0.4 sec
Reduced shell lists constructed in    0.5 sec

Total number of grid points                  ...    91228
Total number of batches                      ...     1431
Average number of points per batch           ...       63
Average number of grid points per atom       ...     7602
Average number of shells per batch           ...    46.50 (61.18%)
Average number of basis functions per batch  ...    98.48 (57.26%)
Average number of large shells per batch     ...    36.02 (77.48%)
Average number of large basis fcns per batch ...    71.79 (72.90%)
Maximum spatial batch extension              ...  12.96, 11.75, 10.45 au
Average spatial batch extension              ...   0.15,  0.14,  0.13 au

Final grid set up in    0.6 sec
Final integration                            ... done (   0.1 sec)
Change in XC energy                          ...    -0.000013489
Integrated number of electrons               ...    40.000028851
Previous integrated no of electrons          ...    39.999973154
Old exchange energy                            =     -7.143564703 Eh
New exchange energy                            =     -7.143263750 Eh
Exchange energy change after final integration =      0.000300953 Eh
Total energy after final integration           =   -305.751143277 Eh
Final COS-X integration done in                =     0.303 sec

----------------
TOTAL SCF ENERGY
----------------

Total Energy       :         -305.75114328 Eh           -8319.91158 eV

Components:
Nuclear Repulsion  :          144.36282515 Eh            3928.31218 eV
Electronic Energy  :         -450.11396843 Eh          -12248.22377 eV

One Electron Energy:         -707.64179746 Eh          -19255.91226 eV
Two Electron Energy:          257.52782904 Eh            7007.68849 eV

Virial components:
Potential Energy   :         -610.36107367 Eh          -16608.76919 eV
Kinetic Energy     :          304.60993039 Eh            8288.85760 eV
Virial Ratio       :            2.00374647


DFT components:
N(Alpha)           :       20.000014425289 electrons
N(Beta)            :       20.000014425289 electrons
N(Total)           :       40.000028850578 electrons
E(X)               :      -28.470716623130 Eh       
E(C)               :       -1.628302094385 Eh       
E(XC)              :      -30.099018717515 Eh       

---------------
SCF CONVERGENCE
---------------

  Last Energy change         ...   -2.8780e-09  Tolerance :   1.0000e-08
  Last MAX-Density change    ...    8.3267e-16  Tolerance :   1.0000e-07
  Last RMS-Density change    ...    2.7953e-17  Tolerance :   5.0000e-09
  Last Orbital Gradient      ...    1.0539e-06  Tolerance :   1.0000e-05
  Last Orbital Rotation      ...    2.6521e-06  Tolerance :   1.0000e-05

             **** THE GBW FILE WAS UPDATED (0_B3LYP_GasPhase_onB3LYP_4_waters.gbw) ****
             **** DENSITY FILE WAS UPDATED (0_B3LYP_GasPhase_onB3LYP_4_waters.scfp.tmp) ****
             **** ENERGY FILE WAS UPDATED (0_B3LYP_GasPhase_onB3LYP_4_waters.en.tmp) ****
----------------
ORBITAL ENERGIES
----------------

  NO   OCC          E(Eh)            E(eV) 
   0   2.0000     -19.124531      -520.4049 
   1   2.0000     -19.124207      -520.3961 
   2   2.0000     -19.124134      -520.3941 
   3   2.0000     -19.123120      -520.3666 
   4   2.0000      -1.024278       -27.8720 
   5   2.0000      -1.007382       -27.4123 
   6   2.0000      -1.006919       -27.3997 
   7   2.0000      -0.990405       -26.9503 
   8   2.0000      -0.539253       -14.6738 
   9   2.0000      -0.527837       -14.3632 
  10   2.0000      -0.526525       -14.3275 
  11   2.0000      -0.520868       -14.1735 
  12   2.0000      -0.436152       -11.8683 
  13   2.0000      -0.400624       -10.9015 
  14   2.0000      -0.398107       -10.8330 
  15   2.0000      -0.365502        -9.9458 
  16   2.0000      -0.320654        -8.7254 
  17   2.0000      -0.317872        -8.6497 
  18   2.0000      -0.317330        -8.6350 
  19   2.0000      -0.313526        -8.5315 
  20   0.0000       0.009676         0.2633 
  21   0.0000       0.047456         1.2913 
  22   0.0000       0.047562         1.2942 
  23   0.0000       0.065895         1.7931 
  24   0.0000       0.179279         4.8784 
  25   0.0000       0.196673         5.3517 
  26   0.0000       0.197360         5.3704 
  27   0.0000       0.213169         5.8006 
  28   0.0000       0.286144         7.7864 
  29   0.0000       0.321672         8.7531 
  30   0.0000       0.339046         9.2259 
  31   0.0000       0.347204         9.4479 
  32   0.0000       0.348048         9.4709 
  33   0.0000       0.397778        10.8241 
  34   0.0000       0.399427        10.8690 
  35   0.0000       0.423076        11.5125 
  36   0.0000       0.435735        11.8570 
  37   0.0000       0.448715        12.2102 
  38   0.0000       0.451082        12.2746 
  39   0.0000       0.490593        13.3497 
  40   0.0000       0.550642        14.9837 
  41   0.0000       0.559150        15.2153 
  42   0.0000       0.562985        15.3196 
  43   0.0000       0.580253        15.7895 
  44   0.0000       0.628354        17.0984 
  45   0.0000       0.630501        17.1568 
  46   0.0000       0.659735        17.9523 
  47   0.0000       0.715628        19.4732 
  48   0.0000       0.800312        21.7776 
  49   0.0000       0.820017        22.3138 
  50   0.0000       0.830658        22.6034 
  51   0.0000       0.887397        24.1473 
  52   0.0000       1.081486        29.4287 
  53   0.0000       1.139576        31.0095 
  54   0.0000       1.176648        32.0182 
  55   0.0000       1.180594        32.1256 
  56   0.0000       1.198278        32.6068 
  57   0.0000       1.203575        32.7509 
  58   0.0000       1.223911        33.3043 
  59   0.0000       1.324427        36.0395 
  60   0.0000       1.354859        36.8676 
  61   0.0000       1.362080        37.0641 
  62   0.0000       1.363606        37.1056 
  63   0.0000       1.370125        37.2830 
  64   0.0000       1.558335        42.4044 
  65   0.0000       1.587554        43.1995 
  66   0.0000       1.590968        43.2924 
  67   0.0000       1.627971        44.2993 
  68   0.0000       1.647565        44.8325 
  69   0.0000       1.740992        47.3748 
  70   0.0000       1.762163        47.9509 
  71   0.0000       1.764176        48.0057 
  72   0.0000       1.766618        48.0721 
  73   0.0000       1.828919        49.7674 
  74   0.0000       1.845058        50.2066 
  75   0.0000       1.893696        51.5301 
  76   0.0000       1.972655        53.6787 
  77   0.0000       1.977106        53.7998 
  78   0.0000       2.005675        54.5772 
  79   0.0000       2.021405        55.0052 
  80   0.0000       2.057309        55.9822 
  81   0.0000       2.117500        57.6201 
  82   0.0000       2.156286        58.6755 
  83   0.0000       2.160811        58.7986 
  84   0.0000       2.227658        60.6177 
  85   0.0000       2.247996        61.1711 
  86   0.0000       2.262610        61.5687 
  87   0.0000       2.272237        61.8307 
  88   0.0000       2.303487        62.6811 
  89   0.0000       2.307976        62.8032 
  90   0.0000       2.318568        63.0914 
  91   0.0000       2.353926        64.0536 
  92   0.0000       2.375237        64.6335 
  93   0.0000       2.420904        65.8762 
  94   0.0000       2.430773        66.1447 
  95   0.0000       2.433133        66.2089 
  96   0.0000       2.511297        68.3359 
  97   0.0000       2.518118        68.5215 
  98   0.0000       2.534403        68.9646 
  99   0.0000       2.569551        69.9210 
 100   0.0000       2.603898        70.8557 
 101   0.0000       2.636124        71.7326 
 102   0.0000       2.638628        71.8007 
 103   0.0000       2.707431        73.6729 
 104   0.0000       2.801569        76.2346 
 105   0.0000       2.807760        76.4030 
 106   0.0000       2.826601        76.9157 
 107   0.0000       2.932195        79.7891 
 108   0.0000       2.996656        81.5432 
 109   0.0000       3.079699        83.8029 
 110   0.0000       3.087047        84.0028 
 111   0.0000       3.115333        84.7725 
 112   0.0000       3.632923        98.8569 
 113   0.0000       3.699253       100.6618 
 114   0.0000       3.711098       100.9841 
 115   0.0000       3.807945       103.6194 
 116   0.0000       3.903571       106.2216 
 117   0.0000       3.952179       107.5443 
 118   0.0000       3.960333       107.7661 
 119   0.0000       3.975737       108.1853 
 120   0.0000       5.091670       138.5514 
 121   0.0000       5.093926       138.6128 
 122   0.0000       5.097202       138.7019 
 123   0.0000       5.099757       138.7714 
 124   0.0000       5.222059       142.0994 
 125   0.0000       5.226455       142.2191 
 126   0.0000       5.230356       142.3252 
 127   0.0000       5.233391       142.4078 
 128   0.0000       5.341240       145.3425 
 129   0.0000       5.351521       145.6223 
 130   0.0000       5.355110       145.7199 
 131   0.0000       5.377596       146.3318 
 132   0.0000       5.385686       146.5520 
 133   0.0000       5.408703       147.1783 
 134   0.0000       5.411631       147.2580 
 135   0.0000       5.433570       147.8550 
 136   0.0000       5.444844       148.1617 
 137   0.0000       5.446164       148.1976 
 138   0.0000       5.449403       148.2858 
 139   0.0000       5.451446       148.3414 
 140   0.0000       5.968451       162.4098 
 141   0.0000       5.974036       162.5618 
 142   0.0000       5.976760       162.6359 
 143   0.0000       5.981217       162.7572 
 144   0.0000       6.143081       167.1617 
 145   0.0000       6.205017       168.8471 
 146   0.0000       6.210886       169.0068 
 147   0.0000       6.239502       169.7855 
 148   0.0000       6.326883       172.1632 
 149   0.0000       6.371846       173.3867 
 150   0.0000       6.379537       173.5960 
 151   0.0000       6.383548       173.7052 
 152   0.0000       6.413759       174.5273 
 153   0.0000       6.419048       174.6712 
 154   0.0000       6.442861       175.3192 
 155   0.0000       6.465452       175.9339 
 156   0.0000       6.502897       176.9528 
 157   0.0000       6.553667       178.3344 
 158   0.0000       6.559667       178.4976 
 159   0.0000       6.684561       181.8962 
 160   0.0000       6.865256       186.8131 
 161   0.0000       6.965420       189.5387 
 162   0.0000       6.966300       189.5627 
 163   0.0000       6.982171       189.9945 
 164   0.0000       7.035164       191.4366 
 165   0.0000       7.067763       192.3236 
 166   0.0000       7.079959       192.6555 
 167   0.0000       7.112558       193.5426 
 168   0.0000      43.365152      1180.0258 
 169   0.0000      43.416612      1181.4261 
 170   0.0000      43.420835      1181.5410 
 171   0.0000      43.436151      1181.9578 

                    ********************************
                    * MULLIKEN POPULATION ANALYSIS *
                    ********************************

-----------------------
MULLIKEN ATOMIC CHARGES
-----------------------
   0 O :   -0.681846
   1 H :    0.359091
   2 H :    0.324762
   3 O :   -0.683955
   4 H :    0.357617
   5 H :    0.325610
   6 O :   -0.683372
   7 H :    0.355252
   8 H :    0.325513
   9 O :   -0.682175
  10 H :    0.325242
  11 H :    0.358261
Sum of atomic charges:   -0.0000000

--------------------------------
MULLIKEN REDUCED ORBITAL CHARGES
--------------------------------
  0 O s       :     3.794825  s :     3.794825
      pz      :     1.579673  p :     4.866215
      px      :     1.642679
      py      :     1.643863
      dz2     :     0.004136  d :     0.019696
      dxz     :     0.003102
      dyz     :     0.003697
      dx2y2   :     0.002551
      dxy     :     0.006210
      f0      :     0.000058  f :     0.001110
      f+1     :     0.000350
      f-1     :     0.000123
      f+2     :     0.000044
      f-2     :     0.000157
      f+3     :     0.000294
      f-3     :     0.000083
  1 H s       :     0.583426  s :     0.583426
      pz      :     0.026953  p :     0.057483
      px      :     0.018397
      py      :     0.012133
  2 H s       :     0.628759  s :     0.628759
      pz      :     0.012982  p :     0.046479
      px      :     0.015785
      py      :     0.017712
  3 O s       :     3.792456  s :     3.792456
      pz      :     1.568652  p :     4.871197
      px      :     1.586073
      py      :     1.716472
      dz2     :     0.000932  d :     0.019171
      dxz     :     0.004554
      dyz     :     0.005359
      dx2y2   :     0.006331
      dxy     :     0.001996
      f0      :     0.000121  f :     0.001131
      f+1     :     0.000010
      f-1     :     0.000339
      f+2     :     0.000447
      f-2     :     0.000082
      f+3     :     0.000128
      f-3     :     0.000006
  4 H s       :     0.585358  s :     0.585358
      pz      :     0.017682  p :     0.057025
      px      :     0.028181
      py      :     0.011162
  5 H s       :     0.627845  s :     0.627845
      pz      :     0.016499  p :     0.046545
      px      :     0.012144
      py      :     0.017902
  6 O s       :     3.793803  s :     3.793803
      pz      :     1.816272  p :     4.869140
      px      :     1.566330
      py      :     1.486538
      dz2     :     0.002538  d :     0.019307
      dxz     :     0.004635
      dyz     :     0.001773
      dx2y2   :     0.009309
      dxy     :     0.001052
      f0      :     0.000264  f :     0.001122
      f+1     :     0.000052
      f-1     :     0.000137
      f+2     :     0.000376
      f-2     :     0.000057
      f+3     :     0.000097
      f-3     :     0.000140
  7 H s       :     0.587958  s :     0.587958
      pz      :     0.018999  p :     0.056791
      px      :     0.028351
      py      :     0.009441
  8 H s       :     0.627992  s :     0.627992
      pz      :     0.014789  p :     0.046495
      px      :     0.012463
      py      :     0.019243
  9 O s       :     3.793333  s :     3.793333
      pz      :     1.604221  p :     4.868367
      px      :     1.790908
      py      :     1.473238
      dz2     :     0.004925  d :     0.019351
      dxz     :     0.005032
      dyz     :     0.003664
      dx2y2   :     0.004112
      dxy     :     0.001619
      f0      :     0.000032  f :     0.001123
      f+1     :     0.000223
      f-1     :     0.000104
      f+2     :     0.000065
      f-2     :     0.000196
      f+3     :     0.000361
      f-3     :     0.000141
 10 H s       :     0.628205  s :     0.628205
      pz      :     0.012582  p :     0.046554
      px      :     0.015004
      py      :     0.018967
 11 H s       :     0.584853  s :     0.584853
      pz      :     0.025934  p :     0.056886
      px      :     0.018681
      py      :     0.012271


                     *******************************
                     * LOEWDIN POPULATION ANALYSIS *
                     *******************************

----------------------
LOEWDIN ATOMIC CHARGES
----------------------
   0 O :   -0.297587
   1 H :    0.138939
   2 H :    0.156514
   3 O :   -0.295100
   4 H :    0.140069
   5 H :    0.156938
   6 O :   -0.297320
   7 H :    0.139922
   8 H :    0.157047
   9 O :   -0.296383
  10 H :    0.156980
  11 H :    0.139980

-------------------------------
LOEWDIN REDUCED ORBITAL CHARGES
-------------------------------
  0 O s       :     3.463141  s :     3.463141
      pz      :     1.562387  p :     4.802132
      px      :     1.595385
      py      :     1.644360
      dz2     :     0.007040  d :     0.030109
      dxz     :     0.006417
      dyz     :     0.003941
      dx2y2   :     0.002421
      dxy     :     0.010289
      f0      :     0.000128  f :     0.002206
      f+1     :     0.000567
      f-1     :     0.000409
      f+2     :     0.000089
      f-2     :     0.000258
      f+3     :     0.000635
      f-3     :     0.000122
  1 H s       :     0.664782  s :     0.664782
      pz      :     0.099748  p :     0.196279
      px      :     0.058428
      py      :     0.038103
  2 H s       :     0.683191  s :     0.683191
      pz      :     0.035924  p :     0.160295
      px      :     0.055537
      py      :     0.068834
  3 O s       :     3.459364  s :     3.459364
      pz      :     1.534234  p :     4.803625
      px      :     1.575716
      py      :     1.693676
      dz2     :     0.001540  d :     0.029882
      dxz     :     0.008239
      dyz     :     0.009651
      dx2y2   :     0.009032
      dxy     :     0.001420
      f0      :     0.000241  f :     0.002229
      f+1     :     0.000051
      f-1     :     0.000577
      f+2     :     0.000828
      f-2     :     0.000132
      f+3     :     0.000342
      f-3     :     0.000059
  4 H s       :     0.664875  s :     0.664875
      pz      :     0.055749  p :     0.195056
      px      :     0.105805
      py      :     0.033501
  5 H s       :     0.682653  s :     0.682653
      pz      :     0.061030  p :     0.160409
      px      :     0.035755
      py      :     0.063625
  6 O s       :     3.461225  s :     3.461225
      pz      :     1.744401  p :     4.803985
      px      :     1.550746
      py      :     1.508838
      dz2     :     0.002886  d :     0.029893
      dxz     :     0.007517
      dyz     :     0.002859
      dx2y2   :     0.015746
      dxy     :     0.000885
      f0      :     0.000428  f :     0.002218
      f+1     :     0.000029
      f-1     :     0.000189
      f+2     :     0.000688
      f-2     :     0.000047
      f+3     :     0.000316
      f-3     :     0.000521
  7 H s       :     0.665650  s :     0.665650
      pz      :     0.061830  p :     0.194427
      px      :     0.105885
      py      :     0.026712
  8 H s       :     0.682722  s :     0.682722
      pz      :     0.045390  p :     0.160231
      px      :     0.034364
      py      :     0.080477
  9 O s       :     3.460862  s :     3.460862
      pz      :     1.597329  p :     4.803346
      px      :     1.720952
      py      :     1.485065
      dz2     :     0.006851  d :     0.029961
      dxz     :     0.007870
      dyz     :     0.005250
      dx2y2   :     0.006495
      dxy     :     0.003495
      f0      :     0.000195  f :     0.002213
      f+1     :     0.000449
      f-1     :     0.000328
      f+2     :     0.000225
      f-2     :     0.000289
      f+3     :     0.000592
      f-3     :     0.000135
 10 H s       :     0.682793  s :     0.682793
      pz      :     0.038612  p :     0.160226
      px      :     0.047246
      py      :     0.074369
 11 H s       :     0.665441  s :     0.665441
      pz      :     0.097102  p :     0.194579
      px      :     0.060310
      py      :     0.037167


                      *****************************
                      * MAYER POPULATION ANALYSIS *
                      *****************************

  NA   - Mulliken gross atomic population
  ZA   - Total nuclear charge
  QA   - Mulliken gross atomic charge
  VA   - Mayer's total valence
  BVA  - Mayer's bonded valence
  FA   - Mayer's free valence

  ATOM       NA         ZA         QA         VA         BVA        FA
  0 O      8.6818     8.0000    -0.6818     1.8064     1.8064    -0.0000
  1 H      0.6409     1.0000     0.3591     0.9361     0.9361    -0.0000
  2 H      0.6752     1.0000     0.3248     0.9090     0.9090    -0.0000
  3 O      8.6840     8.0000    -0.6840     1.8001     1.8001    -0.0000
  4 H      0.6424     1.0000     0.3576     0.9380     0.9380     0.0000
  5 H      0.6744     1.0000     0.3256     0.9089     0.9089     0.0000
  6 O      8.6834     8.0000    -0.6834     1.7996     1.7996    -0.0000
  7 H      0.6447     1.0000     0.3553     0.9410     0.9410     0.0000
  8 H      0.6745     1.0000     0.3255     0.9087     0.9087    -0.0000
  9 O      8.6822     8.0000    -0.6822     1.8038     1.8038     0.0000
 10 H      0.6748     1.0000     0.3252     0.9091     0.9091    -0.0000
 11 H      0.6417     1.0000     0.3583     0.9365     0.9365     0.0000

  Mayer bond orders larger than 0.1
B(  0-O ,  1-H ) :   0.7854 B(  0-O ,  2-H ) :   0.8998 B(  0-O ,  7-H ) :   0.1479 
B(  1-H ,  3-O ) :   0.1427 B(  3-O ,  4-H ) :   0.7847 B(  3-O ,  5-H ) :   0.8988 
B(  4-H ,  9-O ) :   0.1443 B(  6-O ,  7-H ) :   0.7846 B(  6-O ,  8-H ) :   0.8991 
B(  6-O , 11-H ) :   0.1422 B(  9-O , 10-H ) :   0.8991 B(  9-O , 11-H ) :   0.7865 


-------
TIMINGS
-------

Total SCF time: 0 days 0 hours 0 min 4 sec 

Total time                  ....       4.730 sec
Sum of individual times     ....       4.749 sec  (100.4%)

Fock matrix formation       ....       3.449 sec  ( 72.9%)
  Coulomb formation         ....       2.815 sec  ( 81.6% of F)
  Split-RI-J                ....       0.871 sec  ( 25.3% of F)
  Chain of spheres X        ....       2.226 sec  ( 64.5% of F)
  COS-X 1 center corr.      ....       0.000 sec  (  0.0% of F)
  XC integration            ....       0.626 sec  ( 18.2% of F)
    Basis function eval.    ....       0.155 sec  ( 24.7% of XC)
    Density eval.           ....       0.093 sec  ( 14.8% of XC)
    XC-Functional eval.     ....       0.036 sec  (  5.8% of XC)
    XC-Potential eval.      ....       0.188 sec  ( 29.9% of XC)
Diagonalization             ....       0.041 sec  (  0.9%)
Density matrix formation    ....       0.063 sec  (  1.3%)
Population analysis         ....       0.016 sec  (  0.3%)
Initial guess               ....       0.297 sec  (  6.3%)
Orbital Transformation      ....       0.000 sec  (  0.0%)
Orbital Orthonormalization  ....       0.000 sec  (  0.0%)
DIIS solution               ....       0.009 sec  (  0.2%)
SOSCF solution              ....       0.032 sec  (  0.7%)
Grid generation             ....       0.843 sec  ( 17.8%)
           ************************************************************
           *              Shut down parallel processing               *
           ************************************************************

Entering the calculation of the dispersion correction...

Checking the input atom types...

Done


-------------------------------------------------------------------------------
                          DFT DISPERSION CORRECTION                            
                                                                               
                                DFTD3 V2.1  Rev 6                               
                          USING Becke-Johnson damping                          
-------------------------------------------------------------------------------
The B3LYP functional is recognized
Active option DFTDOPT                   ...         4   

molecular C6(AA) [au] = 712.060175 


            DFT-D V3
 parameters
 s6 scaling factor         :     1.0000 
 a1 scaling factor         :     0.3981 
 s8 scaling factor         :     1.9889 
 a2 scaling factor         :     4.4211 
 ad hoc parameters k1-k3   :    16.0000     1.3333    -4.0000 

 Edisp/kcal,au: -5.050965805854  -0.008049225511 
 E6   /kcal   :  -2.729885626 
 E8   /kcal   :  -2.321080180 
 % E8         :  45.953195278 

-------------------------   ----------------
Dispersion correction           -0.008049226
-------------------------   ----------------


-------------------------   --------------------
FINAL SINGLE POINT ENERGY      -305.759192502266
-------------------------   --------------------


                            ***************************************
                            *     ORCA property calculations      *
                            ***************************************

                                    ---------------------
                                    Active property flags
                                    ---------------------
   (+) Dipole Moment


------------------------------------------------------------------------------
                       ORCA ELECTRIC PROPERTIES CALCULATION
------------------------------------------------------------------------------

Dipole Moment Calculation                       ... on
Quadrupole Moment Calculation                   ... off
Polarizability Calculation                      ... off
GBWName                                         ... 0_B3LYP_GasPhase_onB3LYP_4_waters.gbw
Electron density file                           ... 0_B3LYP_GasPhase_onB3LYP_4_waters.scfp.tmp

-------------
DIPOLE MOMENT
-------------
                                X             Y             Z
Electronic contribution:      0.00015       0.00799      -0.00425
Nuclear contribution   :     -0.03525      -0.03905      -0.01213
                        -----------------------------------------
Total Dipole Moment    :     -0.03510      -0.03106      -0.01637
                        -----------------------------------------
Magnitude (a.u.)       :      0.04964
Magnitude (Debye)      :      0.12619

smp-n107.crc.pitt.edu.219663hfi_wait_for_device: The /dev/hfi1_0 device failed to appear after 15.0 seconds: Connection timed out
smp-n107.crc.pitt.edu.219665hfi_wait_for_device: The /dev/hfi1_0 device failed to appear after 15.0 seconds: Connection timed out
smp-n107.crc.pitt.edu.219661hfi_wait_for_device: The /dev/hfi1_0 device failed to appear after 15.0 seconds: Connection timed out
smp-n107.crc.pitt.edu.219662hfi_wait_for_device: The /dev/hfi1_0 device failed to appear after 15.0 seconds: Connection timed out
smp-n107.crc.pitt.edu.219667hfi_wait_for_device: The /dev/hfi1_0 device failed to appear after 15.0 seconds: Connection timed out
smp-n107.crc.pitt.edu.219668hfi_wait_for_device: The /dev/hfi1_0 device failed to appear after 15.0 seconds: Connection timed out
smp-n107.crc.pitt.edu.219669hfi_wait_for_device: The /dev/hfi1_0 device failed to appear after 15.0 seconds: Connection timed out
smp-n107.crc.pitt.edu.219664hfi_wait_for_device: The /dev/hfi1_0 device failed to appear after 15.0 seconds: Connection timed out
smp-n107.crc.pitt.edu.219671hfi_wait_for_device: The /dev/hfi1_0 device failed to appear after 15.0 seconds: Connection timed out
smp-n107.crc.pitt.edu.219670hfi_wait_for_device: The /dev/hfi1_0 device failed to appear after 15.0 seconds: Connection timed out
smp-n107.crc.pitt.edu.219666hfi_wait_for_device: The /dev/hfi1_0 device failed to appear after 15.0 seconds: Connection timed out
smp-n107.crc.pitt.edu.219672hfi_wait_for_device: The /dev/hfi1_0 device failed to appear after 15.0 seconds: Connection timed out

Timings for individual modules:

Sum of individual times         ...       35.892 sec (=   0.598 min)
GTO integral calculation        ...       15.489 sec (=   0.258 min)  43.2 %
SCF iterations                  ...       20.402 sec (=   0.340 min)  56.8 %
                             ****ORCA TERMINATED NORMALLY****
TOTAL RUN TIME: 0 days 0 hours 0 minutes 51 seconds 352 msec
cp: cannot stat ‘/scratch/slurm-1328844/*.{prop}’: No such file or directory
