8
Energy:   -105.29287346
O    0.40480690  -0.69373614  -1.89351053
H    0.60917375   0.19553435  -1.60426318
H    0.04970509  -1.12352992  -1.11542837
S   -0.28983935   0.45132986   1.27401631
O   -1.43701682   1.18924624   1.87365225
O   -0.77286336  -0.83605625   0.70006091
O    0.32274404   1.27710522   0.19562090
O    0.72777875   0.17502422   2.32673119
