8
Energy:   -104.96412479
O   -0.32844559   0.22436508   1.96520527
H    0.11320273   0.77945834   1.32251555
H   -0.81558747  -0.41029248   1.43972032
S    0.27301993  -0.16154217  -1.30862119
O   -0.76415377  -1.00660027  -0.65268863
O    1.51609500  -0.96034762  -1.50038723
O   -0.22866045   0.30207670  -2.63280938
O    0.56879894   1.01870253  -0.44859953
