61
Energy:  -1084.77904697
O   -3.51853409  -1.43145335   1.74354620
H   -4.02352956  -1.29847712   0.94134377
H   -4.17430771  -1.64496870   2.40732629
O   -2.01098256   0.79224086   1.18333643
H   -2.62417934   1.33609769   0.68892638
H   -2.54905372   0.08311645   1.53526517
O   -1.46986438   1.77528758  -2.18401356
H   -0.78955053   2.24485959  -1.70140911
H   -2.27972131   1.97825609  -1.71586040
O   -2.48256070  -1.30782722  -2.21421612
H   -2.16635741  -0.94436203  -3.04134391
H   -1.99501798  -2.12482716  -2.10912072
O    2.05676144  -1.46643516   0.29403083
H    2.81129876  -0.88380913   0.38035687
H    1.88310158  -1.76793544   1.18575482
O   -0.61892758  -3.12817530  -1.51064447
H    0.29749881  -3.30959606  -1.71916551
H   -0.67637330  -3.24246791  -0.56203020
O    2.08743896  -2.96377908  -2.00250948
H    2.24653630  -2.55507184  -1.15169911
H    2.78793089  -3.60978493  -2.09316998
O   -0.26067312   1.75109497   3.06910832
H   -0.94760608   1.47705167   2.46144458
H    0.15110252   2.50266300   2.64270690
O    3.19616759   1.87413655   2.42661562
H    2.81199976   1.24319932   3.03535624
H    3.57913912   1.33634840   1.73354379
O    1.26686369   3.59171616   1.68870348
H    2.02488585   3.07873070   1.96884663
H    1.47035343   4.48737380   1.95818664
O   -4.65020567  -0.71255850  -0.69181763
H   -3.95089525  -0.98133905  -1.28759764
H   -5.44827787  -1.06862920  -1.08236375
O    0.75265303   2.20236754  -0.61425075
H    1.60211576   2.14575764  -1.05178960
H    0.91103926   2.76220370   0.14583419
O   -3.76115287   1.91413519  -0.61395382
H   -4.46068286   2.56505267  -0.55742002
H   -4.21823932   1.07707971  -0.69545198
O    1.30966895  -0.42429492  -2.85640009
H    0.62242423  -0.39741391  -3.52213573
H    1.59376569  -1.33824217  -2.84152340
O   -1.08126745   0.00715662  -4.21550955
H   -1.24538773   0.77685143  -3.67065518
H   -1.32918763   0.28095028  -5.09857493
O    1.69902487   0.20349017   4.05812399
H    0.95437619   0.73646831   3.77944049
H    1.80653027   0.40834839   4.98694451
O    3.05894456   1.49251006  -1.96708384
H    2.53242381   0.82024850  -2.39960220
H    3.45678845   1.98466268  -2.68523277
O    1.23733312  -2.18658311   2.83528005
H    1.56554424  -2.88011233   3.40757938
H    1.38871509  -1.37879020   3.32597952
O    4.10400978   0.35207265   0.30930631
H    5.05811133   0.29108061   0.26238011
H    3.85270207   0.80603653  -0.49505249
O   -0.95680135  -2.38216357   1.13193995
H   -1.81911208  -2.22824527   1.51789488
H   -0.35721431  -2.38643665   1.87806928
K   -0.32553794  -0.34874465  -0.63209602
