61
Energy:  -1086.21860976
O   -2.06988451  -0.70400046   1.64786859
H   -2.84721163  -0.48899345   1.13234326
H   -1.99231025   0.01410560   2.27599101
O   -1.17170529   2.19882660   0.58813793
H   -0.53598705   2.87629981   0.35765104
H   -1.95160468   2.41814105   0.07834390
O   -1.82608217   2.04467823  -3.13861633
H   -2.00371747   2.02876350  -4.07905467
H   -1.92932100   1.13492929  -2.85945605
O   -1.26992128  -2.75081014  -2.71855952
H   -1.15042376  -3.11964183  -1.84339361
H   -0.40189524  -2.43132897  -2.96492187
O    3.57187791  -2.21540079   1.09588713
H    4.25872462  -2.38193655   1.74144060
H    2.80266163  -1.98643406   1.61753108
O   -0.34011610  -3.07096175  -0.11812269
H    0.52356481  -3.45111832  -0.27864721
H   -0.53804185  -3.29982577   0.78999542
O    2.28123265  -3.64043655  -0.85191077
H    2.84522927  -3.24880891  -0.18500189
H    2.72816266  -4.45005784  -1.09889009
O   -1.51375215   1.52174856   3.18728775
H   -2.12806416   2.10588271   3.63185483
H   -1.40071881   1.90825435   2.31891652
O    2.09580141   2.22605507   1.59542014
H    2.52861046   1.53714600   1.09112610
H    1.86275036   1.80674888   2.42373251
O    0.88132886   3.86061704  -0.15883385
H    1.41215365   3.40827335   0.49678958
H    1.18804657   4.76695469  -0.13222254
O   -4.09233967   0.09149734  -0.08441154
H   -4.01779543   1.00939377  -0.34545015
H   -5.02836830  -0.09966642  -0.14389823
O    0.71699929   1.85796614  -2.04735104
H   -0.09928711   2.01815111  -2.52090055
H    0.83620004   2.63706702  -1.50418914
O   -3.40359006   2.64480574  -0.96550229
H   -3.89745215   3.45900218  -1.06253970
H   -2.93310783   2.54934956  -1.79361244
O    1.26346697  -1.58246931  -2.41651663
H    1.73820118  -2.31738392  -2.02823865
H    1.94904600  -0.98825088  -2.72166855
O   -2.05833680  -0.33452967  -1.90580247
H   -2.85118308  -0.41634694  -1.37577175
H   -1.92021197  -1.20984629  -2.26770605
O    1.07896055   0.86339380   3.79563958
H    1.30681127   1.05884465   4.70454819
H    0.16242535   1.12764212   3.71584045
O    2.99570765   0.53222005  -2.80249410
H    2.23979059   1.10895490  -2.69204878
H    3.50821855   0.93940097  -3.50089808
O    1.22895970  -1.36195051   2.20103841
H    0.55794305  -1.98032840   2.49013578
H    1.21169681  -0.66506785   2.85700212
O    2.85575284   0.19083242  -0.06403655
H    3.30872534  -0.59665613   0.23747556
H    3.13441985   0.29446813  -0.97389158
O   -0.94654027  -3.01221772   2.57969927
H   -1.48590518  -3.54792881   3.16136152
H   -1.51186902  -2.27943124   2.33544687
K    0.10328966  -0.29219086  -0.21047179
