61
Energy:  -1087.92711521
O   -2.02740693  -1.03559274   2.67092180
H   -2.45392447  -0.84425855   1.83563391
H   -1.98127393  -0.18951664   3.11618445
O   -1.21494921   2.33960978   0.79969659
H   -2.00872340   2.43508067   0.27335100
H   -0.66412852   3.07788667   0.53935902
O   -1.57189497   1.00301945  -2.58736271
H   -0.77700358   1.53196632  -2.65514713
H   -1.43055895   0.27827722  -3.19646424
O   -2.71105812  -2.43186404  -1.87817479
H   -3.31394379  -3.17428261  -1.83848371
H   -1.96643500  -2.69829560  -1.33893229
O    2.99755883  -1.93282626   1.15294671
H    3.61047073  -2.18530197   1.84347323
H    2.18572897  -1.72663499   1.61624929
O   -0.51597061  -2.73077041  -0.33316014
H    0.32953997  -3.13514214  -0.52765231
H   -0.78857384  -3.13003417   0.49298016
O    2.08120405  -3.34158594  -1.01868038
H    2.51095549  -2.94560218  -0.26056270
H    2.56482984  -4.15329582  -1.17186333
O   -1.53035729   1.61221947   3.41951844
H   -2.08885808   2.22515160   3.89766373
H   -1.49975361   1.96045298   2.52843556
O    2.46743263   2.91894159   1.74322540
H    2.64083033   2.12908563   1.23108026
H    3.32102216   3.16686554   2.09840208
O    0.73404708   4.13782716   0.02317680
H    1.38351358   3.83883251   0.65959436
H    0.81173761   5.09183584   0.03114379
O   -2.78413206  -0.45490807   0.09491169
H   -3.21135865   0.35249259  -0.19111882
H   -2.97517802  -1.08624330  -0.59873744
O    0.78070801   2.22022242  -1.97450642
H    0.86694337   2.99538471  -1.41960217
H    1.67766505   2.01020385  -2.23449126
O   -3.39584113   2.06883977  -0.87927970
H   -4.14472946   2.52844367  -1.25896690
H   -2.87741183   1.79016805  -1.63413397
O    1.31000432  -1.10423632  -2.45948342
H    0.58665179  -1.31808839  -3.04877135
H    1.60501545  -1.95098894  -2.12450539
O   -1.08058029  -1.41055449  -3.84006178
H   -1.72313325  -1.83462329  -3.27127078
H   -1.32233127  -1.68782502  -4.72375254
O    1.21957930   1.25421103   3.57252970
H    1.59535701   1.96279642   3.05010295
H    0.30387211   1.50515327   3.69393889
O    3.17308239   0.90319142  -2.47886753
H    2.61450514   0.14701350  -2.65891825
H    3.83716930   0.88047813  -3.16785559
O    0.67028763  -0.93327947   2.13455907
H    0.93618190  -0.21070640   2.70325956
H   -0.21274842  -1.15739586   2.42824430
O    2.65691272   0.66196614   0.21267741
H    2.96358436  -0.19109375   0.52004231
H    3.02194324   0.74506229  -0.66827639
O   -1.49341373  -3.66590046   2.02412743
H   -1.80780495  -2.86054779   2.43497665
H   -1.69553203  -4.35364600   2.65846655
K   -0.06894034   0.06709382  -0.31529302
