16
Energy:   -379.20768372
Na  -0.09460721   0.09348583   0.84112557
O   -1.57152546   1.73245727   1.79295687
H   -2.34639046   1.60298692   2.33981473
H   -1.50837919   2.68168786   1.68709993
O   -0.94349062  -1.91254315  -0.10027752
H   -0.79387264  -2.00094280  -1.04157015
H   -1.31061726  -2.75591850   0.16461471
O    0.08558361  -0.92123446  -2.96231769
H   -0.62736680  -0.80043069  -3.58948594
H    0.77119494  -1.36560111  -3.46102324
O    0.93070809   0.89174264  -1.04435510
H    1.51558660   1.57999239  -1.36131133
H    0.70819068   0.38685692  -1.82653683
O    1.46224118   0.25812709   2.55809315
H    1.34009943   0.47046090   3.48341882
H    2.39183072   0.04297114   2.48191545
