16
Energy:   -378.91253461
Na  -0.20425112   0.66102270   0.59129937
O   -1.36248897  -1.01333609  -0.44973419
H   -2.23054506  -1.39913238  -0.56751237
H   -0.78803915  -1.54108785  -1.00445693
O   -0.52005447   2.73278824  -0.43785053
H    0.12854069   3.43037673  -0.53233046
H   -1.28878856   3.05444465  -0.90882495
O    1.94436768  -0.12449720   0.13836596
H    2.82695399   0.09332818   0.43807474
H    2.05563410  -0.92566550  -0.37347483
O    0.57269657  -2.35398853  -1.87469406
H    0.98889976  -2.06962831  -2.68841762
H    0.43076894  -3.29316281  -1.99318489
O   -0.74468129   0.87767414   2.82918910
H   -0.87070921   0.18882357   3.48174844
H   -0.90132890   1.69227137   3.30681315
