16
Energy:   -380.58648754
Na   0.84086324  -0.28589233  -0.26989992
O   -2.53560569   1.11058379   1.34064316
H   -3.08353789   1.49579692   0.65682082
H   -3.03410451   1.23801523   2.14779370
O   -1.02799810  -1.40657434   0.57768259
H   -1.40542517  -2.27545158   0.71491591
H   -1.67865141  -0.80293895   0.93616055
O    0.08540104   1.62018510   0.67134677
H    0.36242320   2.43621551   1.08798205
H   -0.82302041   1.50476710   0.95005988
O    2.97496634  -1.31809611   0.01947206
H    3.61538899  -1.11477558   0.70119887
H    3.47208687  -1.80167406  -0.64026681
O    0.73466662  -0.13578643  -2.58834109
H    0.53745233  -0.84293449  -3.20257232
H    0.93414455   0.61693341  -3.14498572
