16
Energy:   -379.04221512
Na  -0.82893749   0.14833011   0.41131687
O   -2.52985366  -1.35982429   0.83144708
H   -2.48820791  -2.31455235   0.88614458
H   -3.43652979  -1.14614676   1.05170181
O    1.22040431  -0.61963404   1.08612035
H    1.85580283  -0.67335828   0.37224762
H    1.74558967  -0.70514146   1.88179659
O   -0.25018092   0.29768122  -1.85014306
H   -0.76146245   0.05989727  -2.62362988
H    0.65396389   0.33475379  -2.16220016
O    2.89406422  -0.55984473  -1.07322721
H    3.57584479   0.11086583  -1.11265358
H    3.25068177  -1.29422096  -1.57297447
O   -1.54428584   2.21629842   1.17357581
H   -1.83252976   2.93226793   0.60741775
H   -1.50384335   2.60328963   2.04812373
