16
Energy:   -380.94663093
Na  -0.43420955  -0.83153449  -0.02766029
O    1.56249197   2.75466005  -0.14578182
H    1.94572821   3.38686559  -0.75379332
H    1.84638599   3.05091092   0.71901379
O   -1.38587132  -2.39257929  -1.47448679
H   -1.50223463  -2.26813225  -2.41640206
H   -1.66299113  -3.29490244  -1.31558621
O   -0.68704544  -1.85850303   2.05022157
H   -0.06957060  -2.48832398   2.42208479
H   -1.38891129  -1.79919342   2.69837167
O   -1.29884152   1.32258265  -0.07957829
H   -0.74463452   2.08661150  -0.23878372
H   -2.16815578   1.68713275   0.08663780
O    1.68283702   0.00230791  -0.42312834
H    1.76494740   0.95597705  -0.42534411
H    2.55983723  -0.31457907  -0.63919573
