16
Energy:   -379.25359322
Na   0.66681468  -0.51383334   0.41983410
O   -2.42817006   1.53248532  -1.38196547
H   -3.21225346   1.16108948  -1.78632942
H   -2.40982432   2.44072077  -1.68363358
O    0.17416748  -0.17114082  -1.88556906
H   -0.71821194   0.12957867  -2.05720411
H    0.60269118  -0.15178172  -2.74127024
O    0.68966862  -2.68278134   1.27715452
H    0.91575565  -2.80789365   2.19881791
H    0.55267320  -3.56858551   0.94127498
O    2.73363702   0.26234539   1.19217954
H    3.58120061  -0.16094602   1.05546016
H    2.95163931   1.15559703   1.45827795
O   -1.05166488   0.89878382   0.97356784
H   -1.60864439   1.15919133   0.23995104
H   -1.42804312   1.34639618   1.73133722
