16
Energy:   -379.64324503
Na  -0.62308955  -0.52381200  -0.36599831
O   -2.87792118  -0.39076039  -0.83926122
H   -3.44725242   0.18324431  -0.32680400
H   -3.47960330  -0.96760053  -1.30986289
O    0.51976762   1.11448745  -1.51503908
H    0.40375076   1.50796672  -2.37987779
H    1.22903983   1.61799730  -1.11548607
O    2.07373198   1.82425430   1.04732487
H    1.89488021   2.72685138   1.31107171
H    3.01794351   1.72198115   1.16664230
O    0.05143452  -2.75516439  -0.53195788
H    0.12325513  -3.27006021  -1.33567172
H    0.25803837  -3.37379408   0.16864473
O    0.08662676   0.04390104   1.72282006
H    0.82398927   0.65128618   1.66272293
H   -0.04538093  -0.08106089   2.66260213
