16
Energy:   -378.88678982
Na   0.45889616  -0.24388789  -0.92550757
O   -1.48265058   0.67736668   2.53272658
H   -1.93591968   0.20656637   3.23210205
H   -1.72571829   1.59387882   2.66370538
O    0.92168432   0.06548217   1.32142094
H    0.12922280   0.27769183   1.81457777
H    1.53356270  -0.26295609   1.98018114
O   -1.83441628   0.12748143  -0.73070244
H   -2.58416346   0.14532734  -1.32550706
H   -2.20783456   0.30950471   0.13165372
O    0.78392664  -2.43155038  -1.71041502
H    1.62658017  -2.78661341  -1.99342937
H    0.18413615  -3.17647725  -1.75000250
O    1.78732836   1.53272137  -1.65810962
H    2.35574977   2.00375615  -1.04880248
H    1.94565628   1.94959265  -2.50509395
