16
Energy:   -379.96604930
Na   0.54776261   0.11978243  -0.88974419
O   -0.89833353   0.30715075  -2.71772993
H   -1.58009048   0.97853020  -2.74397737
H   -1.02215709  -0.19229605  -3.52485599
O    0.07324705  -1.73946526   0.42042273
H   -0.51436791  -1.64545920   1.17015826
H    0.31195300  -2.66641824   0.41734248
O   -0.45749775   1.36459540   0.79351143
H   -0.76096773   0.87427440   1.55752919
H   -0.45469435   2.27788824   1.08007762
O    2.73962509   0.20111912  -1.65788039
H    3.52318663  -0.03407063  -1.16094081
H    3.06263966   0.39451625  -2.53793208
O   -1.34020745  -0.10627136   2.92957624
H   -0.94804165  -0.05437800   3.80120971
H   -2.28369166  -0.08071851   3.08900158
