7
Energy:   -124.65781177
O   -1.24452732   0.79628307   0.13293632
H   -0.43759159   0.93842508   0.62779208
H   -1.02964707   0.09282617  -0.47960486
C    1.21330269  -0.85803327  -0.15399597
O    1.68413097   0.42544431  -0.24323943
O    0.23857254  -1.05326719  -1.09680222
O    0.68948231  -1.06610617   1.09504290
