7
Energy:   -125.61878760
O    1.45594540   0.33180177   0.64918278
H    1.06442650   1.07404793   0.18873142
H    0.90134043  -0.41342415   0.41835059
C   -1.25864233  -0.43927957  -0.77174602
O   -2.42923732  -0.26602939  -0.08134748
O   -0.48442541  -1.37057612  -0.13114187
O   -0.58423740   0.75203920  -0.83271956
