7
Energy:   -123.70672922
O    1.38535272  -0.41206181  -0.03521081
H    1.07871271  -0.90258428   0.72741063
H    0.60952005   0.05187857  -0.34997237
C   -1.40707148   0.52064938  -0.07559735
O   -0.58767184   1.61839453  -0.05327685
O   -1.12582309  -0.28082900   0.99940522
O   -1.19980221  -0.17998275  -1.23487914
