7
Energy:   -129.24166519
O    0.00828933  -0.71269715   1.32053752
H   -0.43400391  -0.08550640   0.74848831
H    0.82033529  -0.92570549   0.86071076
C   -0.16421988   0.80708456  -1.29432036
O    1.09040018   1.01253627  -0.78375550
O   -1.09845038   1.05552315  -0.32344940
O   -0.27797276  -0.49155814  -1.71665629
