13
Energy:   -182.55464816
C   -4.09638830  -1.82486416  -1.33352357
H   -4.19643309  -2.87080160  -1.53577609
H   -3.92562964  -1.29916382  -2.24970026
H   -4.99338953  -1.46260637  -0.87629587
C   -2.90715004  -1.59749163  -0.38188598
N   -2.02170810  -1.42820245   0.32665146
C    4.16350896   2.04589267   0.73803784
H    4.41366161   2.61442337   1.60929939
H    4.15851518   2.68822410  -0.11769838
H    4.88765137   1.27072445   0.59792682
C    2.76843724   1.41881803   0.91734844
N    1.72974293   0.95193246   1.05085332
Na   0.01918141  -0.50688505   1.25476288
