
                                 *****************
                                 * O   R   C   A *
                                 *****************

           --- An Ab Initio, DFT and Semiempirical electronic structure package ---

                  #######################################################
                  #                        -***-                        #
                  #          Department of theory and spectroscopy      #
                  #               Directorship: Frank Neese             #
                  #        Max Planck Institute fuer Kohlenforschung    #
                  #                Kaiser Wilhelm Platz 1               #
                  #                 D-45470 Muelheim/Ruhr               #
                  #                      Germany                        #
                  #                                                     #
                  #                  All rights reserved                #
                  #                        -***-                        #
                  #######################################################


                         Program Version 4.2.0 -  RELEASE  -


 With contributions from (in alphabetic order):
   Daniel Aravena         : Magnetic Suceptibility
   Michael Atanasov       : Ab Initio Ligand Field Theory (pilot matlab implementation)
   Alexander A. Auer      : GIAO ZORA, VPT2
   Ute Becker             : Parallelization
   Giovanni Bistoni       : ED, misc. LED, open-shell LED, HFLED
   Martin Brehm           : Molecular dynamics
   Dmytro Bykov           : SCF Hessian
   Vijay G. Chilkuri      : MRCI spin determinant printing, contributions to CSF-ICE
   Dipayan Datta          : RHF DLPNO-CCSD density
   Achintya Kumar Dutta   : EOM-CC, STEOM-CC
   Dmitry Ganyushin       : Spin-Orbit,Spin-Spin,Magnetic field MRCI
   Miquel Garcia          : C-PCM Hessian, Gaussian charge scheme
   Yang Guo               : DLPNO-NEVPT2, CIM, IAO-localization
   Andreas Hansen         : Spin unrestricted coupled pair/coupled cluster methods
   Benjamin Helmich-Paris : CASSCF linear response (MC-RPA)
   Lee Huntington         : MR-EOM, pCC
   Robert Izsak           : Overlap fitted RIJCOSX, COSX-SCS-MP3, EOM
   Christian Kollmar      : KDIIS, OOCD, Brueckner-CCSD(T), CCSD density
   Simone Kossmann        : Meta GGA functionals, TD-DFT gradient, OOMP2, MP2 Hessian
   Martin Krupicka        : AUTO-CI
   Lucas Lang             : DCDCAS
   Dagmar Lenk            : GEPOL surface, SMD
   Dimitrios Liakos       : Extrapolation schemes; Compound Job, initial MDCI parallelization
   Dimitrios Manganas     : Further ROCIS development; embedding schemes
   Dimitrios Pantazis     : SARC Basis sets
   Taras Petrenko         : DFT Hessian,TD-DFT gradient, ASA, ECA, R-Raman, ABS, FL, XAS/XES, NRVS
   Peter Pinski           : DLPNO-MP2, DLPNO-MP2 Gradient
   Christoph Reimann      : Effective Core Potentials
   Marius Retegan         : Local ZFS, SOC
   Christoph Riplinger    : Optimizer, TS searches, QM/MM, DLPNO-CCSD(T), (RO)-DLPNO pert. Triples
   Tobias Risthaus        : Range-separated hybrids, TD-DFT gradient, RPA, STAB
   Michael Roemelt        : Original ROCIS implementation
   Masaaki Saitow         : Open-shell DLPNO-CCSD energy and density
   Barbara Sandhoefer     : DKH picture change effects
   Avijit Sen             : IP-ROCIS
   Kantharuban Sivalingam : CASSCF convergence, NEVPT2, FIC-MRCI
   Bernardo de Souza      : ESD, SOC TD-DFT
   Georgi Stoychev        : AutoAux, RI-MP2 NMR
   Willem Van den Heuvel  : Paramagnetic NMR
   Boris Wezisla          : Elementary symmetry handling
   Frank Wennmohs         : Technical directorship


 We gratefully acknowledge several colleagues who have allowed us to
 interface, adapt or use parts of their codes:
   Stefan Grimme, W. Hujo, H. Kruse,             : VdW corrections, initial TS optimization,
                  C. Bannwarth                     DFT functionals, gCP, sTDA/sTD-DF
   Ed Valeev, F. Pavosevic, A. Kumar             : LibInt (2-el integral package), F12 methods
   Garnet Chan, S. Sharma, J. Yang, R. Olivares  : DMRG
   Ulf Ekstrom                                   : XCFun DFT Library
   Mihaly Kallay                                 : mrcc  (arbitrary order and MRCC methods)
   Andreas Klamt, Michael Diedenhofen            : otool_cosmo (COSMO solvation model)
   Jiri Pittner, Ondrej Demel                    : Mk-CCSD
   Frank Weinhold                                : gennbo (NPA and NBO analysis)
   Christopher J. Cramer and Donald G. Truhlar   : smd solvation model
   Lars Goerigk                                  : TD-DFT with DH, B97 family of functionals
   V. Asgeirsson, H. Jonsson                     : NEB implementation
   FAccTs GmbH                                   : IRC, NEB, NEB-TS, Multilevel, MM, QM/MM, CI optimization
   S Lehtola, MJT Oliveira, MAL Marques          : LibXC Library


 Your calculation uses the libint2 library for the computation of 2-el integrals
 For citations please refer to: http://libint.valeyev.net

 Your ORCA version has been built with support for libXC version: 4.2.3
 For citations please refer to: https://tddft.org/programs/libxc/

 This ORCA versions uses:
   CBLAS   interface :  Fast vector & matrix operations
   LAPACKE interface :  Fast linear algebra routines
   SCALAPACK package :  Parallel linear algebra routines


----- Orbital basis set information -----
Your calculation utilizes the basis: def2-TZVP
   F. Weigend and R. Ahlrichs, Phys. Chem. Chem. Phys. 7, 3297 (2005).

================================================================================
                                        WARNINGS
                       Please study these warnings very carefully!
================================================================================


WARNING: The frozen-core approximation for MP2-gradient calculations is turned on by default.

INFO   : the flag for use of LIBINT has been found!

================================================================================
                                       INPUT FILE
================================================================================
NAME = 12h2o.su.etal.mol0,3,4,6,7,10-orca.engrad-mp2.def2tzvp.frozencore.inp
|  1> # 12h2o.su.etal.mol0,3,4,6,7,10
|  2> ! MP2 def2-TZVP EnGrad TightSCF
|  3> 
|  4> %pal
|  5>     nprocs 6
|  6> end
|  7> 
|  8> %maxcore 8000
|  9> 
| 10> %scf
| 11>     ConvForced true
| 12> end
| 13> 
| 14> *xyz 0 1
| 15> O   1.794470000   0.923410000   2.768350000
| 16> H   2.338250000   1.359750000   3.430940000
| 17> H   0.879480000   1.303000000   2.865760000
| 18> O  -1.752130000  -0.741530000  -2.896280000
| 19> H  -2.036450000  -0.920500000  -1.984040000
| 20> H  -0.921210000  -1.242140000  -2.984230000
| 21> O  -0.885520000   1.737840000   0.052730000
| 22> H  -1.032320000   2.090180000  -0.841890000
| 23> H  -1.284090000   0.839590000   0.017130000
| 24> O   1.737840000   0.885520000  -0.052730000
| 25> H   2.090180000   1.032320000   0.841890000
| 26> H   0.839590000   1.284090000  -0.017130000
| 27> O  -1.737840000  -0.885520000  -0.052730000
| 28> H  -2.090180000  -1.032320000   0.841890000
| 29> H  -0.839590000  -1.284090000  -0.017130000
| 30> O  -0.923410000   1.794470000  -2.768350000
| 31> H  -1.359750000   2.338250000  -3.430940000
| 32> H  -1.303000000   0.879480000  -2.865760000
| 33> *
| 34> 
| 35>                          ****END OF INPUT****
================================================================================

                     *******************************
                     * Energy+Gradient Calculation *
                     *******************************

---------------------------------
CARTESIAN COORDINATES (ANGSTROEM)
---------------------------------
  O      1.794470    0.923410    2.768350
  H      2.338250    1.359750    3.430940
  H      0.879480    1.303000    2.865760
  O     -1.752130   -0.741530   -2.896280
  H     -2.036450   -0.920500   -1.984040
  H     -0.921210   -1.242140   -2.984230
  O     -0.885520    1.737840    0.052730
  H     -1.032320    2.090180   -0.841890
  H     -1.284090    0.839590    0.017130
  O      1.737840    0.885520   -0.052730
  H      2.090180    1.032320    0.841890
  H      0.839590    1.284090   -0.017130
  O     -1.737840   -0.885520   -0.052730
  H     -2.090180   -1.032320    0.841890
  H     -0.839590   -1.284090   -0.017130
  O     -0.923410    1.794470   -2.768350
  H     -1.359750    2.338250   -3.430940
  H     -1.303000    0.879480   -2.865760

----------------------------
CARTESIAN COORDINATES (A.U.)
----------------------------
  NO LB      ZA    FRAG     MASS         X           Y           Z
   0 O     8.0000    0    15.999    3.391057    1.744992    5.231423
   1 H     1.0000    0     1.008    4.418652    2.569555    6.483537
   2 H     1.0000    0     1.008    1.661976    2.462313    5.415502
   3 O     8.0000    0    15.999   -3.311046   -1.401289   -5.473176
   4 H     1.0000    0     1.008   -3.848333   -1.739493   -3.749292
   5 H     1.0000    0     1.008   -1.740835   -2.347304   -5.639377
   6 O     8.0000    0    15.999   -1.673390    3.284042    0.099645
   7 H     1.0000    0     1.008   -1.950802    3.949868   -1.590942
   8 H     1.0000    0     1.008   -2.426578    1.586595    0.032371
   9 O     8.0000    0    15.999    3.284042    1.673390   -0.099645
  10 H     1.0000    0     1.008    3.949868    1.950802    1.590942
  11 H     1.0000    0     1.008    1.586595    2.426578   -0.032371
  12 O     8.0000    0    15.999   -3.284042   -1.673390   -0.099645
  13 H     1.0000    0     1.008   -3.949868   -1.950802    1.590942
  14 H     1.0000    0     1.008   -1.586595   -2.426578   -0.032371
  15 O     8.0000    0    15.999   -1.744992    3.391057   -5.231423
  16 H     1.0000    0     1.008   -2.569555    4.418652   -6.483537
  17 H     1.0000    0     1.008   -2.462313    1.661976   -5.415502

--------------------------------
INTERNAL COORDINATES (ANGSTROEM)
--------------------------------
 O      0   0   0     0.000000000000     0.00000000     0.00000000
 H      1   0   0     0.961828878803     0.00000000     0.00000000
 H      1   2   0     0.995381322057   106.21731035     0.00000000
 O      3   1   2     6.656318732948    99.29837960   164.71437028
 H      4   3   1     0.972136791249    50.19793542   121.30203245
 H      4   3   1     0.974050112161    84.18963930     7.83137870
 O      3   1   2     3.349245975813   116.85538783   143.82107740
 H      7   3   1     0.972645187106   154.03893681   304.15813038
 H      7   3   1     0.983350632989    97.20424340    87.67157074
 O      7   3   1     2.760360281485    59.41411630   355.12427997
 H     10   7   3     0.972645187106   105.22009255   347.26752702
 H     10   7   3     0.983350632989     5.92595386   271.62167973
 O      9   7   3     1.785153773264   170.81379649   301.36914736
 H     13   9   7     0.972645187106   101.65007623   109.44492584
 H     13   9   7     0.983350632989    99.09581498     3.33484705
 O      8   7   3     1.952064016317   147.60984291    95.04037974
 H     16   8   7     0.961828878803   124.67322417   165.49513251
 H     16   8   7     0.995381322057   102.38931089    45.51897547

---------------------------
INTERNAL COORDINATES (A.U.)
---------------------------
 O      0   0   0     0.000000000000     0.00000000     0.00000000
 H      1   0   0     1.817593168635     0.00000000     0.00000000
 H      1   2   0     1.880998097508   106.21731035     0.00000000
 O      3   1   2    12.578619465362    99.29837960   164.71437028
 H      4   3   1     1.837072300170    50.19793542   121.30203245
 H      4   3   1     1.840687952699    84.18963930     7.83137870
 O      3   1   2     6.329157649425   116.85538783   143.82107740
 H      7   3   1     1.838033029106   154.03893681   304.15813038
 H      7   3   1     1.858263389967    97.20424340    87.67157074
 O      7   3   1     5.216324962960    59.41411630   355.12427997
 H     10   7   3     1.838033029106   105.22009255   347.26752702
 H     10   7   3     1.858263389967     5.92595386   271.62167973
 O      9   7   3     3.373451738406   170.81379649   301.36914736
 H     13   9   7     1.838033029106   101.65007623   109.44492584
 H     13   9   7     1.858263389967    99.09581498     3.33484705
 O      8   7   3     3.688866386722   147.60984291    95.04037974
 H     16   8   7     1.817593168635   124.67322417   165.49513251
 H     16   8   7     1.880998097508   102.38931089    45.51897547

---------------------
BASIS SET INFORMATION
---------------------
There are 2 groups of distinct atoms

 Group   1 Type O   : 11s6p2d1f contracted to 5s3p2d1f pattern {62111/411/11/1}
 Group   2 Type H   : 5s1p contracted to 3s1p pattern {311/1}

Atom   0O    basis set group =>   1
Atom   1H    basis set group =>   2
Atom   2H    basis set group =>   2
Atom   3O    basis set group =>   1
Atom   4H    basis set group =>   2
Atom   5H    basis set group =>   2
Atom   6O    basis set group =>   1
Atom   7H    basis set group =>   2
Atom   8H    basis set group =>   2
Atom   9O    basis set group =>   1
Atom  10H    basis set group =>   2
Atom  11H    basis set group =>   2
Atom  12O    basis set group =>   1
Atom  13H    basis set group =>   2
Atom  14H    basis set group =>   2
Atom  15O    basis set group =>   1
Atom  16H    basis set group =>   2
Atom  17H    basis set group =>   2


           ************************************************************
           *        Program running with 6 parallel MPI-processes     *
           *              working on a common directory               *
           ************************************************************
------------------------------------------------------------------------------
                           ORCA GTO INTEGRAL CALCULATION
------------------------------------------------------------------------------

                         BASIS SET STATISTICS AND STARTUP INFO

 # of primitive gaussian shells          ...  192
 # of primitive gaussian functions       ...  372
 # of contracted shells                  ...  114
 # of contracted basis functions         ...  258
 Highest angular momentum                ...    3
 Maximum contraction depth               ...    6
 Integral package used                   ... LIBINT
 Integral threshhold            Thresh   ...  2.500e-11
 Primitive cut-off              TCut     ...  2.500e-12


------------------------------ INTEGRAL EVALUATION ----------------------------


 * One electron integrals 
 Pre-screening matrix                    ... done
 Shell pair data                         ... done (   0.001 sec)



           ************************************************************
           *        Program running with 6 parallel MPI-processes     *
           *              working on a common directory               *
           ************************************************************
-------------------------------------------------------------------------------
                                 ORCA SCF
-------------------------------------------------------------------------------

------------
SCF SETTINGS
------------
Hamiltonian:
 Ab initio Hamiltonian  Method          .... Hartree-Fock(GTOs)


General Settings:
 Integral files         IntName         .... 12h2o.su.etal.mol0,3,4,6,7,10-orca.engrad-mp2.def2tzvp.frozencore
 Hartree-Fock type      HFTyp           .... RHF
 Total Charge           Charge          ....    0
 Multiplicity           Mult            ....    1
 Number of Electrons    NEL             ....   60
 Basis Dimension        Dim             ....  258
 Nuclear Repulsion      ENuc            ....    274.9254399183 Eh

Convergence Acceleration:
 DIIS                   CNVDIIS         .... on
   Start iteration      DIISMaxIt       ....    12
   Startup error        DIISStart       ....  0.200000
   # of expansion vecs  DIISMaxEq       ....     5
   Bias factor          DIISBfac        ....   1.050
   Max. coefficient     DIISMaxC        ....  10.000
 Newton-Raphson         CNVNR           .... off
 SOSCF                  CNVSOSCF        .... on
   Start iteration      SOSCFMaxIt      ....   150
   Startup grad/error   SOSCFStart      ....  0.003300
 Level Shifting         CNVShift        .... on
   Level shift para.    LevelShift      ....    0.2500
   Turn off err/grad.   ShiftErr        ....    0.0010
 Zerner damping         CNVZerner       .... off
 Static damping         CNVDamp         .... on
   Fraction old density DampFac         ....    0.7000
   Max. Damping (<1)    DampMax         ....    0.9800
   Min. Damping (>=0)   DampMin         ....    0.0000
   Turn off err/grad.   DampErr         ....    0.1000
 Fernandez-Rico         CNVRico         .... off

SCF Procedure:
 Maximum # iterations   MaxIter         ....   125
 SCF integral mode      SCFMode         .... Direct
   Integral package                     .... LIBINT
 Reset frequency        DirectResetFreq ....    20
 Integral Threshold     Thresh          ....  2.500e-11 Eh
 Primitive CutOff       TCut            ....  2.500e-12 Eh

Convergence Tolerance:
 Convergence Check Mode ConvCheckMode   .... Total+1el-Energy
 Convergence forced     ConvForced      .... 1
 Energy Change          TolE            ....  1.000e-08 Eh
 1-El. energy change                    ....  1.000e-05 Eh
 Orbital Gradient       TolG            ....  1.000e-05
 Orbital Rotation angle TolX            ....  1.000e-05
 DIIS Error             TolErr          ....  5.000e-07


Diagonalization of the overlap matrix:
Smallest eigenvalue                        ... 3.805e-03
Time for diagonalization                   ...    0.013 sec
Threshold for overlap eigenvalues          ... 1.000e-08
Number of eigenvalues below threshold      ... 0
Time for construction of square roots      ...    0.010 sec
Total time needed                          ...    0.030 sec

-------------------
DFT GRID GENERATION
-------------------

General Integration Accuracy     IntAcc      ...  4.340
Radial Grid Type                 RadialGrid  ... Gauss-Chebyshev
Angular Grid (max. acc.)         AngularGrid ... Lebedev-110
Angular grid pruning method      GridPruning ... 3 (G Style)
Weight generation scheme         WeightScheme... Becke
Basis function cutoff            BFCut       ...    1.0000e-11
Integration weight cutoff        WCut        ...    1.0000e-14
Grids for H and He will be reduced by one unit

# of grid points (after initial pruning)     ...  19824 (   0.0 sec)
# of grid points (after weights+screening)   ...  18725 (   0.2 sec)
nearest neighbour list constructed           ...    0.0 sec
Grid point re-assignment to atoms done       ...    0.0 sec
Grid point division into batches done        ...    0.0 sec
Reduced shell lists constructed in    0.1 sec

Total number of grid points                  ...    18725
Total number of batches                      ...      302
Average number of points per batch           ...       62
Average number of grid points per atom       ...     1040
Average number of shells per batch           ...    47.92 (42.04%)
Average number of basis functions per batch  ...    94.92 (36.79%)
Average number of large shells per batch     ...    32.29 (67.38%)
Average number of large basis fcns per batch ...    64.52 (67.97%)
Maximum spatial batch extension              ...  14.53, 19.62, 12.98 au
Average spatial batch extension              ...   0.69,  0.78,  0.64 au

Time for grid setup =    0.446 sec

------------------------------
INITIAL GUESS: MODEL POTENTIAL
------------------------------
Loading Hartree-Fock densities                     ... done
Calculating cut-offs                               ... done
Setting up the integral package                    ... done
Initializing the effective Hamiltonian             ... done
Starting the Coulomb interaction                   ... done (   0.0 sec)
Reading the grid                                   ... done
Mapping shells                                     ... done
Starting the XC term evaluation                    ... done (   0.1 sec)
Transforming the Hamiltonian                       ... done (   0.0 sec)
Diagonalizing the Hamiltonian                      ... done (   0.0 sec)
Back transforming the eigenvectors                 ... done (   0.0 sec)
Now organizing SCF variables                       ... done
                      ------------------
                      INITIAL GUESS DONE (   0.8 sec)
                      ------------------
--------------
SCF ITERATIONS
--------------
ITER       Energy         Delta-E        Max-DP      RMS-DP      [F,P]     Damp
               ***  Starting incremental Fock matrix formation  ***
  0   -455.8447249414   0.000000000000 0.04470431  0.00096766  0.3436587 0.7000
  1   -456.0498777014  -0.205152759982 0.02963546  0.00067368  0.2169107 0.7000
                               ***Turning on DIIS***
  2   -456.1590135259  -0.109135824515 0.01635333  0.00037953  0.1634616 0.7000
  3   -457.1677975912  -1.008784065243 0.00763577  0.00017766  0.1217937 0.7000
  4   -456.9668985866   0.200899004588 0.01719117  0.00041508  0.0861833 0.0000
  5   -456.4109004345   0.555998152089 0.00234401  0.00006710  0.0054373 0.0000
                      *** Initiating the SOSCF procedure ***
                           *** Shutting down DIIS ***
                      *** Re-Reading the Fockian *** 
                      *** Removing any level shift *** 
ITER      Energy       Delta-E        Grad      Rot      Max-DP    RMS-DP
  6   -456.38083926   0.0300611708  0.000858  0.000858  0.001449  0.000041
               *** Restarting incremental Fock matrix formation ***
  7   -456.37061477   0.0102244955  0.000291  0.000378  0.000686  0.000018
  8   -456.37062404  -0.0000092718  0.000106  0.000285  0.000498  0.000015
  9   -456.37062623  -0.0000021926  0.000063  0.000039  0.000108  0.000003
 10   -456.37062641  -0.0000001787  0.000013  0.000012  0.000020  0.000000
 11   -456.37062642  -0.0000000048  0.000003  0.000003  0.000006  0.000000
                  ***Gradient check signals convergence***
              ***Rediagonalizing the Fockian in SOSCF/NRSCF***

               *****************************************************
               *                     SUCCESS                       *
               *           SCF CONVERGED AFTER  12 CYCLES          *
               *****************************************************


----------------
TOTAL SCF ENERGY
----------------

Total Energy       :         -456.37062642 Eh          -12418.47609 eV

Components:
Nuclear Repulsion  :          274.92543992 Eh            7481.10155 eV
Electronic Energy  :         -731.29606633 Eh          -19899.57764 eV
One Electron Energy:        -1178.37056826 Eh          -32065.09332 eV
Two Electron Energy:          447.07450193 Eh           12165.51568 eV

Virial components:
Potential Energy   :         -912.16478791 Eh          -24821.26577 eV
Kinetic Energy     :          455.79416149 Eh           12402.78968 eV
Virial Ratio       :            2.00126475


---------------
SCF CONVERGENCE
---------------

  Last Energy change         ...    7.5829e-11  Tolerance :   1.0000e-08
  Last MAX-Density change    ...    2.1119e-06  Tolerance :   1.0000e-07
  Last RMS-Density change    ...    4.1883e-08  Tolerance :   5.0000e-09
  Last Orbital Gradient      ...    8.7222e-07  Tolerance :   1.0000e-05
  Last Orbital Rotation      ...    8.2513e-07  Tolerance :   1.0000e-05

             **** THE GBW FILE WAS UPDATED (12h2o.su.etal.mol0,3,4,6,7,10-orca.engrad-mp2.def2tzvp.frozencore.gbw) ****
             **** DENSITY FILE WAS UPDATED (12h2o.su.etal.mol0,3,4,6,7,10-orca.engrad-mp2.def2tzvp.frozencore.scfp) ****
             **** ENERGY FILE WAS UPDATED (12h2o.su.etal.mol0,3,4,6,7,10-orca.engrad-mp2.def2tzvp.frozencore.en.tmp) ****
             **** THE GBW FILE WAS UPDATED (12h2o.su.etal.mol0,3,4,6,7,10-orca.engrad-mp2.def2tzvp.frozencore.gbw) ****
             **** DENSITY FILE WAS UPDATED (12h2o.su.etal.mol0,3,4,6,7,10-orca.engrad-mp2.def2tzvp.frozencore.scfp) ****
----------------
ORBITAL ENERGIES
----------------

  NO   OCC          E(Eh)            E(eV) 
   0   2.0000     -20.624000      -561.2076 
   1   2.0000     -20.582880      -560.0886 
   2   2.0000     -20.576575      -559.9171 
   3   2.0000     -20.533624      -558.7483 
   4   2.0000     -20.527539      -558.5827 
   5   2.0000     -20.484493      -557.4114 
   6   2.0000      -1.407409       -38.2975 
   7   2.0000      -1.371018       -37.3073 
   8   2.0000      -1.354487       -36.8575 
   9   2.0000      -1.323082       -36.0029 
  10   2.0000      -1.311586       -35.6901 
  11   2.0000      -1.268457       -34.5165 
  12   2.0000      -0.766376       -20.8541 
  13   2.0000      -0.733095       -19.9485 
  14   2.0000      -0.721420       -19.6308 
  15   2.0000      -0.702974       -19.1289 
  16   2.0000      -0.695931       -18.9372 
  17   2.0000      -0.653515       -17.7831 
  18   2.0000      -0.648883       -17.6570 
  19   2.0000      -0.604445       -16.4478 
  20   2.0000      -0.596017       -16.2184 
  21   2.0000      -0.588403       -16.0113 
  22   2.0000      -0.557450       -15.1690 
  23   2.0000      -0.545825       -14.8527 
  24   2.0000      -0.530153       -14.4262 
  25   2.0000      -0.514396       -13.9974 
  26   2.0000      -0.502000       -13.6601 
  27   2.0000      -0.481923       -13.1138 
  28   2.0000      -0.467070       -12.7096 
  29   2.0000      -0.435714       -11.8564 
  30   0.0000       0.089619         2.4387 
  31   0.0000       0.125869         3.4251 
  32   0.0000       0.141573         3.8524 
  33   0.0000       0.165477         4.5028 
  34   0.0000       0.192299         5.2327 
  35   0.0000       0.196898         5.3579 
  36   0.0000       0.241098         6.5606 
  37   0.0000       0.252092         6.8598 
  38   0.0000       0.281415         7.6577 
  39   0.0000       0.327298         8.9062 
  40   0.0000       0.336583         9.1589 
  41   0.0000       0.364022         9.9055 
  42   0.0000       0.434055        11.8112 
  43   0.0000       0.470658        12.8073 
  44   0.0000       0.490585        13.3495 
  45   0.0000       0.522468        14.2171 
  46   0.0000       0.530687        14.4407 
  47   0.0000       0.539905        14.6916 
  48   0.0000       0.551811        15.0155 
  49   0.0000       0.562451        15.3051 
  50   0.0000       0.569905        15.5079 
  51   0.0000       0.583991        15.8912 
  52   0.0000       0.595789        16.2123 
  53   0.0000       0.608808        16.5665 
  54   0.0000       0.629205        17.1215 
  55   0.0000       0.637133        17.3373 
  56   0.0000       0.652992        17.7688 
  57   0.0000       0.664574        18.0840 
  58   0.0000       0.676623        18.4118 
  59   0.0000       0.687006        18.6944 
  60   0.0000       0.697074        18.9684 
  61   0.0000       0.731107        19.8944 
  62   0.0000       0.744851        20.2684 
  63   0.0000       0.757467        20.6117 
  64   0.0000       0.768578        20.9141 
  65   0.0000       0.778578        21.1862 
  66   0.0000       0.784344        21.3431 
  67   0.0000       0.827240        22.5104 
  68   0.0000       0.830859        22.6088 
  69   0.0000       0.862689        23.4750 
  70   0.0000       0.879869        23.9424 
  71   0.0000       0.907314        24.6893 
  72   0.0000       0.913109        24.8469 
  73   0.0000       0.965985        26.2858 
  74   0.0000       1.018338        27.7104 
  75   0.0000       1.044559        28.4239 
  76   0.0000       1.089668        29.6514 
  77   0.0000       1.146777        31.2054 
  78   0.0000       1.345800        36.6211 
  79   0.0000       1.351975        36.7891 
  80   0.0000       1.402330        38.1593 
  81   0.0000       1.405706        38.2512 
  82   0.0000       1.415811        38.5262 
  83   0.0000       1.431755        38.9600 
  84   0.0000       1.439970        39.1836 
  85   0.0000       1.465439        39.8766 
  86   0.0000       1.481571        40.3156 
  87   0.0000       1.497609        40.7520 
  88   0.0000       1.526323        41.5334 
  89   0.0000       1.529670        41.6244 
  90   0.0000       1.566216        42.6189 
  91   0.0000       1.591057        43.2949 
  92   0.0000       1.612945        43.8905 
  93   0.0000       1.622289        44.1447 
  94   0.0000       1.652218        44.9591 
  95   0.0000       1.695193        46.1285 
  96   0.0000       1.786070        48.6014 
  97   0.0000       1.803116        49.0653 
  98   0.0000       1.823941        49.6319 
  99   0.0000       1.833359        49.8882 
 100   0.0000       1.877807        51.0977 
 101   0.0000       1.890340        51.4388 
 102   0.0000       1.927632        52.4535 
 103   0.0000       1.948274        53.0152 
 104   0.0000       1.958635        53.2972 
 105   0.0000       1.986045        54.0430 
 106   0.0000       2.000577        54.4385 
 107   0.0000       2.034719        55.3675 
 108   0.0000       2.039381        55.4944 
 109   0.0000       2.082410        56.6653 
 110   0.0000       2.135502        58.1100 
 111   0.0000       2.143506        58.3278 
 112   0.0000       2.162792        58.8526 
 113   0.0000       2.213514        60.2328 
 114   0.0000       2.240569        60.9690 
 115   0.0000       2.281778        62.0903 
 116   0.0000       2.293813        62.4178 
 117   0.0000       2.302796        62.6623 
 118   0.0000       2.313475        62.9528 
 119   0.0000       2.336452        63.5781 
 120   0.0000       2.340703        63.6938 
 121   0.0000       2.372528        64.5598 
 122   0.0000       2.384093        64.8745 
 123   0.0000       2.399750        65.3005 
 124   0.0000       2.424273        65.9678 
 125   0.0000       2.429194        66.1017 
 126   0.0000       2.464392        67.0595 
 127   0.0000       2.497629        67.9639 
 128   0.0000       2.513771        68.4032 
 129   0.0000       2.544187        69.2308 
 130   0.0000       2.559027        69.6347 
 131   0.0000       2.568867        69.9024 
 132   0.0000       2.596719        70.6603 
 133   0.0000       2.602935        70.8295 
 134   0.0000       2.635411        71.7132 
 135   0.0000       2.657651        72.3184 
 136   0.0000       2.662457        72.4491 
 137   0.0000       2.664873        72.5149 
 138   0.0000       2.702130        73.5287 
 139   0.0000       2.715477        73.8919 
 140   0.0000       2.720408        74.0261 
 141   0.0000       2.768681        75.3396 
 142   0.0000       2.787851        75.8613 
 143   0.0000       2.816773        76.6483 
 144   0.0000       2.881847        78.4190 
 145   0.0000       2.907212        79.1093 
 146   0.0000       2.918266        79.4100 
 147   0.0000       2.949291        80.2543 
 148   0.0000       2.950819        80.2959 
 149   0.0000       2.975627        80.9709 
 150   0.0000       2.981645        81.1347 
 151   0.0000       3.010481        81.9194 
 152   0.0000       3.033908        82.5568 
 153   0.0000       3.058619        83.2293 
 154   0.0000       3.076492        83.7156 
 155   0.0000       3.081566        83.8537 
 156   0.0000       3.118377        84.8554 
 157   0.0000       3.145739        85.5999 
 158   0.0000       3.174423        86.3804 
 159   0.0000       3.232668        87.9654 
 160   0.0000       3.236944        88.0817 
 161   0.0000       3.256229        88.6065 
 162   0.0000       3.310780        90.0909 
 163   0.0000       3.340874        90.9098 
 164   0.0000       3.367674        91.6391 
 165   0.0000       3.427262        93.2606 
 166   0.0000       3.502668        95.3125 
 167   0.0000       3.527965        96.0008 
 168   0.0000       3.986010       108.4648 
 169   0.0000       3.993752       108.6755 
 170   0.0000       4.045297       110.0781 
 171   0.0000       4.116378       112.0124 
 172   0.0000       4.150997       112.9544 
 173   0.0000       4.171255       113.5056 
 174   0.0000       4.245341       115.5216 
 175   0.0000       4.297648       116.9449 
 176   0.0000       4.299123       116.9851 
 177   0.0000       4.366518       118.8190 
 178   0.0000       4.397317       119.6571 
 179   0.0000       4.420821       120.2967 
 180   0.0000       5.483959       149.2261 
 181   0.0000       5.522964       150.2875 
 182   0.0000       5.540638       150.7684 
 183   0.0000       5.569511       151.5541 
 184   0.0000       5.575780       151.7247 
 185   0.0000       5.610970       152.6823 
 186   0.0000       5.617539       152.8610 
 187   0.0000       5.627205       153.1240 
 188   0.0000       5.657022       153.9354 
 189   0.0000       5.672892       154.3672 
 190   0.0000       5.707633       155.3126 
 191   0.0000       5.726061       155.8140 
 192   0.0000       5.763094       156.8218 
 193   0.0000       5.786551       157.4600 
 194   0.0000       5.801494       157.8667 
 195   0.0000       5.807973       158.0430 
 196   0.0000       5.825635       158.5236 
 197   0.0000       5.832100       158.6995 
 198   0.0000       5.840428       158.9261 
 199   0.0000       5.852707       159.2603 
 200   0.0000       5.859668       159.4497 
 201   0.0000       5.876727       159.9139 
 202   0.0000       5.880008       160.0032 
 203   0.0000       5.895296       160.4192 
 204   0.0000       5.903065       160.6306 
 205   0.0000       5.905703       160.7024 
 206   0.0000       5.932587       161.4339 
 207   0.0000       5.939292       161.6163 
 208   0.0000       5.954545       162.0314 
 209   0.0000       5.972350       162.5159 
 210   0.0000       6.409946       174.4235 
 211   0.0000       6.418390       174.6533 
 212   0.0000       6.463873       175.8909 
 213   0.0000       6.488308       176.5558 
 214   0.0000       6.497736       176.8124 
 215   0.0000       6.543917       178.0690 
 216   0.0000       6.657748       181.1665 
 217   0.0000       6.684309       181.8893 
 218   0.0000       6.702595       182.3869 
 219   0.0000       6.722794       182.9365 
 220   0.0000       6.748311       183.6309 
 221   0.0000       6.774307       184.3383 
 222   0.0000       6.833383       185.9458 
 223   0.0000       6.840509       186.1397 
 224   0.0000       6.862303       186.7328 
 225   0.0000       6.875823       187.1006 
 226   0.0000       6.889964       187.4855 
 227   0.0000       6.901211       187.7915 
 228   0.0000       6.906045       187.9230 
 229   0.0000       6.911046       188.0591 
 230   0.0000       6.921813       188.3521 
 231   0.0000       6.934868       188.7074 
 232   0.0000       6.949011       189.0922 
 233   0.0000       6.962271       189.4530 
 234   0.0000       6.981205       189.9683 
 235   0.0000       6.992420       190.2734 
 236   0.0000       7.011261       190.7861 
 237   0.0000       7.042338       191.6318 
 238   0.0000       7.074828       192.5159 
 239   0.0000       7.089142       192.9054 
 240   0.0000       7.347668       199.9402 
 241   0.0000       7.373568       200.6450 
 242   0.0000       7.413338       201.7272 
 243   0.0000       7.449010       202.6979 
 244   0.0000       7.481445       203.5805 
 245   0.0000       7.489537       203.8007 
 246   0.0000       7.494941       203.9477 
 247   0.0000       7.524270       204.7458 
 248   0.0000       7.546631       205.3543 
 249   0.0000       7.574908       206.1237 
 250   0.0000       7.634143       207.7356 
 251   0.0000       7.662947       208.5194 
 252   0.0000      44.858654      1220.6660 
 253   0.0000      44.909773      1222.0571 
 254   0.0000      44.977887      1223.9105 
 255   0.0000      44.996799      1224.4252 
 256   0.0000      45.073851      1226.5218 
 257   0.0000      45.111798      1227.5544 

                    ********************************
                    * MULLIKEN POPULATION ANALYSIS *
                    ********************************

-----------------------
MULLIKEN ATOMIC CHARGES
-----------------------
   0 O :   -0.717253
   1 H :    0.355135
   2 H :    0.366083
   3 O :   -0.725531
   4 H :    0.398665
   5 H :    0.362770
   6 O :   -0.772496
   7 H :    0.400216
   8 H :    0.366494
   9 O :   -0.776733
  10 H :    0.369017
  11 H :    0.376191
  12 O :   -0.750103
  13 H :    0.381965
  14 H :    0.388316
  15 O :   -0.760667
  16 H :    0.341265
  17 H :    0.396665
Sum of atomic charges:   -0.0000000

--------------------------------
MULLIKEN REDUCED ORBITAL CHARGES
--------------------------------
  0 O s       :     3.810508  s :     3.810508
      pz      :     1.718902  p :     4.880304
      px      :     1.359503
      py      :     1.801899
      dz2     :     0.004187  d :     0.024919
      dxz     :     0.004516
      dyz     :     0.005810
      dx2y2   :     0.002512
      dxy     :     0.007895
      f0      :     0.000084  f :     0.001521
      f+1     :     0.000331
      f-1     :     0.000189
      f+2     :     0.000071
      f-2     :     0.000352
      f+3     :     0.000100
      f-3     :     0.000395
  1 H s       :     0.599309  s :     0.599309
      pz      :     0.017056  p :     0.045556
      px      :     0.013500
      py      :     0.015000
  2 H s       :     0.592316  s :     0.592316
      pz      :     0.010767  p :     0.041601
      px      :     0.017772
      py      :     0.013062
  3 O s       :     3.797742  s :     3.797742
      pz      :     1.567477  p :     4.901111
      px      :     1.546822
      py      :     1.786812
      dz2     :     0.012015  d :     0.025269
      dxz     :     0.001221
      dyz     :     0.002437
      dx2y2   :     0.002475
      dxy     :     0.007121
      f0      :     0.000231  f :     0.001409
      f+1     :     0.000383
      f-1     :     0.000157
      f+2     :     0.000051
      f-2     :     0.000056
      f+3     :     0.000053
      f-3     :     0.000478
  4 H s       :     0.553552  s :     0.553552
      pz      :     0.024497  p :     0.047783
      px      :     0.011211
      py      :     0.012075
  5 H s       :     0.593500  s :     0.593500
      pz      :     0.010505  p :     0.043729
      px      :     0.018398
      py      :     0.014826
  6 O s       :     3.795906  s :     3.795906
      pz      :     1.610275  p :     4.951577
      px      :     1.843474
      py      :     1.497827
      dz2     :     0.010863  d :     0.023681
      dxz     :     0.002090
      dyz     :     0.002668
      dx2y2   :     0.003297
      dxy     :     0.004763
      f0      :     0.000151  f :     0.001332
      f+1     :     0.000109
      f-1     :     0.000447
      f+2     :     0.000069
      f-2     :     0.000040
      f+3     :     0.000417
      f-3     :     0.000101
  7 H s       :     0.551374  s :     0.551374
      pz      :     0.025159  p :     0.048410
      px      :     0.012354
      py      :     0.010896
  8 H s       :     0.580254  s :     0.580254
      pz      :     0.009908  p :     0.053252
      px      :     0.015293
      py      :     0.028050
  9 O s       :     3.806266  s :     3.806266
      pz      :     1.572940  p :     4.945005
      px      :     1.497448
      py      :     1.874616
      dz2     :     0.010959  d :     0.024071
      dxz     :     0.002858
      dyz     :     0.002447
      dx2y2   :     0.002951
      dxy     :     0.004856
      f0      :     0.000167  f :     0.001390
      f+1     :     0.000439
      f-1     :     0.000118
      f+2     :     0.000076
      f-2     :     0.000040
      f+3     :     0.000113
      f-3     :     0.000437
 10 H s       :     0.582088  s :     0.582088
      pz      :     0.023861  p :     0.048895
      px      :     0.011493
      py      :     0.013541
 11 H s       :     0.569496  s :     0.569496
      pz      :     0.009833  p :     0.054313
      px      :     0.028708
      py      :     0.015771
 12 O s       :     3.805080  s :     3.805080
      pz      :     1.571278  p :     4.919195
      px      :     1.488603
      py      :     1.859314
      dz2     :     0.010918  d :     0.024384
      dxz     :     0.002604
      dyz     :     0.002162
      dx2y2   :     0.003481
      dxy     :     0.005219
      f0      :     0.000191  f :     0.001444
      f+1     :     0.000455
      f-1     :     0.000119
      f+2     :     0.000070
      f-2     :     0.000038
      f+3     :     0.000111
      f-3     :     0.000460
 13 H s       :     0.574371  s :     0.574371
      pz      :     0.019181  p :     0.043664
      px      :     0.011442
      py      :     0.013041
 14 H s       :     0.570340  s :     0.570340
      pz      :     0.008915  p :     0.041345
      px      :     0.018984
      py      :     0.013445
 15 O s       :     3.808772  s :     3.808772
      pz      :     1.705782  p :     4.927323
      px      :     1.809420
      py      :     1.412122
      dz2     :     0.003614  d :     0.023140
      dxz     :     0.005522
      dyz     :     0.004191
      dx2y2   :     0.002262
      dxy     :     0.007551
      f0      :     0.000079  f :     0.001431
      f+1     :     0.000178
      f-1     :     0.000310
      f+2     :     0.000070
      f-2     :     0.000348
      f+3     :     0.000357
      f-3     :     0.000089
 16 H s       :     0.612782  s :     0.612782
      pz      :     0.016877  p :     0.045953
      px      :     0.015106
      py      :     0.013969
 17 H s       :     0.546724  s :     0.546724
      pz      :     0.010343  p :     0.056611
      px      :     0.014166
      py      :     0.032103


                     *******************************
                     * LOEWDIN POPULATION ANALYSIS *
                     *******************************

----------------------
LOEWDIN ATOMIC CHARGES
----------------------
   0 O :   -0.316906
   1 H :    0.159931
   2 H :    0.185832
   3 O :   -0.284275
   4 H :    0.162291
   5 H :    0.173890
   6 O :   -0.333070
   7 H :    0.158327
   8 H :    0.143169
   9 O :   -0.379718
  10 H :    0.146275
  11 H :    0.144684
  12 O :   -0.290354
  13 H :    0.179748
  14 H :    0.188429
  15 O :   -0.343362
  16 H :    0.151420
  17 H :    0.153689

-------------------------------
LOEWDIN REDUCED ORBITAL CHARGES
-------------------------------
  0 O s       :     3.469372  s :     3.469372
      pz      :     1.682746  p :     4.812890
      px      :     1.354473
      py      :     1.775671
      dz2     :     0.005513  d :     0.032523
      dxz     :     0.007013
      dyz     :     0.005854
      dx2y2   :     0.003889
      dxy     :     0.010254
      f0      :     0.000093  f :     0.002120
      f+1     :     0.000453
      f-1     :     0.000274
      f+2     :     0.000036
      f-2     :     0.000615
      f+3     :     0.000094
      f-3     :     0.000556
  1 H s       :     0.676628  s :     0.676628
      pz      :     0.066529  p :     0.163441
      px      :     0.044074
      py      :     0.052837
  2 H s       :     0.665966  s :     0.665966
      pz      :     0.033451  p :     0.148202
      px      :     0.071182
      py      :     0.043568
  3 O s       :     3.453815  s :     3.453815
      pz      :     1.539913  p :     4.796057
      px      :     1.529437
      py      :     1.726708
      dz2     :     0.015637  d :     0.032275
      dxz     :     0.001797
      dyz     :     0.001866
      dx2y2   :     0.003698
      dxy     :     0.009278
      f0      :     0.000416  f :     0.002128
      f+1     :     0.000564
      f-1     :     0.000335
      f+2     :     0.000021
      f-2     :     0.000046
      f+3     :     0.000027
      f-3     :     0.000720
  4 H s       :     0.666932  s :     0.666932
      pz      :     0.093143  p :     0.170777
      px      :     0.036007
      py      :     0.041627
  5 H s       :     0.667965  s :     0.667965
      pz      :     0.031004  p :     0.158145
      px      :     0.072346
      py      :     0.054796
  6 O s       :     3.455871  s :     3.455871
      pz      :     1.581250  p :     4.846282
      px      :     1.786572
      py      :     1.478461
      dz2     :     0.013197  d :     0.028988
      dxz     :     0.001235
      dyz     :     0.003481
      dx2y2   :     0.004972
      dxy     :     0.006103
      f0      :     0.000319  f :     0.001929
      f+1     :     0.000197
      f-1     :     0.000696
      f+2     :     0.000036
      f-2     :     0.000042
      f+3     :     0.000569
      f-3     :     0.000069
  7 H s       :     0.666632  s :     0.666632
      pz      :     0.095272  p :     0.175041
      px      :     0.042622
      py      :     0.037147
  8 H s       :     0.673162  s :     0.673162
      pz      :     0.031126  p :     0.183669
      px      :     0.052827
      py      :     0.099715
  9 O s       :     3.464946  s :     3.464946
      pz      :     1.563711  p :     4.883668
      px      :     1.482151
      py      :     1.837805
      dz2     :     0.013794  d :     0.029154
      dxz     :     0.004051
      dyz     :     0.001560
      dx2y2   :     0.003846
      dxy     :     0.005903
      f0      :     0.000356  f :     0.001951
      f+1     :     0.000706
      f-1     :     0.000188
      f+2     :     0.000043
      f-2     :     0.000044
      f+3     :     0.000066
      f-3     :     0.000546
 10 H s       :     0.681964  s :     0.681964
      pz      :     0.090892  p :     0.171761
      px      :     0.037454
      py      :     0.043415
 11 H s       :     0.669065  s :     0.669065
      pz      :     0.030412  p :     0.186250
      px      :     0.102991
      py      :     0.052847
 12 O s       :     3.461768  s :     3.461768
      pz      :     1.538970  p :     4.794584
      px      :     1.463010
      py      :     1.792604
      dz2     :     0.015119  d :     0.031926
      dxz     :     0.003897
      dyz     :     0.001384
      dx2y2   :     0.005061
      dxy     :     0.006463
      f0      :     0.000373  f :     0.002076
      f+1     :     0.000733
      f-1     :     0.000207
      f+2     :     0.000040
      f-2     :     0.000044
      f+3     :     0.000071
      f-3     :     0.000608
 13 H s       :     0.661300  s :     0.661300
      pz      :     0.080796  p :     0.158952
      px      :     0.035494
      py      :     0.042662
 14 H s       :     0.656668  s :     0.656668
      pz      :     0.029032  p :     0.154902
      px      :     0.076636
      py      :     0.049234
 15 O s       :     3.461511  s :     3.461511
      pz      :     1.675500  p :     4.850165
      px      :     1.780818
      py      :     1.393847
      dz2     :     0.004615  d :     0.029691
      dxz     :     0.005783
      dyz     :     0.006816
      dx2y2   :     0.003223
      dxy     :     0.009254
      f0      :     0.000082  f :     0.001995
      f+1     :     0.000264
      f-1     :     0.000429
      f+2     :     0.000034
      f-2     :     0.000620
      f+3     :     0.000482
      f-3     :     0.000084
 16 H s       :     0.683847  s :     0.683847
      pz      :     0.065691  p :     0.164733
      px      :     0.053398
      py      :     0.045643
 17 H s       :     0.651143  s :     0.651143
      pz      :     0.033481  p :     0.195168
      px      :     0.047602
      py      :     0.114085


                      *****************************
                      * MAYER POPULATION ANALYSIS *
                      *****************************

  NA   - Mulliken gross atomic population
  ZA   - Total nuclear charge
  QA   - Mulliken gross atomic charge
  VA   - Mayer's total valence
  BVA  - Mayer's bonded valence
  FA   - Mayer's free valence

  ATOM       NA         ZA         QA         VA         BVA        FA
  0 O      8.7173     8.0000    -0.7173     1.7669     1.7669    -0.0000
  1 H      0.6449     1.0000     0.3551     0.8890     0.8890     0.0000
  2 H      0.6339     1.0000     0.3661     0.8813     0.8813    -0.0000
  3 O      8.7255     8.0000    -0.7255     1.7597     1.7597    -0.0000
  4 H      0.6013     1.0000     0.3987     0.8635     0.8635    -0.0000
  5 H      0.6372     1.0000     0.3628     0.8825     0.8825    -0.0000
  6 O      8.7725     8.0000    -0.7725     1.7020     1.7020    -0.0000
  7 H      0.5998     1.0000     0.4002     0.8742     0.8742    -0.0000
  8 H      0.6335     1.0000     0.3665     0.8996     0.8996    -0.0000
  9 O      8.7767     8.0000    -0.7767     1.6923     1.6923    -0.0000
 10 H      0.6310     1.0000     0.3690     0.8897     0.8897    -0.0000
 11 H      0.6238     1.0000     0.3762     0.8981     0.8981    -0.0000
 12 O      8.7501     8.0000    -0.7501     1.7466     1.7466    -0.0000
 13 H      0.6180     1.0000     0.3820     0.8699     0.8699    -0.0000
 14 H      0.6117     1.0000     0.3883     0.8690     0.8690     0.0000
 15 O      8.7607     8.0000    -0.7607     1.7006     1.7006    -0.0000
 16 H      0.6587     1.0000     0.3413     0.8997     0.8997     0.0000
 17 H      0.6033     1.0000     0.3967     0.8781     0.8781     0.0000

  Mayer bond orders larger than 0.100000
B(  0-O ,  1-H ) :   0.8810 B(  0-O ,  2-H ) :   0.8703 B(  3-O ,  4-H ) :   0.8406 
B(  3-O ,  5-H ) :   0.8762 B(  6-O ,  7-H ) :   0.8289 B(  6-O ,  8-H ) :   0.8509 
B(  9-O , 10-H ) :   0.8676 B(  9-O , 11-H ) :   0.8331 B( 12-O , 13-H ) :   0.8623 
B( 12-O , 14-H ) :   0.8500 B( 15-O , 16-H ) :   0.8912 B( 15-O , 17-H ) :   0.8030 


-------
TIMINGS
-------

Total SCF time: 0 days 0 hours 0 min 27 sec 

Total time                  ....      27.492 sec
Sum of individual times     ....      26.781 sec  ( 97.4%)

Fock matrix formation       ....      23.977 sec  ( 87.2%)
Diagonalization             ....       0.919 sec  (  3.3%)
Density matrix formation    ....       0.465 sec  (  1.7%)
Population analysis         ....       0.018 sec  (  0.1%)
Initial guess               ....       0.401 sec  (  1.5%)
Orbital Transformation      ....       0.000 sec  (  0.0%)
Orbital Orthonormalization  ....       0.000 sec  (  0.0%)
DIIS solution               ....       0.277 sec  (  1.0%)
SOSCF solution              ....       0.277 sec  (  1.0%)


           ************************************************************
           *        Program running with 6 parallel MPI-processes     *
           *              working on a common directory               *
           ************************************************************

------------------------------------------------------------------------------
                                ORCA  MP2 
------------------------------------------------------------------------------

Freezing NCore=12 chemical core electrons
MP2 will be done in the AO integral direct mode
The Q1-step will be done using symmetric double matrices
Dimension of the basis                    ...  258
Memory devoted for MP2                    ... 8000 MB   
Memory needed for all in one shot         ...  264 MB
Number of MOs that can be treated together...  120      
MP2 density construction                  ... relaxed
The MP2 gradient is requested => amplitudes will be stored on disk
Total number of MOs              ...   24
Number of MOs treated per batch  ...    4 
Number of batches necessary      ...    1 
OPERATORS   0/  0 PASS   0
-----------------------------------------------
 MP2 CORRELATION ENERGY   :     -1.552645984 Eh
-----------------------------------------------


---------------------
MP2 DENSITY FORMATION
---------------------

Completing the external part of the density      ... done
Storing the unrelaxed density                    ... done

Calculating G(D)                                 ... done
Completing the Lagrangian                        ... done
Solving the Z-vector equations                   ... 

------------------------------------------------------------------------------
                           ORCA CP-SCF CALCULATION
------------------------------------------------------------------------------

Input orbitals are from        ... 12h2o.su.etal.mol0,3,4,6,7,10-orca.engrad-mp2.def2tzvp.frozencore.gbw
Input Perturbation             ... 12h2o.su.etal.mol0,3,4,6,7,10-orca.engrad-mp2.def2tzvp.frozencore.pin.tmp
Wavefunction output            ... 12h2o.su.etal.mol0,3,4,6,7,10-orca.engrad-mp2.def2tzvp.frozencore.pout.tmp
Perturbation mode              ... Real perturbation (singlet)
Solver                         ... POPLE
Max. number of iterations      ... 128
Convergence tolerance          ... 1.000e-08
Integral handling              ... Direct
Number of perturbations        ... 1
Number of operators            ... 1
Orbital ranges used for CP-SCF:
 Operator 0:  Orbitals   0... 29  to  30...257
Variables per vector in CP-SCF ... 6840
Number of vectors sought       ... 1
     CP-SCF ITERATION   0: 
     CP-SCF ITERATION   1:      0.000753015424
     CP-SCF ITERATION   2:      0.000019235430
     CP-SCF ITERATION   3:      0.000000834158
     CP-SCF ITERATION   4:      0.000000083606
     CP-SCF ITERATION   5:      0.000000006787
                                                 ... done
Finalizing the relaxed density                   ... done
Transforming P to the AO basis                   ... done
Storing the relaxed density                      ... done

------------------------------------
ENERGY WEIGHTED DENSITY FINALIZATION
------------------------------------

Gathering the parts of the W-matrix              ...                                                      done
Forming the Z-density                            ... done
Transforming Z to the AO basis                   ... done
Calculating G(Z)                                 ... done
Finalizing the W-matrix                          ...                                                      done
Transforming W to the AO basis and storing       ... done

                *********************************************
                * UNRELAXED MP2 DENSITY POPULATION ANALYSIS *
                *********************************************

------------------------------------------------------------------------------
                           ORCA POPULATION ANALYSIS
------------------------------------------------------------------------------
Input electron density              ... 12h2o.su.etal.mol0,3,4,6,7,10-orca.engrad-mp2.def2tzvp.frozencore.pmp2ur
BaseName (.gbw .S,...)              ... 12h2o.su.etal.mol0,3,4,6,7,10-orca.engrad-mp2.def2tzvp.frozencore

                    ********************************
                    * MULLIKEN POPULATION ANALYSIS *
                    ********************************

-----------------------
MULLIKEN ATOMIC CHARGES
-----------------------
   0 O :   -0.712133
   1 H :    0.352906
   2 H :    0.363297
   3 O :   -0.718951
   4 H :    0.395805
   5 H :    0.360335
   6 O :   -0.765278
   7 H :    0.396912
   8 H :    0.362274
   9 O :   -0.770534
  10 H :    0.366083
  11 H :    0.371760
  12 O :   -0.743974
  13 H :    0.379674
  14 H :    0.385390
  15 O :   -0.754620
  16 H :    0.338987
  17 H :    0.392067
Sum of atomic charges:   -0.0000000

--------------------------------
MULLIKEN REDUCED ORBITAL CHARGES
--------------------------------
  0 O s       :     3.805664  s :     3.805664
      pz      :     1.708093  p :     4.850692
      px      :     1.351941
      py      :     1.790659
      dz2     :     0.009700  d :     0.051703
      dxz     :     0.009872
      dyz     :     0.011184
      dx2y2   :     0.007854
      dxy     :     0.013093
      f0      :     0.000455  f :     0.004074
      f+1     :     0.000692
      f-1     :     0.000554
      f+2     :     0.000437
      f-2     :     0.000715
      f+3     :     0.000467
      f-3     :     0.000753
  1 H s       :     0.599943  s :     0.599943
      pz      :     0.017547  p :     0.047151
      px      :     0.013892
      py      :     0.015713
  2 H s       :     0.593549  s :     0.593549
      pz      :     0.011607  p :     0.043155
      px      :     0.017719
      py      :     0.013829
  3 O s       :     3.792613  s :     3.792613
      pz      :     1.557855  p :     4.869776
      px      :     1.537459
      py      :     1.774461
      dz2     :     0.017221  d :     0.052557
      dxz     :     0.006657
      dyz     :     0.008051
      dx2y2   :     0.008116
      dxy     :     0.012512
      f0      :     0.000616  f :     0.004005
      f+1     :     0.000752
      f-1     :     0.000536
      f+2     :     0.000414
      f-2     :     0.000423
      f+3     :     0.000427
      f-3     :     0.000838
  4 H s       :     0.554923  s :     0.554923
      pz      :     0.024554  p :     0.049272
      px      :     0.011843
      py      :     0.012875
  5 H s       :     0.594367  s :     0.594367
      pz      :     0.011287  p :     0.045298
      px      :     0.018564
      py      :     0.015447
  6 O s       :     3.790645  s :     3.790645
      pz      :     1.600208  p :     4.919232
      px      :     1.830536
      py      :     1.488488
      dz2     :     0.016207  d :     0.051463
      dxz     :     0.007797
      dyz     :     0.008152
      dx2y2   :     0.008984
      dxy     :     0.010323
      f0      :     0.000539  f :     0.003939
      f+1     :     0.000486
      f-1     :     0.000818
      f+2     :     0.000436
      f-2     :     0.000409
      f+3     :     0.000778
      f-3     :     0.000473
  7 H s       :     0.553197  s :     0.553197
      pz      :     0.025241  p :     0.049891
      px      :     0.013166
      py      :     0.011484
  8 H s       :     0.582716  s :     0.582716
      pz      :     0.010767  p :     0.055010
      px      :     0.016021
      py      :     0.028223
  9 O s       :     3.801274  s :     3.801274
      pz      :     1.563270  p :     4.914021
      px      :     1.488168
      py      :     1.862583
      dz2     :     0.016189  d :     0.051269
      dxz     :     0.008279
      dyz     :     0.008011
      dx2y2   :     0.008484
      dxy     :     0.010307
      f0      :     0.000551  f :     0.003970
      f+1     :     0.000809
      f-1     :     0.000490
      f+2     :     0.000440
      f-2     :     0.000406
      f+3     :     0.000479
      f-3     :     0.000794
 10 H s       :     0.583387  s :     0.583387
      pz      :     0.023982  p :     0.050530
      px      :     0.012135
      py      :     0.014414
 11 H s       :     0.572211  s :     0.572211
      pz      :     0.010682  p :     0.056029
      px      :     0.028852
      py      :     0.016495
 12 O s       :     3.800001  s :     3.800001
      pz      :     1.561680  p :     4.888117
      px      :     1.479736
      py      :     1.846702
      dz2     :     0.016235  d :     0.051829
      dxz     :     0.007990
      dyz     :     0.007836
      dx2y2   :     0.009052
      dxy     :     0.010716
      f0      :     0.000575  f :     0.004027
      f+1     :     0.000820
      f-1     :     0.000495
      f+2     :     0.000435
      f-2     :     0.000405
      f+3     :     0.000481
      f-3     :     0.000816
 13 H s       :     0.575154  s :     0.575154
      pz      :     0.019309  p :     0.045172
      px      :     0.012004
      py      :     0.013859
 14 H s       :     0.571805  s :     0.571805
      pz      :     0.009679  p :     0.042805
      px      :     0.018971
      py      :     0.014155
 15 O s       :     3.803835  s :     3.803835
      pz      :     1.694806  p :     4.896180
      px      :     1.797949
      py      :     1.403425
      dz2     :     0.009259  d :     0.050592
      dxz     :     0.010960
      dyz     :     0.009676
      dx2y2   :     0.007795
      dxy     :     0.012902
      f0      :     0.000451  f :     0.004013
      f+1     :     0.000543
      f-1     :     0.000677
      f+2     :     0.000440
      f-2     :     0.000715
      f+3     :     0.000724
      f-3     :     0.000464
 16 H s       :     0.613381  s :     0.613381
      pz      :     0.017368  p :     0.047631
      px      :     0.015844
      py      :     0.014420
 17 H s       :     0.549667  s :     0.549667
      pz      :     0.011163  p :     0.058266
      px      :     0.014900
      py      :     0.032203


                     *******************************
                     * LOEWDIN POPULATION ANALYSIS *
                     *******************************

----------------------
LOEWDIN ATOMIC CHARGES
----------------------
   0 O :   -0.313462
   1 H :    0.158741
   2 H :    0.184043
   3 O :   -0.279953
   4 H :    0.160449
   5 H :    0.172478
   6 O :   -0.329046
   7 H :    0.156215
   8 H :    0.140532
   9 O :   -0.376929
  10 H :    0.144266
  11 H :    0.142067
  12 O :   -0.285744
  13 H :    0.178433
  14 H :    0.186691
  15 O :   -0.339987
  16 H :    0.150087
  17 H :    0.151120

-------------------------------
LOEWDIN REDUCED ORBITAL CHARGES
-------------------------------
  0 O s       :     3.465607  s :     3.465607
      pz      :     1.671481  p :     4.782588
      px      :     1.346437
      py      :     1.764671
      dz2     :     0.011122  d :     0.060400
      dxz     :     0.012577
      dyz     :     0.011525
      dx2y2   :     0.009354
      dxy     :     0.015822
      f0      :     0.000475  f :     0.004866
      f+1     :     0.000861
      f-1     :     0.000658
      f+2     :     0.000409
      f-2     :     0.001021
      f+3     :     0.000475
      f-3     :     0.000966
  1 H s       :     0.674747  s :     0.674747
      pz      :     0.067775  p :     0.166513
      px      :     0.044906
      py      :     0.053832
  2 H s       :     0.664657  s :     0.664657
      pz      :     0.034300  p :     0.151301
      px      :     0.072451
      py      :     0.044549
  3 O s       :     3.450001  s :     3.450001
      pz      :     1.530230  p :     4.764430
      px      :     1.519904
      py      :     1.714296
      dz2     :     0.021514  d :     0.060600
      dxz     :     0.007190
      dyz     :     0.007410
      dx2y2   :     0.009313
      dxy     :     0.015172
      f0      :     0.000841  f :     0.004922
      f+1     :     0.000987
      f-1     :     0.000737
      f+2     :     0.000389
      f-2     :     0.000421
      f+3     :     0.000407
      f-3     :     0.001140
  4 H s       :     0.665979  s :     0.665979
      pz      :     0.094411  p :     0.173572
      px      :     0.036733
      py      :     0.042427
  5 H s       :     0.666285  s :     0.666285
      pz      :     0.031760  p :     0.161237
      px      :     0.073657
      py      :     0.055820
  6 O s       :     3.452178  s :     3.452178
      pz      :     1.571285  p :     4.814269
      px      :     1.773771
      py      :     1.469213
      dz2     :     0.019156  d :     0.057864
      dxz     :     0.006861
      dyz     :     0.009000
      dx2y2   :     0.010835
      dxy     :     0.012012
      f0      :     0.000738  f :     0.004736
      f+1     :     0.000590
      f-1     :     0.001138
      f+2     :     0.000411
      f-2     :     0.000418
      f+3     :     0.000987
      f-3     :     0.000453
  7 H s       :     0.665999  s :     0.665999
      pz      :     0.096500  p :     0.177786
      px      :     0.043378
      py      :     0.037908
  8 H s       :     0.672795  s :     0.672795
      pz      :     0.031995  p :     0.186674
      px      :     0.053751
      py      :     0.100927
  9 O s       :     3.461305  s :     3.461305
      pz      :     1.553917  p :     4.853382
      px      :     1.473075
      py      :     1.826390
      dz2     :     0.019649  d :     0.057515
      dxz     :     0.009514
      dyz     :     0.007060
      dx2y2   :     0.009585
      dxy     :     0.011708
      f0      :     0.000771  f :     0.004727
      f+1     :     0.001146
      f-1     :     0.000576
      f+2     :     0.000414
      f-2     :     0.000417
      f+3     :     0.000444
      f-3     :     0.000958
 10 H s       :     0.680909  s :     0.680909
      pz      :     0.092335  p :     0.174825
      px      :     0.038281
      py      :     0.044209
 11 H s       :     0.668853  s :     0.668853
      pz      :     0.031254  p :     0.189080
      px      :     0.104117
      py      :     0.053709
 12 O s       :     3.457913  s :     3.457913
      pz      :     1.528716  p :     4.762578
      px      :     1.453908
      py      :     1.779954
      dz2     :     0.021051  d :     0.060399
      dxz     :     0.009317
      dyz     :     0.006977
      dx2y2   :     0.010806
      dxy     :     0.012247
      f0      :     0.000789  f :     0.004854
      f+1     :     0.001167
      f-1     :     0.000599
      f+2     :     0.000412
      f-2     :     0.000416
      f+3     :     0.000451
      f-3     :     0.001020
 13 H s       :     0.659705  s :     0.659705
      pz      :     0.082210  p :     0.161863
      px      :     0.036218
      py      :     0.043435
 14 H s       :     0.655519  s :     0.655519
      pz      :     0.029814  p :     0.157790
      px      :     0.077828
      py      :     0.050148
 15 O s       :     3.457844  s :     3.457844
      pz      :     1.664037  p :     4.819105
      px      :     1.769698
      py      :     1.385370
      dz2     :     0.010349  d :     0.058264
      dxz     :     0.011554
      dyz     :     0.012515
      dx2y2   :     0.008865
      dxy     :     0.014981
      f0      :     0.000466  f :     0.004774
      f+1     :     0.000649
      f-1     :     0.000843
      f+2     :     0.000411
      f-2     :     0.001031
      f+3     :     0.000901
      f-3     :     0.000472
 16 H s       :     0.681915  s :     0.681915
      pz      :     0.066966  p :     0.167998
      px      :     0.054430
      py      :     0.046601
 17 H s       :     0.651253  s :     0.651253
      pz      :     0.034323  p :     0.197627
      px      :     0.048487
      py      :     0.114816


                      *****************************
                      * MAYER POPULATION ANALYSIS *
                      *****************************

  NA   - Mulliken gross atomic population
  ZA   - Total nuclear charge
  QA   - Mulliken gross atomic charge
  VA   - Mayer's total valence
  BVA  - Mayer's bonded valence
  FA   - Mayer's free valence

  ATOM       NA         ZA         QA         VA         BVA        FA
  0 O      8.7121     8.0000    -0.7121     2.0748     1.6856     0.3892
  1 H      0.6471     1.0000     0.3529     0.8947     0.8487     0.0460
  2 H      0.6367     1.0000     0.3633     0.8874     0.8394     0.0480
  3 O      8.7190     8.0000    -0.7190     2.0682     1.6806     0.3876
  4 H      0.6042     1.0000     0.3958     0.8693     0.8259     0.0434
  5 H      0.6397     1.0000     0.3603     0.8883     0.8419     0.0464
  6 O      8.7653     8.0000    -0.7653     2.0179     1.6242     0.3938
  7 H      0.6031     1.0000     0.3969     0.8804     0.8367     0.0437
  8 H      0.6377     1.0000     0.3623     0.9074     0.8590     0.0483
  9 O      8.7705     8.0000    -0.7705     2.0084     1.6141     0.3942
 10 H      0.6339     1.0000     0.3661     0.8960     0.8501     0.0459
 11 H      0.6282     1.0000     0.3718     0.9059     0.8585     0.0474
 12 O      8.7440     8.0000    -0.7440     2.0595     1.6680     0.3914
 13 H      0.6203     1.0000     0.3797     0.8753     0.8307     0.0445
 14 H      0.6146     1.0000     0.3854     0.8752     0.8293     0.0459
 15 O      8.7546     8.0000    -0.7546     2.0153     1.6218     0.3935
 16 H      0.6610     1.0000     0.3390     0.9056     0.8581     0.0475
 17 H      0.6079     1.0000     0.3921     0.8857     0.8395     0.0462

  Mayer bond orders larger than 0.100000
B(  0-O ,  1-H ) :   0.8413 B(  0-O ,  2-H ) :   0.8290 B(  3-O ,  4-H ) :   0.8037 
B(  3-O ,  5-H ) :   0.8361 B(  6-O ,  7-H ) :   0.7929 B(  6-O ,  8-H ) :   0.8117 
B(  9-O , 10-H ) :   0.8285 B(  9-O , 11-H ) :   0.7953 B( 12-O , 13-H ) :   0.8237 
B( 12-O , 14-H ) :   0.8112 B( 15-O , 16-H ) :   0.8502 B( 15-O , 17-H ) :   0.7665 



                *******************************************
                * RELAXED MP2 DENSITY POPULATION ANALYSIS *
                *******************************************

------------------------------------------------------------------------------
                           ORCA POPULATION ANALYSIS
------------------------------------------------------------------------------
Input electron density              ... 12h2o.su.etal.mol0,3,4,6,7,10-orca.engrad-mp2.def2tzvp.frozencore.pmp2re
BaseName (.gbw .S,...)              ... 12h2o.su.etal.mol0,3,4,6,7,10-orca.engrad-mp2.def2tzvp.frozencore

                    ********************************
                    * MULLIKEN POPULATION ANALYSIS *
                    ********************************

-----------------------
MULLIKEN ATOMIC CHARGES
-----------------------
   0 O :   -0.695829
   1 H :    0.345928
   2 H :    0.355681
   3 O :   -0.692119
   4 H :    0.383373
   5 H :    0.354875
   6 O :   -0.731861
   7 H :    0.379882
   8 H :    0.342848
   9 O :   -0.746015
  10 H :    0.352927
  11 H :    0.348770
  12 O :   -0.719488
  13 H :    0.372795
  14 H :    0.376136
  15 O :   -0.729767
  16 H :    0.332684
  17 H :    0.369181
Sum of atomic charges:   -0.0000000

--------------------------------
MULLIKEN REDUCED ORBITAL CHARGES
--------------------------------
  0 O s       :     3.810087  s :     3.810087
      pz      :     1.698677  p :     4.832284
      px      :     1.348143
      py      :     1.785464
      dz2     :     0.009467  d :     0.049457
      dxz     :     0.009274
      dyz     :     0.010903
      dx2y2   :     0.007601
      dxy     :     0.012212
      f0      :     0.000453  f :     0.004001
      f+1     :     0.000672
      f-1     :     0.000546
      f+2     :     0.000438
      f-2     :     0.000695
      f+3     :     0.000466
      f-3     :     0.000732
  1 H s       :     0.606204  s :     0.606204
      pz      :     0.017720  p :     0.047869
      px      :     0.013810
      py      :     0.016339
  2 H s       :     0.600568  s :     0.600568
      pz      :     0.012477  p :     0.043751
      px      :     0.016748
      py      :     0.014526
  3 O s       :     3.792890  s :     3.792890
      pz      :     1.555312  p :     4.844686
      px      :     1.530797
      py      :     1.758577
      dz2     :     0.016032  d :     0.050611
      dxz     :     0.006627
      dyz     :     0.008047
      dx2y2   :     0.008072
      dxy     :     0.011833
      f0      :     0.000599  f :     0.003931
      f+1     :     0.000730
      f-1     :     0.000527
      f+2     :     0.000414
      f-2     :     0.000421
      f+3     :     0.000427
      f-3     :     0.000813
  4 H s       :     0.566970  s :     0.566970
      pz      :     0.023724  p :     0.049657
      px      :     0.012269
      py      :     0.013665
  5 H s       :     0.599172  s :     0.599172
      pz      :     0.011989  p :     0.045953
      px      :     0.018001
      py      :     0.015963
  6 O s       :     3.787258  s :     3.787258
      pz      :     1.596276  p :     4.890955
      px      :     1.811571
      py      :     1.483109
      dz2     :     0.015244  d :     0.049777
      dxz     :     0.007840
      dyz     :     0.007953
      dx2y2   :     0.008797
      dxy     :     0.009942
      f0      :     0.000527  f :     0.003871
      f+1     :     0.000480
      f-1     :     0.000792
      f+2     :     0.000435
      f-2     :     0.000407
      f+3     :     0.000759
      f-3     :     0.000471
  7 H s       :     0.569688  s :     0.569688
      pz      :     0.024609  p :     0.050430
      px      :     0.014020
      py      :     0.011801
  8 H s       :     0.601631  s :     0.601631
      pz      :     0.011519  p :     0.055521
      px      :     0.016671
      py      :     0.027331
  9 O s       :     3.797828  s :     3.797828
      pz      :     1.558885  p :     4.894880
      px      :     1.481264
      py      :     1.854730
      dz2     :     0.015152  d :     0.049403
      dxz     :     0.008043
      dyz     :     0.008040
      dx2y2   :     0.008271
      dxy     :     0.009897
      f0      :     0.000540  f :     0.003904
      f+1     :     0.000782
      f-1     :     0.000484
      f+2     :     0.000440
      f-2     :     0.000405
      f+3     :     0.000478
      f-3     :     0.000776
 10 H s       :     0.595958  s :     0.595958
      pz      :     0.023304  p :     0.051115
      px      :     0.012499
      py      :     0.015312
 11 H s       :     0.594821  s :     0.594821
      pz      :     0.011415  p :     0.056409
      px      :     0.027895
      py      :     0.017099
 12 O s       :     3.803246  s :     3.803246
      pz      :     1.553467  p :     4.862561
      px      :     1.475567
      py      :     1.833526
      dz2     :     0.015070  d :     0.049729
      dxz     :     0.007709
      dyz     :     0.007886
      dx2y2   :     0.008807
      dxy     :     0.010257
      f0      :     0.000562  f :     0.003953
      f+1     :     0.000791
      f-1     :     0.000489
      f+2     :     0.000435
      f-2     :     0.000403
      f+3     :     0.000479
      f-3     :     0.000795
 13 H s       :     0.581459  s :     0.581459
      pz      :     0.018576  p :     0.045747
      px      :     0.012384
      py      :     0.014787
 14 H s       :     0.580494  s :     0.580494
      pz      :     0.010364  p :     0.043371
      px      :     0.018170
      py      :     0.014837
 15 O s       :     3.805873  s :     3.805873
      pz      :     1.683508  p :     4.871241
      px      :     1.792285
      py      :     1.395447
      dz2     :     0.009103  d :     0.048707
      dxz     :     0.010641
      dyz     :     0.009099
      dx2y2   :     0.007691
      dxy     :     0.012173
      f0      :     0.000449  f :     0.003946
      f+1     :     0.000535
      f-1     :     0.000658
      f+2     :     0.000440
      f-2     :     0.000695
      f+3     :     0.000707
      f-3     :     0.000462
 16 H s       :     0.618885  s :     0.618885
      pz      :     0.017492  p :     0.048431
      px      :     0.016493
      py      :     0.014447
 17 H s       :     0.572339  s :     0.572339
      pz      :     0.011901  p :     0.058480
      px      :     0.015444
      py      :     0.031134


                     *******************************
                     * LOEWDIN POPULATION ANALYSIS *
                     *******************************

----------------------
LOEWDIN ATOMIC CHARGES
----------------------
   0 O :   -0.313026
   1 H :    0.160163
   2 H :    0.184906
   3 O :   -0.273274
   4 H :    0.157478
   5 H :    0.174562
   6 O :   -0.322312
   7 H :    0.151355
   8 H :    0.134483
   9 O :   -0.376793
  10 H :    0.140903
  11 H :    0.135228
  12 O :   -0.279173
  13 H :    0.180046
  14 H :    0.186669
  15 O :   -0.337272
  16 H :    0.152125
  17 H :    0.143932

-------------------------------
LOEWDIN REDUCED ORBITAL CHARGES
-------------------------------
  0 O s       :     3.467775  s :     3.467775
      pz      :     1.666556  p :     4.781165
      px      :     1.351382
      py      :     1.763227
      dz2     :     0.011047  d :     0.059199
      dxz     :     0.012203
      dyz     :     0.011502
      dx2y2   :     0.009117
      dxy     :     0.015330
      f0      :     0.000479  f :     0.004887
      f+1     :     0.000868
      f-1     :     0.000659
      f+2     :     0.000410
      f-2     :     0.001021
      f+3     :     0.000478
      f-3     :     0.000972
  1 H s       :     0.673336  s :     0.673336
      pz      :     0.067945  p :     0.166501
      px      :     0.044086
      py      :     0.054470
  2 H s       :     0.663732  s :     0.663732
      pz      :     0.035041  p :     0.151362
      px      :     0.071041
      py      :     0.045281
  3 O s       :     3.450906  s :     3.450906
      pz      :     1.531674  p :     4.757674
      px      :     1.521322
      py      :     1.704679
      dz2     :     0.020981  d :     0.059753
      dxz     :     0.007081
      dyz     :     0.007461
      dx2y2   :     0.009364
      dxy     :     0.014866
      f0      :     0.000844  f :     0.004941
      f+1     :     0.000993
      f-1     :     0.000738
      f+2     :     0.000391
      f-2     :     0.000421
      f+3     :     0.000408
      f-3     :     0.001147
  4 H s       :     0.668843  s :     0.668843
      pz      :     0.093504  p :     0.173679
      px      :     0.037062
      py      :     0.043114
  5 H s       :     0.664196  s :     0.664196
      pz      :     0.032177  p :     0.161242
      px      :     0.072883
      py      :     0.056182
  6 O s       :     3.452844  s :     3.452844
      pz      :     1.572734  p :     4.807345
      px      :     1.762947
      py      :     1.471664
      dz2     :     0.018822  d :     0.057356
      dxz     :     0.006924
      dyz     :     0.008837
      dx2y2   :     0.010842
      dxy     :     0.011931
      f0      :     0.000739  f :     0.004768
      f+1     :     0.000592
      f-1     :     0.001150
      f+2     :     0.000413
      f-2     :     0.000417
      f+3     :     0.001001
      f-3     :     0.000457
  7 H s       :     0.670510  s :     0.670510
      pz      :     0.096005  p :     0.178135
      px      :     0.044025
      py      :     0.038106
  8 H s       :     0.677931  s :     0.677931
      pz      :     0.032634  p :     0.187586
      px      :     0.054413
      py      :     0.100540
  9 O s       :     3.462143  s :     3.462143
      pz      :     1.554869  p :     4.853121
      px      :     1.475300
      py      :     1.822952
      dz2     :     0.019222  d :     0.056770
      dxz     :     0.009315
      dyz     :     0.007115
      dx2y2   :     0.009519
      dxy     :     0.011598
      f0      :     0.000772  f :     0.004759
      f+1     :     0.001159
      f-1     :     0.000576
      f+2     :     0.000417
      f-2     :     0.000416
      f+3     :     0.000447
      f-3     :     0.000972
 10 H s       :     0.683729  s :     0.683729
      pz      :     0.091811  p :     0.175367
      px      :     0.038517
      py      :     0.045039
 11 H s       :     0.674876  s :     0.674876
      pz      :     0.031809  p :     0.189896
      px      :     0.103694
      py      :     0.054393
 12 O s       :     3.459401  s :     3.459401
      pz      :     1.527814  p :     4.755426
      px      :     1.456913
      py      :     1.770698
      dz2     :     0.020565  d :     0.059473
      dxz     :     0.009093
      dyz     :     0.007057
      dx2y2   :     0.010709
      dxy     :     0.012049
      f0      :     0.000789  f :     0.004873
      f+1     :     0.001175
      f-1     :     0.000600
      f+2     :     0.000414
      f-2     :     0.000415
      f+3     :     0.000453
      f-3     :     0.001027
 13 H s       :     0.658326  s :     0.658326
      pz      :     0.081325  p :     0.161629
      px      :     0.036073
      py      :     0.044231
 14 H s       :     0.655758  s :     0.655758
      pz      :     0.030165  p :     0.157573
      px      :     0.076623
      py      :     0.050785
 15 O s       :     3.459479  s :     3.459479
      pz      :     1.658526  p :     4.815378
      px      :     1.768134
      py      :     1.388718
      dz2     :     0.010390  d :     0.057603
      dxz     :     0.011486
      dyz     :     0.012158
      dx2y2   :     0.008871
      dxy     :     0.014698
      f0      :     0.000469  f :     0.004812
      f+1     :     0.000650
      f-1     :     0.000855
      f+2     :     0.000412
      f-2     :     0.001032
      f+3     :     0.000917
      f-3     :     0.000476
 16 H s       :     0.679704  s :     0.679704
      pz      :     0.066950  p :     0.168170
      px      :     0.055065
      py      :     0.046155
 17 H s       :     0.658268  s :     0.658268
      pz      :     0.034927  p :     0.197799
      px      :     0.049065
      py      :     0.113808


                      *****************************
                      * MAYER POPULATION ANALYSIS *
                      *****************************

  NA   - Mulliken gross atomic population
  ZA   - Total nuclear charge
  QA   - Mulliken gross atomic charge
  VA   - Mayer's total valence
  BVA  - Mayer's bonded valence
  FA   - Mayer's free valence

  ATOM       NA         ZA         QA         VA         BVA        FA
  0 O      8.6958     8.0000    -0.6958     2.0946     1.7109     0.3837
  1 H      0.6541     1.0000     0.3459     0.8998     0.8539     0.0460
  2 H      0.6443     1.0000     0.3557     0.8949     0.8470     0.0479
  3 O      8.6921     8.0000    -0.6921     2.1054     1.7238     0.3816
  4 H      0.6166     1.0000     0.3834     0.8861     0.8430     0.0432
  5 H      0.6451     1.0000     0.3549     0.8923     0.8458     0.0465
  6 O      8.7319     8.0000    -0.7319     2.0577     1.6700     0.3877
  7 H      0.6201     1.0000     0.3799     0.9038     0.8606     0.0432
  8 H      0.6572     1.0000     0.3428     0.9343     0.8868     0.0474
  9 O      8.7460     8.0000    -0.7460     2.0245     1.6357     0.3889
 10 H      0.6471     1.0000     0.3529     0.9131     0.8675     0.0456
 11 H      0.6512     1.0000     0.3488     0.9369     0.8904     0.0465
 12 O      8.7195     8.0000    -0.7195     2.1010     1.7157     0.3852
 13 H      0.6272     1.0000     0.3728     0.8805     0.8358     0.0446
 14 H      0.6239     1.0000     0.3761     0.8865     0.8410     0.0454
 15 O      8.7298     8.0000    -0.7298     2.0386     1.6507     0.3879
 16 H      0.6673     1.0000     0.3327     0.9097     0.8621     0.0476
 17 H      0.6308     1.0000     0.3692     0.9131     0.8678     0.0453

  Mayer bond orders larger than 0.100000
B(  0-O ,  1-H ) :   0.8451 B(  0-O ,  2-H ) :   0.8329 B(  3-O ,  4-H ) :   0.8083 
B(  3-O ,  5-H ) :   0.8389 B(  6-O ,  7-H ) :   0.7970 B(  6-O ,  8-H ) :   0.8126 
B(  9-O , 10-H ) :   0.8336 B(  9-O , 11-H ) :   0.7961 B( 12-O , 13-H ) :   0.8271 
B( 12-O , 14-H ) :   0.8144 B( 15-O , 16-H ) :   0.8528 B( 15-O , 17-H ) :   0.7663 



----------------------------------
MP2 DERIVATIVE INTEGRAL GENERATION
----------------------------------


Input Wavefunction Amplitudes       ... 12h2o.su.etal.mol0,3,4,6,7,10-orca.engrad-mp2.def2tzvp.frozencore.mp2tsaa.tmp
Input Correlated Electron Density   ... 12h2o.su.etal.mol0,3,4,6,7,10-orca.engrad-mp2.def2tzvp.frozencore.pmp2re
Input Energy Weighted Density       ... 12h2o.su.etal.mol0,3,4,6,7,10-orca.engrad-mp2.def2tzvp.frozencore.wmp2.tmp
Input SCF Electron Density          ... 12h2o.su.etal.mol0,3,4,6,7,10-orca.engrad-mp2.def2tzvp.frozencore.scfp

One-Electron Terms    ...
                        ... One-Electron Terms done
Prescreening matrices              ... done

Batch handling in the gradient evaluation:
Memory available                      ... 8000.0 MB
Memory per occupied orbital in Q2     ...   12.2 MB
Memory per occupied orbital in Q3     ...    0.1 MB
Total memory requirement per |i>      ...   12.3 MB
Max. Number of orbitals possible      ...    651
Number of orbitals treated per batch  ...     24
Number of batches to be done          ...      1
Batch   0: i=    6 ...    29

---------------------------------------
MP2 TOTAL ENERGY:     -457.923272400 Eh
---------------------------------------

The final MP2 gradient
  0:   0.02569864  -0.00785548  -0.00349392
  1:   0.00183687  -0.00216084  -0.00210227
  2:  -0.02788357   0.00853427   0.00195139
  3:  -0.00688997   0.01035598  -0.00275238
  4:   0.00120593  -0.00007023   0.00189589
  5:   0.00793116  -0.00466513   0.00147732
  6:   0.00798953   0.00665172  -0.00414374
  7:  -0.00271780   0.00175135   0.00276203
  8:  -0.00424280  -0.01513910   0.00173891
  9:   0.00298283  -0.00097914  -0.00365910
 10:   0.00404518   0.00345350   0.00674786
 11:  -0.00897059   0.00134711   0.00120472
 12:  -0.01309522   0.01328650  -0.01009522
 13:   0.00056512   0.00051513   0.00730180
 14:   0.01100556  -0.00743800  -0.00021255
 15:   0.00618898   0.00597095  -0.00177551
 16:   0.00014356   0.00111206   0.00067837
 17:  -0.00579340  -0.01467065   0.00247640

-----------------------------------
NORM OF THE MP2 GRADIENT:  0.058682
-----------------------------------

-------------------------   --------------------
FINAL SINGLE POINT ENERGY      -457.923272399575
-------------------------   --------------------


                            ***************************************
                            *     ORCA property calculations      *
                            ***************************************

                                    ---------------------
                                    Active property flags
                                    ---------------------
   (+) Dipole Moment


------------------------------------------------------------------------------
                       ORCA ELECTRIC PROPERTIES CALCULATION
------------------------------------------------------------------------------

Dipole Moment Calculation                       ... on
Quadrupole Moment Calculation                   ... off
Polarizability Calculation                      ... off
GBWName                                         ... 12h2o.su.etal.mol0,3,4,6,7,10-orca.engrad-mp2.def2tzvp.frozencore.gbw
Electron density file                           ... 12h2o.su.etal.mol0,3,4,6,7,10-orca.engrad-mp2.def2tzvp.frozencore.scfp
The origin for moment calculation is the CENTER OF MASS  = (-0.577294,  1.156041 -0.897884)

-------------
DIPOLE MOMENT
-------------
                                X             Y             Z
Electronic contribution:     -0.20270      -0.30160      -0.13570
Nuclear contribution   :     -0.98710      -0.64988       1.46039
                        -----------------------------------------
Total Dipole Moment    :     -1.18980      -0.95148       1.32469
                        -----------------------------------------
Magnitude (a.u.)       :      2.01885
Magnitude (Debye)      :      5.13150



--------------------
Rotational spectrum 
--------------------
 
Rotational constants in cm-1:     0.077501     0.026788     0.023534 
Rotational constants in MHz :  2323.412481   803.095405   705.534034 

 Dipole components along the rotational axes: 
x,y,z [a.u.] :     0.257863    -1.852612     0.759659 
x,y,z [Debye]:     0.655435    -4.708966     1.930900 

 

                         *** MP2 UNRELAXED DENSITY ***

------------------------------------------------------------------------------
                       ORCA ELECTRIC PROPERTIES CALCULATION
------------------------------------------------------------------------------

Dipole Moment Calculation                       ... on
Quadrupole Moment Calculation                   ... off
Polarizability Calculation                      ... off
GBWName                                         ... 12h2o.su.etal.mol0,3,4,6,7,10-orca.engrad-mp2.def2tzvp.frozencore.gbw
Electron density file                           ... 12h2o.su.etal.mol0,3,4,6,7,10-orca.engrad-mp2.def2tzvp.frozencore.pmp2ur
The origin for moment calculation is the CENTER OF MASS  = (-0.577294,  1.156041 -0.897884)

-------------
DIPOLE MOMENT
-------------
                                X             Y             Z
Electronic contribution:     -0.19582      -0.29885      -0.15173
Nuclear contribution   :     -0.98710      -0.64988       1.46039
                        -----------------------------------------
Total Dipole Moment    :     -1.18292      -0.94873       1.30865
                        -----------------------------------------
Magnitude (a.u.)       :      2.00299
Magnitude (Debye)      :      5.09120



--------------------
Rotational spectrum 
--------------------
 
Rotational constants in cm-1:     0.077501     0.026788     0.023534 
Rotational constants in MHz :  2323.412481   803.095405   705.534034 

 Dipole components along the rotational axes: 
x,y,z [a.u.] :     0.249171    -1.840306     0.750440 
x,y,z [Debye]:     0.633342    -4.677686     1.907468 

 

                           *** MP2 RELAXED DENSITY ***

------------------------------------------------------------------------------
                       ORCA ELECTRIC PROPERTIES CALCULATION
------------------------------------------------------------------------------

Dipole Moment Calculation                       ... on
Quadrupole Moment Calculation                   ... off
Polarizability Calculation                      ... off
GBWName                                         ... 12h2o.su.etal.mol0,3,4,6,7,10-orca.engrad-mp2.def2tzvp.frozencore.gbw
Electron density file                           ... 12h2o.su.etal.mol0,3,4,6,7,10-orca.engrad-mp2.def2tzvp.frozencore.pmp2re
The origin for moment calculation is the CENTER OF MASS  = (-0.577294,  1.156041 -0.897884)

-------------
DIPOLE MOMENT
-------------
                                X             Y             Z
Electronic contribution:     -0.19822      -0.31105      -0.18225
Nuclear contribution   :     -0.98710      -0.64988       1.46039
                        -----------------------------------------
Total Dipole Moment    :     -1.18533      -0.96093       1.27813
                        -----------------------------------------
Magnitude (a.u.)       :      1.99048
Magnitude (Debye)      :      5.05941



--------------------
Rotational spectrum 
--------------------
 
Rotational constants in cm-1:     0.077501     0.026788     0.023534 
Rotational constants in MHz :  2323.412481   803.095405   705.534034 

 Dipole components along the rotational axes: 
x,y,z [a.u.] :     0.221232    -1.837240     0.733233 
x,y,z [Debye]:     0.562326    -4.669892     1.863731 

 

Timings for individual modules:

Sum of individual times         ...       84.070 sec (=   1.401 min)
GTO integral calculation        ...        1.108 sec (=   0.018 min)   1.3 %
SCF iterations                  ...       28.094 sec (=   0.468 min)  33.4 %
MP2 module                      ...       54.867 sec (=   0.914 min)  65.3 %
                             ****ORCA TERMINATED NORMALLY****
TOTAL RUN TIME: 0 days 0 hours 1 minutes 30 seconds 668 msec
