60
Energy:   -252.52107076
    C     -4.11186913     -0.60264711      0.67171224
    H     -4.92789321     -0.31926945      1.30314076
    H     -3.23313673     -0.74292104      1.26589377
    H     -4.35119100     -1.51571886      0.16780340
    C     -3.85767717      0.50553322     -0.36699985
    N     -3.66841970      1.33062385     -1.14036821
    C     -0.38300838     -1.41001934      1.84584598
    H     -0.84677340     -0.95499614      2.69600836
    H      0.57492824     -1.79575585      2.12596003
    H     -0.99867872     -2.20895712      1.48870800
    C     -0.20814069     -0.35986533      0.73310260
    N     -0.07794375      0.42202207     -0.09538543
    C      2.86611806      2.42383211     -0.71158948
    H      3.74112403      2.42732962     -0.09575467
    H      3.12635704      2.73153260     -1.70279843
    H      2.45466962      1.43654311     -0.74107992
    C      1.82439033      3.39689949     -0.12888611
    N      1.04877669      4.12139238      0.30496303
    C     -1.76762939     -0.71749370     -3.23269417
    H     -1.46855497     -0.24243254     -2.32177619
    H     -2.74139487     -1.14359009     -3.10972365
    H     -1.79171305      0.00571700     -4.02091074
    C     -0.76191439     -1.82885110     -3.58627874
    N     -0.01311386     -2.65630721     -3.84953852
    C      2.46830111     -1.26260270     -2.01455658
    H      2.60467189     -1.73358166     -2.96559917
    H      3.37483970     -0.77304752     -1.72572690
    H      1.68011370     -0.54220832     -2.08305214
    C      2.10169122     -2.32616987     -0.96288074
    N      1.82873349     -3.11804397     -0.17986028
    C      1.24238216      2.16766333      3.21475852
    H      0.72102888      2.01933575      2.29221320
    H      2.22857725      2.53033531      3.01279971
    H      0.71491574      2.88208269      3.81165320
    C      1.33251493      0.83093541      3.97412310
    N      1.39962287     -0.16431928      4.53950455
    C     -0.60186141     -5.10113200     -1.33412821
    H      0.02481234     -4.81424358     -2.15258726
    H     -1.17638794     -5.96090028     -1.60911340
    H      0.00545679     -5.33475365     -0.48472570
    C     -1.55100035     -3.94037064     -0.98288990
    N     -2.25767743     -3.07613105     -0.72137702
    C     -1.00205711      3.02730573     -2.31691296
    H     -1.13747215      2.63535033     -1.33053883
    H     -1.91036881      2.91822314     -2.87186335
    H     -0.74332833      4.06379041     -2.25643146
    C      0.12775514      2.25666137     -3.02489005
    N      0.96895172      1.68288162     -3.55201117
    C     -2.42348222      3.82408464      1.21472302
    H     -1.47193876      4.30674776      1.13409091
    H     -3.11396990      4.47684456      1.70668881
    H     -2.78879823      3.59019723      0.23659216
    C     -2.27342516      2.52654496      2.03048870
    N     -2.16170086      1.56046769      2.63786334
    C      3.58275204     -2.35285716      2.82573867
    H      4.60574284     -2.62564872      2.98057655
    H      3.08070598     -3.13636671      2.29757049
    H      3.10747490     -2.19909974      3.77197828
    C      3.51702470     -1.05386660      2.00117609
    N      3.46808771     -0.08670908      1.38725177
