60
Energy:   -252.47188376
    C      2.98620005      2.20296114     -3.17848435
    H      3.92176746      1.83354416     -3.54337461
    H      2.85311611      3.21522832     -3.49864512
    H      2.19027716      1.59979989     -3.56267485
    C      2.97675773      2.14583864     -1.63957309
    N      2.96972749      2.10330833     -0.49378371
    C      0.82096546     -3.30424082      2.66794209
    H      1.85742264     -3.27353853      2.40390790
    H      0.22932890     -3.39183838      1.78070371
    H      0.63932146     -4.14650975      3.30236119
    C      0.44218716     -2.01011421      3.41182604
    N      0.16016950     -1.04657813      3.96568145
    C      2.68492358      1.49242774      3.10038228
    H      2.37603504      2.13562830      2.30302346
    H      3.50240245      1.94160662      3.62465866
    H      1.86781584      1.34273128      3.77478944
    C      3.12895878      0.13566652      2.52277366
    N      3.45956318     -0.87450389      2.09271779
    C      3.88272167     -1.49707743     -1.26253892
    H      4.86913369     -1.91095042     -1.28704712
    H      3.85746600     -0.67574975     -0.57720536
    H      3.61542053     -1.15415534     -2.24021659
    C      2.88408709     -2.57706097     -0.80650765
    N      2.14055825     -3.38115781     -0.46697164
    C     -4.67335125     -1.38894975      0.35497890
    H     -4.71713863     -0.33400752      0.52841404
    H     -5.43337959     -1.87661604      0.92894547
    H     -4.82997201     -1.58624260     -0.68494636
    C     -3.29103824     -1.92144976      0.77599491
    N     -2.26184337     -2.31792022      1.08946046
    C     -0.82445415     -3.47859683     -2.03710319
    H     -0.65309527     -3.42010556     -0.98253452
    H      0.02112638     -3.08098236     -2.55844320
    H     -0.96886615     -4.50068883     -2.31883392
    C     -2.08024359     -2.66399825     -2.39907286
    N     -3.01523591     -2.05749259     -2.66857573
    C     -2.58545854      1.21478347     -3.15632356
    H     -3.42743477      0.67630838     -3.53845022
    H     -1.68486408      0.69641878     -3.41152302
    H     -2.56566913      2.19565233     -3.58341106
    C     -2.69830713      1.32412498     -1.62436088
    N     -2.78232803      1.40553471     -0.48374504
    C     -2.55482130      0.87123106      3.05942860
    H     -2.19261124     -0.13013310      2.95467240
    H     -3.26979180      1.07425367      2.28968963
    H     -3.01950716      0.98412526      4.01662296
    C     -1.37830759      1.85776463      2.94040339
    N     -0.50233965      2.59228372      2.85178371
    C      0.27915812     -0.02722112      0.35534699
    H      0.82260402     -0.79684296      0.86254415
    H     -0.76056555     -0.10761422      0.59495233
    H      0.64354723      0.92999399      0.66495785
    C      0.46897955     -0.18150953     -1.16510128
    N      0.61031023     -0.29638426     -2.29714412
    C     -0.18269114      3.99586087     -0.10723308
    H     -0.12356572      5.04850767      0.07535689
    H      0.64100298      3.50473004      0.36733788
    H     -1.10100717      3.61608455      0.28945913
    C     -0.13160264      3.73429119     -1.62399650
    N     -0.09356494      3.53954068     -2.75329580
