60
Energy:   -251.78268727
    C     -2.78226566     -1.72627584     -0.48704688
    H     -3.14650300     -2.69003401     -0.77584010
    H     -1.79770074     -1.58427800     -0.88121386
    H     -3.43308494     -0.96906072     -0.87170079
    C     -2.73838035     -1.63337881      1.04952210
    N     -2.70570574     -1.56421274      2.19356754
    C     -0.77804565      3.68999153     -0.46065122
    H     -1.76072342      3.97322285     -0.77533295
    H     -0.53488668      2.73166184     -0.86976855
    H     -0.07041923      4.41486332     -0.80521594
    C     -0.73214436      3.61835492      1.07699675
    N     -0.69796876      3.56501821      2.22184555
    C     -0.53715969      0.53228669      3.67097110
    H     -0.33821723      1.44765172      4.18810642
    H     -1.19170337     -0.07531205      4.26028887
    H     -1.00027789      0.74725502      2.73064709
    C      0.78511184     -0.22006175      3.43186899
    N      1.76960311     -0.78021936      3.25384660
    C      2.69202209      2.41633918      1.83706014
    H      1.72618082      2.07049576      1.53301548
    H      2.77722250      3.46288304      1.63118169
    H      2.81717720      2.24789463      2.88627972
    C      3.77935875      1.65028723      1.06087499
    N      4.58893032      1.07992673      0.48296986
    C     -3.90528399      1.82634386      2.45358982
    H     -3.13942847      2.43237186      2.89073460
    H     -3.85128569      0.83699580      2.85753746
    H     -4.86339099      2.24928966      2.67278584
    C     -3.70630238      1.76931228      0.92756435
    N     -3.55815153      1.72684968     -0.20863097
    C      0.09255686     -3.76750351      2.81475151
    H     -0.59707621     -3.04915242      3.20625901
    H      1.08696028     -3.50502660      3.10999177
    H     -0.14831219     -4.73781283      3.19604014
    C      0.00058661     -3.78264257      1.27757479
    N     -0.06788943     -3.79391430      0.13307685
    C      4.01874154      1.33822327     -3.01317745
    H      4.51086556      1.96284865     -3.72910851
    H      3.58168134      0.49899335     -3.51274789
    H      4.73006221      0.99328610     -2.29210857
    C      2.91571881      2.14354651     -2.30156285
    N      2.09446825      2.74314626     -1.77173343
    C     -1.38069469      0.78696679     -3.05797048
    H     -2.15266171      0.22603156     -3.54203532
    H     -1.35746825      1.77956868     -3.45684530
    H     -1.57630261      0.82945254     -2.00686078
    C     -0.02153638      0.10454058     -3.30001003
    N      0.99041876     -0.40355676     -3.48021948
    C      0.29187266     -3.89310369     -3.26254787
    H      0.19698170     -4.64911203     -2.51131736
    H      1.01922154     -3.17197600     -2.95297146
    H      0.60353173     -4.34168369     -4.18262596
    C     -1.06695248     -3.19728051     -3.46509253
    N     -2.07865956     -2.67920852     -3.61589624
    C      2.20037794     -1.23719582     -0.34872257
    H      1.90242808     -2.14578885     -0.82891498
    H      2.71082168     -1.46654814      0.56327732
    H      2.85394222     -0.68976637     -0.99530886
    C      0.95389939     -0.38729280     -0.03960108
    N      0.02583946      0.24549862      0.19055392
