60
Energy:   -251.74988757
    C      0.09730258     -0.02966053     -3.07584876
    H      0.06760527      0.51819918     -3.99447164
    H      0.77444683     -0.85242345     -3.17298750
    H      0.42838006      0.61358601     -2.28748293
    C     -1.31104363     -0.55980052     -2.74856822
    N     -2.35962140     -0.95451384     -2.50489299
    C      2.09851244     -3.84728100      1.60057294
    H      2.50743094     -4.67097403      2.14757901
    H      2.62304262     -2.95141624      1.85979005
    H      2.20122575     -4.02979971      0.55127032
    C      0.60721111     -3.68846355      1.95042625
    N     -0.50313053     -3.57021674      2.21090794
    C      3.36416209     -1.36107260     -0.88165250
    H      3.53806738     -2.00430768     -1.71885365
    H      2.44567880     -1.63510428     -0.40605374
    H      4.16974047     -1.45786446     -0.18410401
    C      3.27636698      0.09841637     -1.36516462
    N      3.21099953      1.18507224     -1.72516137
    C      2.24859155      1.94254689      1.67089133
    H      3.08463918      2.58547271      1.49041713
    H      1.61639531      2.37996587      2.41513029
    H      1.69549616      1.81363314      0.76404744
    C      2.75124274      0.57319495      2.16466967
    N      3.12548940     -0.44634981      2.53231009
    C     -2.38746370     -0.72432997      1.19087145
    H     -2.47145545     -1.58070932      1.82684314
    H     -3.03841233     -0.83965772      0.34952463
    H     -2.66251620      0.15378634      1.73690895
    C     -0.93382635     -0.58962898      0.70057143
    N      0.14847272     -0.48933796      0.33552077
    C      1.87419884      4.07912903     -2.61893565
    H      2.90257524      3.86429662     -2.82188691
    H      1.55074637      4.89075633     -3.23662384
    H      1.28101316      3.21347592     -2.82792019
    C      1.71337902      4.46608455     -1.13704416
    N      1.59364135      4.75419052     -0.03370858
    C     -4.54281698      1.59012745     -2.69493854
    H     -4.71213859      0.59084783     -3.03797005
    H     -3.60671968      1.94355486     -3.07402956
    H     -5.33093421      2.22490371     -3.04254382
    C     -4.51210108      1.60606858     -1.15532742
    N     -4.48923170      1.61793747     -0.00901695
    C      0.40938459     -1.32931692      4.74074970
    H      1.30294087     -1.61764481      4.22759828
    H     -0.32720876     -2.09800072      4.63372378
    H      0.62518324     -1.18414139      5.77865822
    C     -0.12711441     -0.01695215      4.13952799
    N     -0.52656230      0.96016307      3.69189110
    C     -1.73368381     -3.97359164     -1.06658823
    H     -2.39656160     -3.68112381     -1.85396094
    H     -1.97337590     -3.42845838     -0.17761324
    H     -1.84023077     -5.02208924     -0.88165682
    C     -0.28130730     -3.67005777     -1.47898327
    N      0.80005303     -3.44406301     -1.78603013
    C     -1.35668267      3.07485856      0.90400565
    H     -0.77715015      2.30368458      1.36696668
    H     -2.36865591      3.01475965      1.24634666
    H     -0.94930452      4.03026579      1.16118101
    C     -1.32061125      2.89619761     -0.62517032
    N     -1.29375443      2.76317641     -1.76371133
