60
Energy:   -251.70123784
    C      2.55606198     -1.53884833     -3.97148075
    H      1.52658018     -1.24927003     -4.00629175
    H      2.64537730     -2.47867595     -3.46784803
    H      2.93458679     -1.63084893     -4.96805184
    C      3.36440759     -0.47056142     -3.21191479
    N      3.96625764      0.32482675     -2.64638342
    C      0.13773049     -4.11367197      2.14302614
    H      0.21372056     -5.14551579      2.41583381
    H     -0.08466430     -3.53042470      3.01208440
    H      1.06550254     -3.78681712      1.72195129
    C     -0.98685636     -3.93845463      1.10562395
    N     -1.82416239     -3.80799735      0.33323087
    C      0.31095832      0.68363440      3.94136215
    H     -0.43811490      0.88214716      3.20353955
    H      0.90164850      1.56242461      4.09534904
    H     -0.15937861      0.40436608      4.86097699
    C      1.21584668     -0.46494097      3.45809032
    N      1.88957720     -1.32010755      3.09827248
    C      4.19502337     -0.26592448      0.66871419
    H      4.34449717     -0.78193060      1.59407653
    H      5.13138027      0.11406001      0.31693778
    H      3.78978431     -0.94176453     -0.05510943
    C      3.21547843      0.90255151      0.88494454
    N      2.48616270      1.77253501      1.04593787
    C     -4.12141326     -1.32836783      1.57538066
    H     -5.05683035     -1.44724051      2.08111215
    H     -4.01965247     -2.08936388      0.83010967
    H     -4.08778138     -0.36584282      1.10921160
    C     -2.96997408     -1.44733129      2.59107526
    N     -2.11267527     -1.53590499      3.34730606
    C     -1.67515801     -2.38638490     -2.94075368
    H     -1.37470128     -3.16859675     -2.27534362
    H     -0.82737127     -1.78132541     -3.18582461
    H     -2.07857262     -2.81399065     -3.83479454
    C     -2.74715668     -1.51598375     -2.25897609
    N     -3.54530842     -0.86793053     -1.75136168
    C     -0.21943138     -0.46975419      0.24395278
    H     -1.09537228     -0.37346820     -0.36297122
    H      0.25459184      0.48469241      0.34004002
    H     -0.49480850     -0.83039116      1.21297678
    C      0.75536853     -1.46297778     -0.41549549
    N      1.48115138     -2.20247789     -0.90648470
    C     -3.03523326      2.39940926     -1.26880602
    H     -4.06030760      2.13701412     -1.42777638
    H     -2.41431472      1.82533597     -1.92439667
    H     -2.89852182      3.44145480     -1.46967953
    C     -2.65031263      2.10353137      0.19266324
    N     -2.36372173      1.88323684      1.28079353
    C      1.68773667      2.90482356     -2.37358899
    H      2.58961019      2.75610924     -2.92983388
    H      1.91652977      2.95311037     -1.32945241
    H      1.22634016      3.82020768     -2.68032059
    C      0.72448629      1.73189319     -2.63432456
    N      0.00730260      0.85859321     -2.82845404
    C      0.28908612      4.15855899      1.89443715
    H     -0.17184131      4.84428509      2.57430904
    H      1.35302030      4.24982862      1.96235634
    H      0.00010953      3.15927410      2.14507901
    C     -0.16288334      4.47848975      0.45743753
    N     -0.49939516      4.71669275     -0.61247400
