60
Energy:   -251.69177094
    C      2.44961509      1.93010113     -3.17996202
    H      1.87914167      1.09016862     -3.51756184
    H      3.42218955      1.90286790     -3.62522191
    H      1.95331120      2.83502104     -3.46227654
    C      2.58519703      1.87576324     -1.64690464
    N      2.68614394      1.83530621     -0.50547373
    C      0.58798107     -3.99184715      2.30665306
    H      0.47428903     -4.49584633      1.36965832
    H      0.67725056     -4.71371754      3.09140346
    H      1.46775687     -3.38342314      2.27993512
    C     -0.64309042     -3.10318552      2.56422541
    N     -1.55967909     -2.44153655      2.75599974
    C      3.28231993      1.61453032      2.77809263
    H      4.10106124      1.56036306      2.09134030
    H      3.64490195      1.89958735      3.74358518
    H      2.57554037      2.34041837      2.43392946
    C      2.59933044      0.23748305      2.87225293
    N      2.09081371     -0.78779123      2.94235955
    C      2.85250561     -1.75449652     -0.29141194
    H      3.23976683     -0.84557440      0.11942807
    H      3.46828195     -2.57463966      0.01368444
    H      1.85382562     -1.90801651      0.06068037
    C      2.84623393     -1.66131766     -1.82857764
    N      2.84156438     -1.59194177     -2.97306737
    C     -3.49270416     -1.65760799     -0.04893343
    H     -3.54838724     -0.68385961      0.39108211
    H     -2.56547030     -2.11842085      0.22085901
    H     -4.30522118     -2.25645598      0.30616692
    C     -3.57766880     -1.53395802     -1.58160812
    N     -3.64092884     -1.44189500     -2.72275409
    C     -0.50799005     -2.79418285     -3.59669463
    H      0.47003262     -2.73131428     -4.02613539
    H     -1.02494767     -1.86998895     -3.75005546
    H     -1.05194741     -3.58879465     -4.06317248
    C     -0.38868690     -3.07116846     -2.08651394
    N     -0.29986027     -3.27739683     -0.96211577
    C     -3.00733478      2.06694139     -3.16063451
    H     -1.97108702      2.05543211     -3.42701452
    H     -3.45846128      2.96746271     -3.52180666
    H     -3.49741287      1.22225428     -3.59792874
    C     -3.14412614      2.00314652     -1.62804900
    N     -3.24597352      1.95564833     -0.48696943
    C     -1.11846310      0.24594502      4.69933110
    H     -0.43052574     -0.57293864      4.66659086
    H     -2.02137944     -0.02633590      4.19385680
    H     -1.33877626      0.48615664      5.71847760
    C     -0.49196669      1.47068334      4.00714738
    N     -0.02551163      2.38255668      3.49178514
    C     -0.35388830      0.22290208      0.66895998
    H     -1.32129741      0.52804486      1.00941215
    H      0.38499979      0.90329729      1.03774966
    H     -0.14322450     -0.76222858      1.02956703
    C     -0.32818722      0.22231582     -0.87082543
    N     -0.30905159      0.22187932     -2.01726566
    C     -0.27941677      3.90565902      0.47802794
    H     -1.13629584      3.34989613      0.79706721
    H     -0.32989204      4.89802833      0.87495929
    H      0.60905820      3.42510503      0.83098571
    C     -0.25224453      3.96891078     -1.06043262
    N     -0.23201356      4.01600459     -2.20588643
