60
Energy:   -251.67481095
    C      3.03373637      1.05314620     -3.07640014
    H      2.80873013      0.06138883     -3.40910075
    H      3.89769573      1.41536916     -3.59337968
    H      2.20174253      1.69470792     -3.27909178
    C      3.31157118      1.03583581     -1.56176878
    N      3.51843183      1.02294745     -0.43405689
    C      0.24583049     -3.33841286      3.19409380
    H      0.60357893     -3.66365839      2.23956167
    H     -0.18700830     -4.16733576      3.71412889
    H      1.06067142     -2.94514874      3.76530014
    C     -0.81885924     -2.24327750      2.99733423
    N     -1.61156915     -1.42789946      2.85083779
    C      2.80467430      2.01108176      2.69401049
    H      3.86010307      2.14472089      2.57950775
    H      2.46234339      2.57866427      3.53398592
    H      2.30466907      2.34627805      1.80939910
    C      2.49797964      0.51941204      2.92305165
    N      2.26963153     -0.59120386      3.09358320
    C      3.16748924     -2.41496627      0.38391111
    H      2.16630047     -2.43456426      0.76092191
    H      3.65080393     -1.51487054      0.70192631
    H      3.70612745     -3.26039262      0.75810659
    C      3.13760437     -2.46544297     -1.15497127
    N      3.11535373     -2.50302516     -2.30073916
    C     -3.34164613     -1.66062654      0.00566119
    H     -3.02468656     -0.69650174      0.34463048
    H     -2.65771661     -2.40479047      0.35688695
    H     -4.32032696     -1.86814194      0.38516124
    C     -3.37360951     -1.67853874     -1.53390287
    N     -3.39740770     -1.69187519     -2.68017830
    C     -0.25739830     -3.59353329     -3.02464330
    H      0.71847331     -3.37388418     -3.40454995
    H     -0.95549716     -2.87305517     -3.39675665
    H     -0.55166798     -4.57216263     -3.34180109
    C     -0.23365499     -3.53811894     -1.48582378
    N     -0.21597702     -3.49686044     -0.34010271
    C     -2.41226432      1.78842658     -3.22792363
    H     -2.52669739      0.77588207     -3.55435720
    H     -1.41219268      2.11515695     -3.42286736
    H     -3.10116895      2.41361418     -3.75655392
    C     -2.69541466      1.87568363     -1.71669496
    N     -2.90623296      1.94065046     -0.59151653
    C     -2.96464765      1.58377432      2.94228975
    H     -3.66137476      2.38039242      3.09999555
    H     -3.02379531      0.89182700      3.75629807
    H     -3.19986933      1.07996142      2.02810026
    C     -1.53820708      2.15824164      2.85949711
    N     -0.47615724      2.58595866      2.79785423
    C      0.13089334      0.16899548      0.27108411
    H     -0.85561636      0.35606435      0.64081918
    H      0.74675415      1.02579061      0.44861348
    H      0.54573690     -0.67898356      0.77480571
    C      0.06728596     -0.11293290     -1.24155282
    N      0.01992737     -0.32284140     -2.36777977
    C     -0.63102665      4.70533037      0.23257603
    H     -1.55843275      4.24048855      0.49475951
    H     -0.81934517      5.68764930     -0.14753547
    H     -0.00772058      4.77187020      1.09973292
    C      0.07768922      3.86478107     -0.84575541
    N      0.60536040      3.23895391     -1.64862218
