53
Energy:  -1376.35004591
O   -3.07159575   0.85973988   0.71409091
H   -3.13330208  -0.00443511   1.12106238
H   -2.13773809   0.97667720   0.53954178
O   -2.93383648  -1.71232141   1.66315442
H   -2.11118665  -1.60048385   2.13956966
H   -2.68272388  -2.15116781   0.85038868
O   -2.95255411  -0.43381432  -1.79779038
H   -2.05083356  -0.20546415  -2.02359582
H   -3.14639810   0.09260955  -1.02220398
O    3.01938296  -1.09432982  -2.43280037
H    2.71278679  -0.40165172  -1.84762716
H    2.27564845  -1.26761138  -3.00991763
O    0.67285538  -1.65794489  -3.73201224
H    0.27596199  -0.96994389  -3.19781928
H    0.47733888  -2.46898624  -3.26273932
O    0.23452570  -3.85296927  -2.11921902
H   -0.55038909  -3.53146916  -1.67562200
H    0.95454799  -3.61620906  -1.53462997
O   -0.06084814   1.39199062   2.92809144
H    0.89132550   1.45642248   3.00188668
H   -0.22248782   1.28962924   1.99020733
O    2.28127424  -2.87757357  -0.48258780
H    1.53403384  -2.36075004  -0.18132866
H    2.67890306  -2.34542857  -1.17175025
O    3.40593169  -0.69910348   1.10599734
H    2.91244493  -0.17851972   0.47220303
H    3.20053417  -1.60694562   0.88268961
O    2.66930737   1.51328570   2.66752746
H    2.95403582   0.68779009   2.27545788
H    2.56440894   2.10807751   1.92493007
O    2.21845265   3.00100820   0.40028762
H    1.34130419   3.38027150   0.34549911
H    2.14696961   2.16377054  -0.05813918
O   -0.92083647   2.74985950  -2.59664412
H   -0.83364618   3.12631081  -1.72090779
H   -0.70129898   1.82509717  -2.48328729
O   -2.28796059   3.02724240   2.36443959
H   -1.52083084   2.57972771   2.72147517
H   -2.72233595   2.36604226   1.82558499
O   -0.43538801  -1.34520207   2.69136538
H   -0.29970538  -0.42502925   2.91742744
H   -0.12650074  -1.41854514   1.78834749
O   -1.89224094  -2.70194427  -0.69745371
H   -1.10765590  -2.25994659  -0.37295993
H   -2.35018706  -2.03408186  -1.20782319
O   -0.55008279   3.67299465   0.17501148
H   -0.48481922   2.71810676   0.18772503
H   -1.17903475   3.87978013   0.86630812
S    0.30998975   0.09978552  -0.54062444
O    1.73903771   0.51441951  -0.61808788
O   -0.28158376   0.09838669  -1.90815464
O    0.22088438  -1.26933548   0.04046757
O   -0.43837933   1.05567135   0.32327717
