756
 energy: -1119.751594728844 gnorm: 0.001817763571 xtb: 6.4.1 (afa7bdf)
O        -4.74941530744028    3.55970580388358    6.74197517681066
H        -3.93332859254573    4.06511681736994    6.90146895464159
H        -4.54764870713240    2.67332970305542    7.08132140634496
O        -4.19634913275829   -4.75053979127911    1.00773421605338
H        -3.27032050213363   -4.80575139978593    1.29921024883233
H        -4.37565418936747   -5.59308215410319    0.55453398997556
O         0.83651400706798   -1.83680119490448   -1.87311702794039
H         0.98161692048982   -1.48202968307452   -2.75633030233387
H         0.13246524815271   -1.31045078381118   -1.45908528847761
O        -2.22191266095449    7.31628664785475    1.99757239370586
H        -2.84515126866762    6.67227803324780    2.38322191482211
H        -1.93830621831129    6.91729952940297    1.15489654537581
O         8.19588131510579   -1.76034315431846   -1.15923291087182
H         9.03274099023395   -1.25999561362351   -1.25418456064655
H         7.59557142688978   -1.13408078332792   -0.70567806873349
O        -1.52531391186645   -5.06587344805185    1.56167101627449
H        -1.17289432999941   -5.78373354205781    1.00680384817301
H        -1.17613625236280   -4.22932441230893    1.15422271496315
O        -0.46939957946043   -2.94953121169560    0.46854262789101
H         0.43491255702647   -2.86859550141271    0.82808742647852
H        -0.35704890774046   -3.23542403528535   -0.45064260161899
O        -5.65241185670375   -5.41220908794234   -6.61295868949618
H        -5.55168197860676   -5.25862102625728   -5.66211076895168
H        -4.76974495111573   -5.32387036209059   -7.00326405858246
O        -3.02438629539457    4.92750343759541   -7.04591164339677
H        -3.01319351011937    4.95041989126268   -8.01079973986801
H        -2.30112183721311    4.30980551077112   -6.81714261283145
O         6.96160486433159   -4.30767196378589    8.47367628802262
H         6.50901470477684   -4.53130895410689    7.62906191656355
H         7.59247458104436   -5.01071057412866    8.63021422561379
O         2.82118865431893   -4.06883619372382   -4.54738093198773
H         3.24801485034739   -3.93459574410406   -5.41251417681147
H         3.45781218037215   -4.62747754097676   -4.05915867090863
O         1.26996556171449   -0.05542396382382    0.49967915735082
H         1.49439825051209   -0.94960122271809    0.77182915709667
H         0.34731656439443   -0.08247666345186    0.19636279871974
O         0.76317469217002    7.25866051214465   -7.27583237323354
H         1.18344831268796    8.05443515403617   -7.60481928587422
H         0.09712775618141    7.55183052029949   -6.62152946943571
O         1.68979453622967   -1.59237168155317   -4.51503820266903
H         1.87846672944392   -1.51189095749622   -5.46933078083193
H         2.07528016915771   -2.45588342184379   -4.28512371168081
O         2.89856578947690   -8.73524366225051   -0.08686939305515
H         2.23010982366006   -8.92421195270957    0.59616806498913
H         3.75891295234499   -9.06446824031135    0.22425519727926
O         2.04452860886888   -2.74055812315836    1.42607785741376
H         2.27451322368028   -3.52692913917606    1.95442213585180
H         2.71148058041772   -2.66977670197016    0.72893128804944
O        -4.49430001321843   -7.25718769305943   -0.06919693770195
H        -4.02721873879989   -7.70931311518112    0.65305798416626
H        -3.81821740387544   -6.95758759586249   -0.70626493893958
O        -0.69878664430702  -10.73690403207294    0.15293192726197
H        -0.82726934705509  -10.19587615138616   -0.64702383865478
H        -1.59188736735901  -10.91086657903099    0.50611450988398
O        -1.12592844097992   -0.25294666138839   -0.76522337495008
H        -1.93847558392603   -0.31148950328705   -0.23326789264726
H        -1.42590563104745    0.01861919433848   -1.65543927339766
O        -0.04250913430838   -5.17898368806737    3.77172677963005
H        -0.25893638960014   -4.42888578210618    4.34373159366659
H        -0.64009289646333   -5.14053927841153    2.98953010559616
O         4.78368088852262   -8.01734985690500   -4.66194241196698
H         5.12235705805803   -8.45979458252960   -3.87545393062368
H         4.74026755887544   -7.08450329854075   -4.39305181717883
O        -1.80581658318387    6.20584850376490   -0.48232668577512
H        -1.94408019330466    5.24751323224288   -0.64817402887023
H        -2.61578452741067    6.64083852485919   -0.79759888247911
O         9.00216533881179    1.47240250418724    0.67503737977388
H         8.20998465159337    0.91322660572332    0.57688437805625
H         8.68285956930581    2.25228614470226    1.14648397165534
O         0.33199919171346   -7.15047148254001   -5.41158960687063
H         0.97763255518934   -7.85679984685310   -5.59787781438519
H         0.47368431906411   -6.46865524727864   -6.07534587323585
O        -6.18383141587090   -1.83361565140584   -4.25039744831161
H        -5.39267303056173   -2.25393302222327   -4.64641049585722
H        -6.59193148403135   -1.27002828030184   -4.92340351278550
O        -1.91194238781472    0.34622586500765   -3.24763465239334
H        -1.61145635791833   -0.34870252539418   -3.86958526840500
H        -2.88552413129699    0.33777255604177   -3.29319223503683
O         1.94719783112805   -2.20325719329199   -7.10290947573920
H         1.40597615154400   -3.00984261122464   -6.92281576292193
H         2.84680649536835   -2.52619947625113   -7.23679168673088
O         6.32630592646087   -6.93522438445216    1.81404831641298
H         6.03554850868691   -7.15969650142784    2.71191854226389
H         6.06837697060118   -6.00496596742030    1.63306717807499
O         6.59258000092289    2.12829872715086    7.29579048125257
H         6.41958714803972    3.07220159520743    7.41849111535585
H         6.17150705923921    1.68294463118646    8.05657261301408
O        -6.83635573328089   -3.08246667559078   -7.07328333663951
H        -6.90603604963751   -2.82302750730690   -6.14842495664242
H        -6.52505596589933   -4.01715309800539   -7.03686644087700
O        -4.48771138346571   -2.27782841887625   -8.07715493480860
H        -5.42695663256813   -2.45247246145213   -7.83979011454920
H        -4.35397653960704   -1.31738394033323   -8.06868547832385
O         1.25948319277151   -4.17309862436176    7.53069411155785
H         0.53278831354939   -4.20996254816048    8.18492078772686
H         0.84207733552718   -3.92565057631058    6.69826831775505
O         5.97897668830871    1.26027500512986   -2.30085961912085
H         6.60187608050942    2.00869740620966   -2.41101780700667
H         6.37646389368732    0.51112792856804   -2.78352605146828
O        -9.01777212532374    1.69570830737601    2.04732997311584
H        -8.66006096666656    2.23140439073224    1.32184759788928
H        -8.23269745226105    1.41404870048816    2.55064784269014
O        -3.67563413954220   -0.77964879258747    9.58409482187462
H        -2.72968364009191   -0.96047186905223    9.68604332059580
H        -3.73379028886953    0.02225367790437    9.04318787771431
O        -0.29967884200849    8.34686178638672    3.44816658600496
H        -0.28810255793571    9.22004365212981    3.05374212217380
H        -1.01266038502579    7.85802657302168    2.95396632642983
O         5.66589109805072   -7.98193892863850   -1.95007824121621
H         5.83362456547467   -8.58728872593508   -1.21910454155522
H         5.21262482179872   -7.22465360028033   -1.54212209102887
O        -5.34228975798875   -2.11971461105123    0.49887974417980
H        -5.39663484600326   -2.41514601081509    1.41948560832053
H        -6.11887793876218   -1.55930221230726    0.33283846579811
O        -5.84619235557309    3.60490994460517    2.43007283046828
H        -5.01048042367287    4.08920601559241    2.30687693838997
H        -6.19902677449659    3.99631750404664    3.25032547974964
O         5.72468966920659    4.82005887602509    7.40969632428432
H         5.63008315925306    5.68133602292576    7.85136065916679
H         5.90475316995021    5.05310039131824    6.47694986859124
O         0.67974158702337   -4.40558076666576   -6.30327275799367
H        -0.24675938938580   -4.40197031889353   -5.97981619603262
H         1.24494762490220   -4.49208881323942   -5.52176920246117
O        -1.91865873509579   -4.53508093642029   -5.66605379888957
H        -2.27450671872587   -4.71530946850469   -6.54882267493251
H        -2.23181560484665   -5.29061573529296   -5.10953239981462
O        -3.87346415707668    5.38583410507557    3.01854422375698
H        -4.53179593118340    5.62037101223421    3.68295548678438
H        -3.11690542457239    4.99800024816636    3.53176089287327
O         8.32092051757888   -1.68112879594879    3.20996383694995
H         9.21290761718530   -1.56528237747987    3.54086573675151
H         7.93027458872609   -0.78130716625705    3.14637967257625
O         4.87986986311380   -5.45901322638202   -3.61128571610001
H         5.49164939959817   -5.18034630788842   -4.31557897520478
H         5.38209997841815   -5.34532350566785   -2.77866590179089
O         2.33251726586779    7.63380256300850    4.06430200440987
H         2.26068138488800    6.73086600571737    4.42612123786204
H         1.42625512771043    7.89335477030887    3.83420251146405
O        -7.73463393842142   -3.77650672192602    4.05122430743168
H        -7.61699594674764   -2.95046547357712    3.54046620907535
H        -8.54615307666042   -4.19749249690958    3.70408016674751
O        -0.22984433677268   -7.00174470257344    0.03602365112062
H        -0.63308549071545   -7.57573850343730   -0.64002187649002
H         0.18276171866844   -7.60868376339549    0.66587994625837
O        -7.52960450233997    3.30330960100389    0.33015596199118
H        -6.86948271055512    3.40267180195459    1.04395917548374
H        -7.61806854087698    4.17374868362574   -0.06805643678351
O         4.70341257460565    8.70576477725639   -0.51611727301125
H         4.44507639745733    9.57424623004226   -0.17597339740970
H         4.89808062771744    8.18548834007315    0.28190806628485
O        -6.47487466591361   -5.22657764717977    2.21663147976385
H        -6.80018263962884   -4.65946511771603    2.95331928061396
H        -5.61810723603794   -4.86489129719291    1.90133619648373
O        -3.31031030349354   -4.70753857649975   -8.03837455517794
H        -3.20397300066372   -5.07669798215463   -8.91403379853342
H        -3.66738010520307   -3.80386647190938   -8.14658601167304
O        -7.37255378121668   -1.58100825061923    2.50838469982164
H        -8.23103472263135   -1.32208163229281    2.13922362988284
H        -6.95379696477277   -0.77365296207126    2.82860048835628
O         6.59022263506337   -2.29225652969445    5.30664294130099
H         7.12838281484429   -2.05074442751637    6.08513429592994
H         7.16179131455825   -2.16108327485154    4.53230669452933
O        -8.91843977443605   -7.79491821091646    2.15282388322640
H        -9.69746510173926   -8.19256591715305    1.76353050322477
H        -8.25772537415803   -7.74983512353182    1.42654716365931
O        -1.16508447498366    7.58778334542126   -2.76969091762035
H        -1.98091602799263    8.06521523780293   -2.59182527516292
H        -1.07564811714226    6.98813527792383   -2.00828997239476
O         2.33858632733605    3.71842729836681    2.76557880187506
H         2.29116985310723    4.32550044643637    2.00800607772998
H         2.22177200865537    4.24991172446208    3.56470454636630
O        -7.28893933159745   -7.60599238170989    0.00220775534071
H        -7.61608922335587   -6.71784224572055   -0.20342424431371
H        -6.32195932883597   -7.54148810321317    0.01003400811449
O         4.67513689825499    8.24339261558868    5.28067627204603
H         5.10610805011728    8.88039175510634    4.68917796965163
H         3.80335071059729    8.07162505934370    4.87536520672527
O         5.85358177881444    9.60837359761704    3.19172548985860
H         6.75864649622039    9.90663793367060    3.09794610837445
H         5.77256928191836    8.77218547625301    2.67928176517984
O         3.12138248143251    4.28419918121205    7.50863888510252
H         4.10298119113869    4.36412428203428    7.49192967938605
H         2.84143753782591    4.77177816873671    8.30166954110670
O         2.33400325639092   -9.04994845675846   -5.42974185533611
H         3.22780448412463   -8.67863312810231   -5.31140096990047
H         2.08163913086861   -9.35169359910190   -4.54955045071456
O        10.25195693137151   -0.01982301482399   -1.32715713367464
H         9.98032363055708    0.55315135465897   -0.59236615668761
H        10.08124998619566    0.47366316404394   -2.14094055740735
O        -8.34723225197941    1.99839829556661   -4.12933777169015
H        -9.24293947353954    2.20543143043214   -3.85974571128590
H        -8.03973665628031    2.75456851966995   -4.68614814161181
O        -0.30267225739719    2.45284200388598   -2.52085010750076
H        -0.82061682328785    1.70691257356147   -2.87018010568255
H         0.50021953725764    2.05479163446826   -2.11538047638386
O        -4.92081115272449    4.24266829704523   -5.25037531884911
H        -4.90855450236663    4.96930317964618   -4.61063783999201
H        -4.28341559769003    4.48744043845458   -5.95030793504054
O        -3.12239982198406   -6.35932620136948   -4.20816864555075
H        -4.02149895959860   -5.99941188992721   -4.24725131751777
H        -2.88489435322311   -6.29120659545776   -3.26381954999742
O         2.84242373413546    0.16500539861213    8.47197536979960
H         2.65898820959764   -0.73140651290377    8.82028944296778
H         2.93077266120073    0.04671945821351    7.50108960964999
O        -2.85273812184121   -5.80980127635577   -1.58664391035420
H        -3.43593410198234   -5.02250385251366   -1.58195341487579
H        -1.95071446080139   -5.44971452795781   -1.49631801156734
O        -1.91840281036623    4.39243166508412    4.44722938302140
H        -2.08548257319310    4.52500968115624    5.40061454273701
H        -1.91115036767431    3.43009502684646    4.30704874628451
O         6.71205867567557    0.10297901260495    0.04551922963487
H         5.95405670176382   -0.13515750704259    0.61226347871424
H         6.34529099884370    0.57943662963721   -0.72285137336135
O         6.82193492731480    1.87634794588213   -6.45372637483251
H         6.20979748987878    1.97180051448593   -5.70875683834941
H         6.33623270647501    2.24369178427729   -7.20371573798046
O        -6.45492003874679    2.80923833531258   -2.18994550123370
H        -6.97667368302836    2.31511717156980   -2.83904987330756
H        -6.69423259564064    2.47975523008367   -1.31239709360405
O         6.49015535789450   -4.96511189091311   -1.49951906607477
H         6.09092438009896   -4.69428191111007   -0.66100234247579
H         7.10327409075733   -5.69086846507144   -1.26590158501738
O         1.53592717830697    2.43240776155504    8.91479529363637
H         1.91382802336403    1.52667994808686    8.87732216284014
H         2.04786000945284    2.92252748254006    8.25112372710237
O        -6.13235053992610   -1.81450704970413    5.54304402796370
H        -5.66531919951222   -2.03640657026314    4.71590366388426
H        -6.84139742860505   -2.46340223989170    5.58119586262476
O        -0.91937263721618    2.38423386378124    7.83341297069228
H        -0.13791216803981    2.43687791365854    8.41939867728383
H        -0.57778182628646    1.89336022691439    7.05932214092841
O         8.45528972378314   -3.34983718446684    0.97784692225918
H         8.44007190551898   -2.72186511290157    1.71760727238900
H         8.40877764152314   -2.81095367884709    0.15507354692101
O         0.00447525726421   -7.51307075203915    5.27316498883902
H         0.92294393160154   -7.77975472052714    5.16906464669276
H        -0.09078257068343   -6.71148580607413    4.73464016683576
O        -3.95295138963545   -2.73897700628838   -5.38648992952585
H        -4.06273002242621   -2.56740148013036   -6.33460612382359
H        -3.15989411756354   -3.30053949377466   -5.32034102786866
O        -9.63444321642708   -5.14468185359676    2.63608762362528
H        -9.40974722888483   -6.08773978061347    2.71929113518761
H        -9.37669356649125   -4.93895101052059    1.72480518317995
O        -2.26273451552965    4.60117596382043    7.09929450959813
H        -1.75035360681337    3.84165304341958    7.44665092998937
H        -1.91920459766896    5.40557341806048    7.52523270616051
O        -4.23339746567845   -2.52428842014546    7.52607646281409
H        -4.94660919587206   -2.17246929565904    6.97117938803927
H        -4.18145130140458   -1.95613522132614    8.31563914661406
O         0.57889434882337   -1.29834052108986    7.36064087816441
H         0.16898968859740   -1.89599484476850    6.72115985821681
H         0.75191660012146   -0.46071285899903    6.90426574507137
O         7.80924576534236   -3.52892731993178   -3.35733789939051
H         7.31834372460237   -3.93408664766496   -2.60497188330751
C         9.15024004289164   -3.97554401907483   -3.25481726905449
H         9.69878678685784   -3.56295704887866   -4.10099576794346
H         9.18886129841936   -5.06528622342439   -3.28801102143500
H         9.59839485741739   -3.61679806454195   -2.32797636570743
O         2.02835475683528    5.36616348043966    0.58020386716280
H         2.26309278420819    5.43455462556966   -0.36880037708929
C         1.18358705943584    6.45587766479570    0.89324782220446
H         0.90554030533470    6.35933635778007    1.94049245539915
H         0.28160074265841    6.43872671970418    0.28234126299168
H         1.69949279910237    7.40765572996587    0.74452627026672
O        -0.86555694275419   -1.26391877589347    9.57491733642721
H        -0.33246863297519   -1.20796915064577    8.74115414224632
C        -0.05797741420854   -0.77430246910901   10.62692896735625
H        -0.60624120744499   -0.92478830398397   11.55570005667285
H         0.13855931209371    0.29269213672254   10.49679450480688
H         0.88881421424210   -1.31496047361681   10.66880685047387
O        -4.34154468235784   -3.54579578246580   -1.65784932439971
H        -4.67994898416139   -3.31280036107653   -0.77001725276682
C        -3.38087972229141   -2.55490215889428   -2.00408366344999
H        -3.04250614254383   -2.76597485053321   -3.01498219119441
H        -2.53718711090517   -2.58422769295480   -1.31380264272391
H        -3.83786226006558   -1.56881235325797   -1.97962114077848
O        -7.52143028861018    4.05785014058449   -5.61534342767007
H        -6.53060235091179    4.06813114643106   -5.48606598364745
C        -7.78525506872451    3.85565174341768   -6.98584430371619
H        -8.86317324288016    3.93726023690582   -7.12723294783539
H        -7.45181779693921    2.86640639930145   -7.30930318663253
H        -7.29142621326073    4.61545885683918   -7.59544059222902
O         2.93892633266772   -8.16657262972749    5.59600034730434
H         2.68823185466131   -7.59081641722177    6.35961258880924
C         2.97588833092786   -9.49831557082629    6.06417262584619
H         3.34560534572523  -10.12154630317484    5.25077972760236
H         1.97806586725641   -9.84073281021864    6.34940303879590
H         3.64538758541603   -9.59478487623284    6.92296871606822
O        -3.43403180944995    1.27851265978266    7.67066183977918
H        -2.56942523242534    1.67451560018337    7.89613926066990
C        -3.23663903156060    0.43978030855009    6.54056005557891
H        -4.20600907052534    0.02050789968607    6.28050853438523
H        -2.54613711905164   -0.37079357188744    6.77761347046371
H        -2.84458011899798    1.01606460095638    5.70348729186671
O        -9.70365007303900   -0.73278857260313    1.28340732803077
H        -9.61547223270762    0.21795595276081    1.56230841384943
C       -10.87622921475172   -1.28682451687186    1.84195127177069
H       -10.87590714677987   -2.35031164724364    1.60735547077340
H       -11.76862235412020   -0.82305377151703    1.41419731074902
H       -10.89257388554593   -1.16164545168027    2.92693956791970
O        -0.98497793381230   -1.51208381699737   -4.94606317840128
H        -0.02664721201184   -1.65454122674659   -4.78354683496908
C        -1.18857867796733   -1.34905232706604   -6.33710184936748
H        -2.19869377695615   -0.97110764809357   -6.47441970730305
H        -1.09055261673121   -2.30428719332410   -6.85370055092903
H        -0.47738232925069   -0.64094739655040   -6.76407751490644
O         3.29013945712828   -1.83024558370357   -0.85484020185461
H         2.38088710476618   -1.78885922011948   -1.24584421352101
C         4.23369195966391   -1.81663389474351   -1.90983766849133
H         5.21990918061532   -1.92435240626918   -1.46365884527152
H         4.17967447763965   -0.87491039003468   -2.45875713272572
H         4.05871387203957   -2.64617098371458   -2.59541266938190
O         2.60812529797364    5.77196605187983   -2.06276820026206
H         2.11207457080255    5.20026416554030   -2.69031583543301
C         2.42853268846795    7.11854881691650   -2.46173270750082
H         3.02491391962580    7.73712070855217   -1.79309654943975
H         1.37954448172103    7.41598365721715   -2.39666100901214
H         2.77444978413242    7.26833096561724   -3.48720860038022
O        -5.49350171461988   -4.98688330584978   -3.80853119328386
H        -5.18776896171140   -4.27380257607764   -3.21854796372859
C        -6.38252738231827   -5.81731880873004   -3.08633325731934
H        -6.66017308705456   -6.63928010639139   -3.74351423247502
H        -7.28207983037983   -5.26933215515822   -2.80331859582326
H        -5.90295642354069   -6.21902784077669   -2.19290372541217
O        -7.70684683825866   -0.06289146956780   -5.91155804887665
H        -7.99703390096107    0.58519012939182   -5.24287231163960
C        -8.84058556323968   -0.58909335453616   -6.56566411961662
H        -8.48232493104667   -1.34613753693121   -7.26040370254909
H        -9.37215876115340    0.18899982084569   -7.12244297773521
H        -9.52866634499774   -1.05322350001480   -5.85376442377946
O        -6.06321615997230    4.87087377329011    4.82433416950473
H        -5.59065977372721    4.34139208089931    5.51118735972214
C        -7.20285478881192    5.44280200979549    5.42118098985100
H        -7.71262026632481    6.02745707997934    4.65564450064943
H        -6.92441032619998    6.10067444057159    6.24758140964533
H        -7.88098704714164    4.67187131839438    5.79580501694050
O        -1.00514953119568    8.23922706358999   -5.46071595328840
H        -0.89436735065025    7.95587856190805   -4.53469563241433
C        -2.34117323679291    7.98412513843825   -5.84313673636523
H        -2.48543282097145    8.43842431074888   -6.82270851666864
H        -3.04156642519497    8.43620164272659   -5.13754577876221
H        -2.53604392768851    6.91114856337839   -5.91685387573549
O         2.47137218663661   -4.96805995061445    2.96499608988664
H         1.56975647883359   -4.99737431562090    3.35945294713478
C         2.78686714681670   -6.30242800349183    2.60385448124689
H         3.69749696127062   -6.27892134138857    2.01099501644981
H         1.97994660713269   -6.74208789282301    2.01576127765858
H         2.94942686035070   -6.90747081378553    3.49736790143582
O         7.63436489732338    6.26607025356609    0.36682345788563
H         7.28918667107073    6.57022758006767   -0.50906159897458
C         8.93514748424630    6.80099581514157    0.53678896327903
H         9.35925360190658    6.34121281442443    1.42815210636422
H         8.89000922976210    7.88506261367100    0.66944130008364
H         9.56069260056914    6.57617802221334   -0.32594678492485
O        -5.46942522547958    6.45667211124195   -3.59828371962785
H        -6.12874757438890    6.04138712021915   -2.98692009546563
C        -6.16794454426076    7.28148971414707   -4.50946116003994
H        -6.67812456031109    8.09728310315473   -3.99064421538914
H        -6.90121790550452    6.70316134475427   -5.07465485861793
H        -5.43365565675922    7.69724437290319   -5.19792410516319
O         3.22997965850626    1.04016278538779   -6.69336879730241
H         3.81126048925434    1.19554155005833   -5.92552148461185
C         1.91571332190759    1.37065522113664   -6.28734619252497
H         1.25751301488850    1.13488145027982   -7.12199032736088
H         1.83306016174096    2.43301175520860   -6.04797851219991
H         1.62842004400082    0.78629270856952   -5.41213899848455
O         0.33187127891308    5.31488036893353   -9.13581122256732
H         0.40876237640891    6.01975140350639   -8.45703398232021
C         1.22208539300469    4.27947669590871   -8.76053300469372
H         1.20924384919005    3.53614741043468   -9.55700724707713
H         0.90284693607122    3.81840474998996   -7.82527624395811
H         2.23859834466331    4.65884136125795   -8.64839698455715
O        -6.59543483137332    1.09122938956494    3.27368138408138
H        -6.21845486018380    1.89779068125118    2.87232041170441
C        -6.67865577521071    1.28120833019562    4.68080364296843
H        -6.74143625318932    0.29537223506433    5.13900813676546
H        -7.56906553792943    1.86053653159901    4.93875072581889
H        -5.79885246177891    1.79647493132328    5.06240523353820
O         3.99261733712663   10.66225104520385    1.36283796062928
H         4.64338629470879   10.47125328996969    2.06165481933769
C         2.70810605816240   10.42180319812516    1.89382411391858
H         1.99936154423909   10.53110279839811    1.07404927298089
H         2.46483121355576   11.14809703185167    2.67565265669246
H         2.63306166904166    9.41366777133826    2.30786399997557
O         7.25434868402903   -0.78020004168095   -3.63036057546467
H         7.51457892722872   -1.58921210152157   -3.13730113581500
C         6.74682963022571   -1.14544297637612   -4.90342582370198
H         6.61820455919180   -0.22976871540394   -5.47691142646432
H         5.78810892723283   -1.65481479202533   -4.80152054725149
H         7.44699051674775   -1.79588476217228   -5.42596181872846
O         6.02814975969387   -4.33103468453994    1.20243249963566
H         6.96846362517915   -4.01332957591757    1.10526136692671
C         5.44111613458013   -3.56394273688952    2.24509085189953
H         4.46571778983016   -3.99043139109594    2.45885727346510
H         5.32605472089980   -2.52401291712348    1.93936751168024
H         6.05442725791746   -3.60986996031493    3.14374914888051
O        -3.27731418724310  -10.86529496438727    1.05717244250996
H        -3.33659540913029  -10.03105710066161    1.56427723625395
C        -4.25695401160340  -10.82853116181846    0.04167240402327
H        -4.18474519195274  -11.76594338660061   -0.50691001380513
H        -4.08672217494114   -9.99623420450503   -0.64630366557349
H        -5.26022028959733  -10.73734591172427    0.46407331436852
O         9.30179154480415    7.01399104086524   -2.69847263659036
H         8.36989086152977    7.21194109761603   -2.51781116672909
C         9.42166900716966    6.64595961262657   -4.05121976559329
H        10.47409814544366    6.42904152838696   -4.22923307612464
H         9.11163595684504    7.45777404563428   -4.71738314233603
H         8.83057132395853    5.75390614509256   -4.28114004344676
O        -1.91799652925089    1.75493474779123    3.70859480269232
H        -1.13610054868448    1.92830337726018    3.11984756978298
C        -3.08233359988376    1.75745041295832    2.88947959585867
H        -3.93156427988706    1.57722169709465    3.54321146948843
H        -3.02499100334882    0.96897768486503    2.14306292335742
H        -3.19670653209525    2.71874295594085    2.39039058772087
O         2.01225775331480    5.20000324650067    5.23298199022462
H         2.57366647209938    4.88452143898287    5.97445337204216
C         0.71716352890144    5.40888679701845    5.78333334917409
H         0.02786716628222    5.56107475738044    4.95671474106202
H         0.70927219173238    6.28470325631513    6.43453515645369
H         0.40497656864179    4.54105527763620    6.36000878142619
O         5.60890488738755    7.37397519425365    1.73725834912292
H         6.37838372268997    6.90351754617598    1.34588077897289
C         4.62424466745394    6.40974842567171    2.10779343993502
H         3.79351298167784    6.95938253670566    2.54289719933695
H         5.02155363098724    5.71612952929814    2.84751881886789
H         4.27600822969047    5.86357500614519    1.23198960672215
O         4.08144225151910   -6.27758670838536   -0.41264750465761
H         3.51297147643242   -7.06970218965883   -0.35493003967287
C         3.28567633043278   -5.13147773147806   -0.63626560989722
H         3.89362598614992   -4.27053840190003   -0.37255457528789
H         2.39047572332888   -5.14309141521408   -0.01462401414553
H         2.99587866664798   -5.05301580720665   -1.68607706064116
O        -4.64617921010490    0.26159268339195   -3.46413423290105
H        -5.11534283190745   -0.59578779216188   -3.59238080834355
C        -4.88928365134081    1.02725228623950   -4.63156726026863
H        -4.46744710828114    2.01652852522182   -4.47852534075220
H        -5.95726974990423    1.13005676520302   -4.80893977628483
H        -4.42867324651628    0.55025494522297   -5.49746114232492
O        -3.96658241032574    0.44517898115356   -7.86494741707803
H        -3.19707634954635    0.83911892715095   -8.31589304013250
C        -5.09314416895991    1.26605044472662   -8.09151394448338
H        -5.93376218829278    0.79578011412180   -7.58284265595282
H        -5.31533052801589    1.34718328811916   -9.15956318016969
H        -4.93376582523369    2.26447311332560   -7.67717717983275
O        -0.61727644934538   -3.11404989605009    5.52613160866990
H        -0.89429149751408   -2.34082838825165    5.00024795494307