91
Energy:   -559.38322915
C    2.15225742   2.78207525  -1.91340221
H    2.78603783   2.18673596  -2.53693546
H    1.89493168   3.68560113  -2.42557751
H    1.26125727   2.23539113  -1.68502909
C    2.89281962   3.12533403  -0.60751514
N    3.44420183   3.38090579   0.36477715
C    1.89388766   2.05348490   3.17520352
H    2.78637164   1.54210788   2.88047301
H    2.10902162   3.09152077   3.32045506
H    1.15257688   1.94639674   2.41107687
C    1.36667825   1.44961568   4.49011500
N    0.97414688   1.00000759   5.46912636
C    0.38657858  -0.59312734  -2.94750536
H    1.29731710  -0.05873015  -2.77466099
H   -0.05624747  -0.85595185  -2.00956749
H   -0.28982733   0.02441103  -3.50069656
C    0.68665379  -1.87278486  -3.75002108
N    0.91007343  -2.82554806  -4.34753051
C   -2.20240455   1.41308872   3.88175810
H   -3.26707290   1.31428261   3.92199283
H   -1.76614642   0.91761830   4.72383114
H   -1.83699225   0.97039858   2.97876398
C   -1.82388346   2.90554822   3.91153104
N   -1.54205730   4.01675216   3.93369835
C   -3.48384821   3.82680569   0.75463542
H   -2.85597629   4.45555594   1.35074796
H   -3.99430828   4.42078713   0.02558421
H   -2.88496573   3.09123343   0.25948665
C   -4.51477844   3.12565906   1.65861344
N   -5.28235286   2.60362351   2.33166616
C   -4.25279530  -0.37228768   0.81724504
H   -3.53547230   0.39324088   0.60673633
H   -5.19740015   0.07652568   1.04349125
H   -4.35580392  -1.00904728  -0.03646774
C   -3.77742308  -1.20357592   2.02330520
N   -3.42348685  -1.82250781   2.92127181
C   -1.47734474   3.94276907  -2.45509789
H   -1.04238470   4.91184078  -2.58397758
H   -1.07948205   3.48780438  -1.57214178
H   -2.53883389   4.03805494  -2.35991129
C   -1.14823546   3.06569729  -3.67740398
N   -0.90319864   2.41267748  -4.58746642
C   -1.23110216  -2.80426056   0.14951640
H   -1.02998586  -1.76890828   0.32978864
H   -0.31021205  -3.32241569  -0.01893465
H   -1.72654985  -3.22464408   0.99963897
C   -2.13287993  -2.94360006  -1.09104047
N   -2.80429447  -3.04734466  -2.01469145
C    0.35846749   4.88648894   1.29264044
H   -0.06554399   3.92516285   1.09023835
H   -0.30634717   5.44506686   1.91786942
H    1.29784696   4.76438798   1.79019110
C    0.57355934   5.64188067  -0.03201756
N    0.73370500   6.20430415  -1.01828566
C   -0.00887909  -1.64332969   3.27915494
H   -0.52064178  -2.56539913   3.09808290
H   -0.25683419  -0.94096933   2.51097053
H   -0.30524480  -1.25162775   4.22975267
C    1.51109441  -1.89087129   3.27722448
N    2.64278377  -2.07517726   3.27578717
C    0.65039919  -5.36567574  -2.06694441
H    0.28126733  -5.70939430  -3.01060717
H    0.56232696  -4.30052239  -2.01604548
H    0.07962799  -5.80886749  -1.27783073
C    2.12991777  -5.76613846  -1.91776541
N    3.23148661  -6.06430115  -1.80669487
C   -3.24384199   0.28231570  -2.69368860
H   -2.78131611   0.45181499  -3.64355174
H   -3.85091512  -0.59733236  -2.74448815
H   -2.48833491   0.15166207  -1.94733897
C   -4.12316898   1.49244480  -2.32766727
N   -4.77786790   2.39344091  -2.05514775
C    4.30088860  -2.98767132  -3.37346893
H    4.12401705  -3.46341765  -2.43151242
H    5.28392158  -3.23263973  -3.71775913
H    3.57847523  -3.32748137  -4.08589236
C    4.18035380  -1.46130572  -3.20830418
N    4.09061015  -0.32485714  -3.08533152
C    3.31245458  -4.95293813   1.61125472
H    3.53505661  -3.94794894   1.31911564
H    3.78239068  -5.63397495   0.93283892
H    3.67904300  -5.12602764   2.60148300
C    1.78810135  -5.17006826   1.58293969
N    0.65315108  -5.33173152   1.56185786
C    2.96509099  -0.20539781   0.36394377
H    3.49436496  -0.36580475   1.27993441
H    2.11165144   0.41298263   0.54872920
H    3.60961572   0.27749131  -0.34054545
C    2.50401248  -1.55953907  -0.20641406
N    2.16071857  -2.56775879  -0.63107140
Cl  -0.70452927   1.13990780   0.23540879
