91
Energy:   -559.30519476
C    2.27504197   3.30663464  -1.00281696
H    1.52488389   2.54767359  -1.08118253
H    3.10266827   3.05653480  -1.63320087
H    1.86493914   4.24640039  -1.30868471
C    2.75378802   3.40636799   0.45747598
N    3.11023621   3.48062400   1.54473046
C    1.24575752   1.61838013   3.67430653
H    1.66638425   2.58725490   3.84534750
H    0.79193490   1.59250879   2.70566067
H    2.01836382   0.87993429   3.72604000
C    0.18155738   1.32396957   4.74780570
N   -0.61078799   1.10476753   5.54707464
C    1.40161959  -0.22483896  -3.00512709
H    0.75550401   0.27705862  -2.31553760
H    1.28910755  -1.28306378  -2.89377017
H    1.14506940   0.05788795  -4.00470029
C    2.86271935   0.16894168  -2.71925246
N    3.95057454   0.46212926  -2.50640582
C   -3.14654089   1.38688288   3.23455933
H   -2.53647963   0.84246825   2.54438677
H   -3.10619605   0.91606586   4.19456075
H   -2.78573672   2.39105140   3.31434046
C   -4.60193033   1.40280554   2.73138140
N   -5.68553393   1.41466068   2.35674256
C   -4.09295106   3.32447826  -0.22860230
H   -4.20547977   3.88561746  -1.13268209
H   -4.97864789   2.75052805  -0.05247348
H   -3.25385054   2.66674764  -0.31915536
C   -3.86392954   4.28955868   0.94943376
N   -3.69341261   5.00810491   1.82653515
C   -4.31701973  -0.55116499  -0.32055703
H   -3.50720181   0.14000749  -0.42721401
H   -5.22976101  -0.01167098  -0.17651306
H   -4.39271014  -1.15087947  -1.20345714
C   -4.05994898  -1.45926583   0.89635196
N   -3.86854812  -2.13538818   1.80239601
C   -1.19888313   4.06403262  -2.41640665
H   -0.86067291   5.07790560  -2.36565619
H   -1.08377488   3.60127545  -1.45854184
H   -2.23057234   4.04594857  -2.69958402
C   -0.36646011   3.29686398  -3.46049677
N    0.25331667   2.72567205  -4.23786933
C   -0.78398703  -2.44005362  -0.43772071
H   -0.00798735  -1.81362937  -0.82542852
H   -0.34940191  -3.30242379   0.02309656
H   -1.35230841  -1.89628290   0.28769180
C   -1.70836787  -2.88309201  -1.58699746
N   -2.39661142  -3.21295422  -2.44268624
C   -0.36484474   4.55363549   2.09913786
H    0.54583496   4.38818841   2.63597110
H   -0.76035404   3.61546319   1.77004179
H   -1.07413152   5.03472476   2.73973482
C   -0.08546176   5.44961507   0.87816868
N    0.12255156   6.11671260  -0.03089837
C   -0.75502670  -1.78875573   3.13563796
H   -1.12303976  -2.71463900   2.74550114
H   -0.92037605  -1.00973266   2.42101797
H   -1.26985560  -1.55468111   4.04396575
C    0.75358790  -1.91427952   3.41834942
N    1.87682004  -2.00773770   3.62884096
C    1.17179777  -5.20962786  -1.95822351
H    0.88844050  -5.66434288  -2.88442170
H    1.20734892  -4.14703104  -2.07873582
H    0.45478784  -5.45928037  -1.20425436
C    2.56041412  -5.72521115  -1.53689407
N    3.59430211  -6.10908635  -1.22319515
C   -2.22549428   0.18585425  -3.42360899
H   -1.76984923   0.11559043  -2.45802587
H   -1.48621897   0.45735241  -4.14794307
H   -2.65196879  -0.75963988  -3.68640063
C   -3.33148382   1.25703388  -3.39260369
N   -4.15494330   2.05457581  -3.36951884
C    5.11427728  -3.00682180  -2.48874267
H    5.99446897  -3.34847725  -2.99216527
H    4.94174211  -3.61073260  -1.62247340
H    5.24605968  -1.98720783  -2.19222986
C    3.90611057  -3.11339536  -3.43772913
N    3.00657554  -3.19274421  -4.14429268
C    3.20074508  -4.83700474   2.16793353
H    3.42339538  -3.79042834   2.16572831
H    3.79089231  -5.32877308   1.42309178
H    3.42615367  -5.24758148   3.12997137
C    1.70650168  -5.04459040   1.85850685
N    0.59396956  -5.19914736   1.62812461
C    2.93838790  -0.12650034   0.91007908
H    3.66295485   0.44917790   0.37295947
H    3.26921084  -0.26526701   1.91814608
H    2.00132265   0.39003407   0.91012610
C    2.76808856  -1.49875228   0.23219800
N    2.64129297  -2.52045623  -0.27251527
Cl  -0.75275914   1.13093188   0.16444245
