91
Energy:   -559.72496696
C    2.12205047   3.36259922  -1.78755044
H    2.87788368   2.96175090  -2.43015215
H    1.70408030   4.24099657  -2.23321638
H    1.35167297   2.63380211  -1.64516936
C    2.74454905   3.72420927  -0.42617846
N    3.20802753   3.99344439   0.58742487
C    1.62884429   2.37246537   3.22079945
H    2.52986917   1.81275910   3.08014654
H    1.86572437   3.41147061   3.31700251
H    0.98519081   2.22993929   2.37800908
C    0.91749036   1.88776330   4.49776440
N    0.38785502   1.52688057   5.44852285
C    0.90304228  -0.35143920  -2.99012340
H    0.76687612  -1.14276808  -2.28290521
H    0.51979057  -0.65408835  -3.94218469
H    0.37974183   0.51984997  -2.65559251
C    2.40377986  -0.03093313  -3.11920699
N    3.52114721   0.20769821  -3.21531559
C   -2.55085201   1.34034374   3.52585707
H   -1.97707860   0.97888543   2.69819038
H   -3.57519001   1.05776036   3.40024895
H   -2.17301741   0.91784215   4.43339908
C   -2.44617502   2.87537153   3.59167821
N   -2.36823824   4.01826949   3.64068504
C   -3.76301147   3.55580883   0.21499270
H   -3.26445014   4.27562618   0.82997218
H   -4.24470271   4.05517776  -0.59956443
H   -3.04832895   2.85728372  -0.16735617
C   -4.81590224   2.80644465   1.05253335
N   -5.59982727   2.24850895   1.67612043
C   -4.03281155  -0.68740338   0.47849172
H   -3.35233476   0.11363097   0.27800356
H   -4.98623371  -0.28560954   0.75134151
H   -4.13843484  -1.29325575  -0.39711419
C   -3.48795471  -1.54660381   1.63456510
N   -3.08228403  -2.18631758   2.49531427
C   -1.51308413   3.82387983  -2.80581406
H   -1.15855011   4.82394278  -2.94394409
H   -1.19775485   3.46259847  -1.84928789
H   -2.58185727   3.81421540  -2.85610976
C   -0.93895114   2.91841981  -3.91130647
N   -0.51148303   2.24426367  -4.73439582
C   -0.52688951  -2.74424162  -0.18444299
H   -0.43846962  -1.67917821  -0.13226988
H    0.35758638  -3.15439297  -0.62532547
H   -0.65060431  -3.14059912   0.80170836
C   -1.74907751  -3.11636759  -1.04431435
N   -2.65905204  -3.39343229  -1.68452766
C   -0.18081806   5.03060114   1.30127224
H    0.77931124   4.98263592   1.77111397
H   -0.54085584   4.03879971   1.12350326
H   -0.86492359   5.54925484   1.93994043
C   -0.05990048   5.78061556  -0.03830131
N    0.03012815   6.33903539  -1.03567471
C    0.13179294  -1.37358313   3.15711711
H   -0.13584313  -0.80642633   2.29016596
H   -0.34235225  -0.95267800   4.01904768
H   -0.18831762  -2.38702323   3.03315144
C    1.66012607  -1.33705745   3.34276119
N    2.79803955  -1.30986243   3.48098166
C    0.14674538  -6.26785307  -0.99116101
H   -0.26975256  -7.24378329  -1.12896469
H   -0.16576172  -5.63039749  -1.79171631
H   -0.19219799  -5.86360266  -0.06024851
C    1.68379551  -6.36252118  -0.98044364
N    2.82819919  -6.43300589  -0.97246407
C   -2.73094101  -0.12866597  -2.94996139
H   -3.23925161  -1.06386415  -3.05916251
H   -2.09247152  -0.16777359  -2.09221645
H   -2.14331928   0.06203310  -3.82359384
C   -3.76401040   0.99914396  -2.76992697
N   -4.53317752   1.83884972  -2.63588315
C    3.81462097  -3.64184108  -3.00955153
H    4.31239753  -4.12821229  -3.82230102
H    4.07917528  -4.12196516  -2.09064404
H    4.11101850  -2.61435083  -2.97333840
C    2.29084082  -3.72962838  -3.21445990
N    1.15631724  -3.79499002  -3.36702350
C    3.68485784  -4.48997710   1.95194017
H    3.97510196  -4.63095913   0.93175264
H    4.19688424  -5.19800311   2.56953812
H    3.93881649  -3.49760512   2.26113580
C    2.16467469  -4.69631439   2.08635787
N    1.03282924  -4.84994188   2.18643796
C    3.21919232   0.36574057   0.45533156
H    3.74017670   0.41313406   1.38872821
H    2.26814484   0.84624800   0.55290404
H    3.79348656   0.86141336  -0.29925024
C    3.01160692  -1.10744304   0.05753971
N    2.85705015  -2.20429520  -0.23863440
Cl  -0.60403684   1.25884730   0.07479735
