91
Energy:   -559.26957792
C    2.22926744   3.05760170  -1.53082746
H    1.49356672   2.28461881  -1.45245595
H    2.96114168   2.78074950  -2.26063021
H    1.75703450   3.97066011  -1.82784511
C    2.91443834   3.25445821  -0.16576763
N    3.42457922   3.40102684   0.85058146
C    1.68609753   1.91422874   3.34808083
H    1.13970135   1.86067579   2.42966726
H    2.36515333   1.08947055   3.40771505
H    2.23542458   2.83177898   3.38330071
C    0.70454478   1.85775367   4.53339293
N   -0.02626585   1.81570541   5.41591167
C    0.93308602  -0.80468637  -3.13237626
H    0.35149071  -0.41446072  -2.32344424
H    0.94597272  -1.87329568  -3.07939348
H    0.50106250  -0.49887162  -4.06228599
C    2.37339479  -0.26846471  -3.03451422
N    3.44577014   0.13077669  -2.96165148
C   -2.93914362   1.80272213   3.47970117
H   -3.95341518   1.50341502   3.31670224
H   -2.59578463   1.40631192   4.41236544
H   -2.32545162   1.43023693   2.68626813
C   -2.85678864   3.34013798   3.51390896
N   -2.79547161   4.48481396   3.53937821
C   -3.59578771   3.87828617  -0.01781452
H   -3.29051775   4.70843998   0.58431095
H   -3.89722480   4.22921999  -0.98263586
H   -2.77841541   3.19625958  -0.12570960
C   -4.77771138   3.16001004   0.65948589
N   -5.65770728   2.62522081   1.16376682
C   -4.25473648  -0.38036872   0.25500884
H   -4.08175007  -1.08623536  -0.53031159
H   -3.55329464   0.42346483   0.17297196
H   -5.24974754   0.00500826   0.17540565
C   -4.08118709  -1.07602385   1.61792650
N   -3.95197167  -1.59397072   2.63268065
C   -1.15565278   3.72955117  -2.83273810
H   -0.67281436   4.68246801  -2.89370316
H   -0.98483412   3.30436881  -1.86581513
H   -2.20725252   3.85197997  -2.98781314
C   -0.58291182   2.79380041  -3.91345004
N   -0.15648014   2.09709144  -4.71808921
C   -1.17202546  -2.79284713   0.32945143
H   -0.92917941  -1.76357346   0.49230623
H   -0.34356021  -3.40492584   0.61911345
H   -2.02966652  -3.05371140   0.91366092
C   -1.47955140  -3.01784689  -1.16266214
N   -1.70851845  -3.18536943  -2.27360852
C    0.02208996   4.71666073   1.62354149
H    1.01964291   4.50451354   1.94724178
H   -0.51055936   3.79910671   1.48469472
H   -0.47459607   5.30895955   2.36339565
C    0.06783296   5.49011979   0.29265132
N    0.10189070   6.06599522  -0.69825691
C   -0.68505515  -1.22317237   3.49066843
H   -1.27688193  -2.10909291   3.39174395
H   -0.88489321  -0.56718053   2.66930459
H   -0.93069261  -0.73076942   4.40832885
C    0.80788741  -1.60093978   3.49445062
N    1.91945100  -1.88220479   3.49726664
C    1.19596951  -5.41212806  -2.18853257
H    1.04149538  -4.36199852  -2.32368386
H    0.73040350  -5.94714212  -2.98972377
H    2.24548020  -5.62044346  -2.18295561
C    0.57785186  -5.85369162  -0.84892360
N    0.11763518  -6.18245576   0.14847617
C   -2.67216577  -0.00546159  -3.05841935
H   -3.22460486  -0.91993372  -3.11717255
H   -2.03560973  -0.02792054  -2.19865712
H   -2.07680709   0.10885235  -3.94011060
C   -3.65010447   1.17849429  -2.94229706
N   -4.37822429   2.06000325  -2.85583873
C    4.98196183  -3.01595810  -2.29800160
H    5.90577606  -3.52166010  -2.48703316
H    4.59315560  -3.32574253  -1.35049834
H    5.14966547  -1.95924544  -2.28647203
C    3.97058054  -3.36314417  -3.40622979
N    3.21756120  -3.62163998  -4.23135605
C    2.66682535  -4.93803686   2.08737442
H    2.31448765  -5.81623068   2.58690815
H    1.83294701  -4.38215893   1.71248011
H    3.21821155  -4.33282631   2.77628119
C    3.58050738  -5.34519441   0.91647396
N    4.26078518  -5.64834172   0.04468535
C    2.92496811  -0.26114409   0.60456990
H    3.36867679  -0.40834672   1.56704285
H    2.08869833   0.40023475   0.69473630
H    3.64720270   0.16559890  -0.05963392
C    2.45048388  -1.61536678   0.04551210
N    2.09720880  -2.62364713  -0.37073184
Cl  -0.69404566   1.13701952   0.18917961
