91
Energy:   -559.61122971
C    2.27597370   3.26883881  -1.04668190
H    3.08427840   3.02258071  -1.70311213
H    1.84468070   4.20115387  -1.34613818
H    1.53244784   2.50075697  -1.09271108
C    2.80348103   3.38689350   0.39533027
N    3.19623422   3.47479059   1.46897387
C    1.37929767   1.62663502   3.64107954
H    2.11602781   0.85187402   3.68437244
H    1.84889804   2.57469889   3.80092161
H    0.90958290   1.61884060   2.67972302
C    0.31911977   1.38842614   4.73235373
N   -0.47023086   1.21106880   5.54485697
C    1.15916213  -0.41983673  -2.98359708
H    0.54096647   0.01042787  -2.22359268
H    1.13247067  -1.48650608  -2.90357729
H    0.79760630  -0.12525314  -3.94661161
C    2.60769019   0.07213107  -2.80658260
N    3.68618518   0.43842346  -2.67478727
C   -3.08333964   1.46442986   3.32604995
H   -2.45679860   0.91694610   2.65328844
H   -3.04571442   1.01322995   4.29553541
H   -2.74014482   2.47588908   3.38982035
C   -4.53318911   1.44604260   2.80720661
N   -5.61266795   1.43235244   2.42090417
C   -4.02929789   3.44236178  -0.12242752
H   -4.14461956   4.03299216  -1.00716299
H   -4.91718709   2.86813180   0.04131558
H   -3.19477377   2.78308052  -0.23997239
C   -3.78651467   4.36763130   1.08444141
N   -3.60575152   5.05653651   1.98301019
C   -4.27551853  -0.49937623  -0.23037351
H   -3.49981774   0.23623155  -0.27586696
H   -5.21932214  -0.01441968  -0.09271092
H   -4.29128511  -1.05798313  -1.14284753
C   -4.01088357  -1.45210180   0.95025443
N   -3.81385082  -2.16144929   1.82928559
C   -1.15101464   4.06981430  -2.40831470
H   -0.75893990   5.06490154  -2.37702647
H   -1.03845699   3.61174895  -1.44789500
H   -2.18844642   4.10322510  -2.66815718
C   -0.38418043   3.24881615  -3.46165574
N    0.18676250   2.63754571  -4.24591602
C   -0.90942270  -2.74574570  -0.19999527
H    0.08304664  -3.14423162  -0.23336814
H   -1.47900637  -3.26858745   0.53967361
H   -0.86818424  -1.70630918   0.05054456
C   -1.57741571  -2.91573447  -1.57712604
N   -2.07476686  -3.04229883  -2.60246250
C   -0.26322285   4.57841901   2.13841290
H    0.66422325   4.40302429   2.64237780
H   -0.68569019   3.64387749   1.83336767
H   -0.94021040   5.07672891   2.80043569
C   -0.01565830   5.45870526   0.89929713
N    0.16866477   6.11411839  -0.02328089
C   -0.75888537  -1.69297529   3.19469450
H   -0.93162897  -0.99707377   2.40047734
H   -1.18382430  -1.31328667   4.10032276
H   -1.21419998  -2.63054750   2.95273158
C    0.75664607  -1.89161830   3.38259187
N    1.88502811  -2.03951704   3.52249000
C    1.22991617  -5.23097890  -2.11511312
H    0.98137899  -5.67637768  -3.05572429
H    1.24317008  -4.16594305  -2.21720166
H    0.49994264  -5.51017167  -1.38429910
C    2.61916689  -5.72096506  -1.66623006
N    3.65352720  -6.08578203  -1.33201622
C   -2.41242767   0.29574948  -3.35022830
H   -2.88553839  -0.63888747  -3.56821956
H   -1.92366932   0.23511021  -2.40031397
H   -1.69097438   0.51588083  -4.10913965
C   -3.47330388   1.41138064  -3.31138529
N   -4.26317445   2.24201875  -3.28246491
C    5.09774844  -2.91923849  -2.63208068
H    6.00463799  -3.17778123  -3.13765676
H    4.96922451  -3.55624482  -1.78201972
H    5.14710679  -1.90010295  -2.30986088
C    3.90644255  -3.09711094  -3.59163873
N    3.01946116  -3.22954507  -4.30607332
C    3.16389427  -4.88871778   2.06927475
H    3.37362600  -3.83966572   2.04921097
H    3.77795348  -5.38903180   1.34988871
H    3.37093179  -5.27523202   3.04530820
C    1.68026921  -5.12219922   1.72877056
N    0.57564291  -5.29603676   1.47524971
C    2.93183458  -0.15389901   0.81503921
H    3.62189578   0.44183968   0.25485072
H    3.30096195  -0.28588604   1.81064129
H    1.98203003   0.33764439   0.84903186
C    2.77440310  -1.52881221   0.13944392
N    2.65718820  -2.55249759  -0.36356749
Cl  -0.75767856   1.17201431   0.22633441
