
                                 *****************
                                 * O   R   C   A *
                                 *****************

           --- An Ab Initio, DFT and Semiempirical electronic structure package ---

                  #######################################################
                  #                        -***-                        #
                  #          Department of theory and spectroscopy      #
                  #               Directorship: Frank Neese             #
                  #        Max Planck Institute fuer Kohlenforschung    #
                  #                Kaiser Wilhelm Platz 1               #
                  #                 D-45470 Muelheim/Ruhr               #
                  #                      Germany                        #
                  #                                                     #
                  #                  All rights reserved                #
                  #                        -***-                        #
                  #######################################################


                         Program Version 4.2.0 -  RELEASE  -


 With contributions from (in alphabetic order):
   Daniel Aravena         : Magnetic Suceptibility
   Michael Atanasov       : Ab Initio Ligand Field Theory (pilot matlab implementation)
   Alexander A. Auer      : GIAO ZORA, VPT2
   Ute Becker             : Parallelization
   Giovanni Bistoni       : ED, misc. LED, open-shell LED, HFLED
   Martin Brehm           : Molecular dynamics
   Dmytro Bykov           : SCF Hessian
   Vijay G. Chilkuri      : MRCI spin determinant printing, contributions to CSF-ICE
   Dipayan Datta          : RHF DLPNO-CCSD density
   Achintya Kumar Dutta   : EOM-CC, STEOM-CC
   Dmitry Ganyushin       : Spin-Orbit,Spin-Spin,Magnetic field MRCI
   Miquel Garcia          : C-PCM Hessian, Gaussian charge scheme
   Yang Guo               : DLPNO-NEVPT2, CIM, IAO-localization
   Andreas Hansen         : Spin unrestricted coupled pair/coupled cluster methods
   Benjamin Helmich-Paris : CASSCF linear response (MC-RPA)
   Lee Huntington         : MR-EOM, pCC
   Robert Izsak           : Overlap fitted RIJCOSX, COSX-SCS-MP3, EOM
   Christian Kollmar      : KDIIS, OOCD, Brueckner-CCSD(T), CCSD density
   Simone Kossmann        : Meta GGA functionals, TD-DFT gradient, OOMP2, MP2 Hessian
   Martin Krupicka        : AUTO-CI
   Lucas Lang             : DCDCAS
   Dagmar Lenk            : GEPOL surface, SMD
   Dimitrios Liakos       : Extrapolation schemes; Compound Job, initial MDCI parallelization
   Dimitrios Manganas     : Further ROCIS development; embedding schemes
   Dimitrios Pantazis     : SARC Basis sets
   Taras Petrenko         : DFT Hessian,TD-DFT gradient, ASA, ECA, R-Raman, ABS, FL, XAS/XES, NRVS
   Peter Pinski           : DLPNO-MP2, DLPNO-MP2 Gradient
   Christoph Reimann      : Effective Core Potentials
   Marius Retegan         : Local ZFS, SOC
   Christoph Riplinger    : Optimizer, TS searches, QM/MM, DLPNO-CCSD(T), (RO)-DLPNO pert. Triples
   Tobias Risthaus        : Range-separated hybrids, TD-DFT gradient, RPA, STAB
   Michael Roemelt        : Original ROCIS implementation
   Masaaki Saitow         : Open-shell DLPNO-CCSD energy and density
   Barbara Sandhoefer     : DKH picture change effects
   Avijit Sen             : IP-ROCIS
   Kantharuban Sivalingam : CASSCF convergence, NEVPT2, FIC-MRCI
   Bernardo de Souza      : ESD, SOC TD-DFT
   Georgi Stoychev        : AutoAux, RI-MP2 NMR
   Willem Van den Heuvel  : Paramagnetic NMR
   Boris Wezisla          : Elementary symmetry handling
   Frank Wennmohs         : Technical directorship


 We gratefully acknowledge several colleagues who have allowed us to
 interface, adapt or use parts of their codes:
   Stefan Grimme, W. Hujo, H. Kruse,             : VdW corrections, initial TS optimization,
                  C. Bannwarth                     DFT functionals, gCP, sTDA/sTD-DF
   Ed Valeev, F. Pavosevic, A. Kumar             : LibInt (2-el integral package), F12 methods
   Garnet Chan, S. Sharma, J. Yang, R. Olivares  : DMRG
   Ulf Ekstrom                                   : XCFun DFT Library
   Mihaly Kallay                                 : mrcc  (arbitrary order and MRCC methods)
   Andreas Klamt, Michael Diedenhofen            : otool_cosmo (COSMO solvation model)
   Jiri Pittner, Ondrej Demel                    : Mk-CCSD
   Frank Weinhold                                : gennbo (NPA and NBO analysis)
   Christopher J. Cramer and Donald G. Truhlar   : smd solvation model
   Lars Goerigk                                  : TD-DFT with DH, B97 family of functionals
   V. Asgeirsson, H. Jonsson                     : NEB implementation
   FAccTs GmbH                                   : IRC, NEB, NEB-TS, Multilevel, MM, QM/MM, CI optimization
   S Lehtola, MJT Oliveira, MAL Marques          : LibXC Library


 Your calculation uses the libint2 library for the computation of 2-el integrals
 For citations please refer to: http://libint.valeyev.net

 Your ORCA version has been built with support for libXC version: 4.2.3
 For citations please refer to: https://tddft.org/programs/libxc/

 This ORCA versions uses:
   CBLAS   interface :  Fast vector & matrix operations
   LAPACKE interface :  Fast linear algebra routines
   SCALAPACK package :  Parallel linear algebra routines


----- Orbital basis set information -----
Your calculation utilizes the basis: def2-TZVP
   F. Weigend and R. Ahlrichs, Phys. Chem. Chem. Phys. 7, 3297 (2005).

================================================================================
                                        WARNINGS
                       Please study these warnings very carefully!
================================================================================


WARNING: The frozen-core approximation for MP2-gradient calculations is turned on by default.

INFO   : the flag for use of LIBINT has been found!

================================================================================
                                       INPUT FILE
================================================================================
NAME = 12h2o.su.etal.mol1,5,6,7,8,9-orca.engrad-mp2.def2tzvp.frozencore.inp
|  1> # 12h2o.su.etal.mol1,5,6,7,8,9
|  2> ! MP2 def2-TZVP EnGrad TightSCF
|  3> 
|  4> %pal
|  5>     nprocs 6
|  6> end
|  7> 
|  8> %maxcore 8000
|  9> 
| 10> %scf
| 11>     ConvForced true
| 12> end
| 13> 
| 14> *xyz 0 1
| 15> O  -1.794470000  -0.923410000   2.768350000
| 16> H  -2.338250000  -1.359750000   3.430940000
| 17> H  -0.879480000  -1.303000000   2.865760000
| 18> O   0.885520000  -1.737840000   0.052730000
| 19> H   1.284090000  -0.839590000   0.017130000
| 20> H   1.032320000  -2.090180000  -0.841890000
| 21> O   1.737840000   0.885520000  -0.052730000
| 22> H   2.090180000   1.032320000   0.841890000
| 23> H   0.839590000   1.284090000  -0.017130000
| 24> O  -1.737840000  -0.885520000  -0.052730000
| 25> H  -2.090180000  -1.032320000   0.841890000
| 26> H  -0.839590000  -1.284090000  -0.017130000
| 27> O   1.752130000   0.741530000  -2.896280000
| 28> H   2.036450000   0.920500000  -1.984040000
| 29> H   0.921210000   1.242140000  -2.984230000
| 30> O   0.741530000  -1.752130000   2.896280000
| 31> H   0.920500000  -2.036450000   1.984040000
| 32> H   1.242140000  -0.921210000   2.984230000
| 33> *
| 34> 
| 35>                          ****END OF INPUT****
================================================================================

                     *******************************
                     * Energy+Gradient Calculation *
                     *******************************

---------------------------------
CARTESIAN COORDINATES (ANGSTROEM)
---------------------------------
  O     -1.794470   -0.923410    2.768350
  H     -2.338250   -1.359750    3.430940
  H     -0.879480   -1.303000    2.865760
  O      0.885520   -1.737840    0.052730
  H      1.284090   -0.839590    0.017130
  H      1.032320   -2.090180   -0.841890
  O      1.737840    0.885520   -0.052730
  H      2.090180    1.032320    0.841890
  H      0.839590    1.284090   -0.017130
  O     -1.737840   -0.885520   -0.052730
  H     -2.090180   -1.032320    0.841890
  H     -0.839590   -1.284090   -0.017130
  O      1.752130    0.741530   -2.896280
  H      2.036450    0.920500   -1.984040
  H      0.921210    1.242140   -2.984230
  O      0.741530   -1.752130    2.896280
  H      0.920500   -2.036450    1.984040
  H      1.242140   -0.921210    2.984230

----------------------------
CARTESIAN COORDINATES (A.U.)
----------------------------
  NO LB      ZA    FRAG     MASS         X           Y           Z
   0 O     8.0000    0    15.999   -3.391057   -1.744992    5.231423
   1 H     1.0000    0     1.008   -4.418652   -2.569555    6.483537
   2 H     1.0000    0     1.008   -1.661976   -2.462313    5.415502
   3 O     8.0000    0    15.999    1.673390   -3.284042    0.099645
   4 H     1.0000    0     1.008    2.426578   -1.586595    0.032371
   5 H     1.0000    0     1.008    1.950802   -3.949868   -1.590942
   6 O     8.0000    0    15.999    3.284042    1.673390   -0.099645
   7 H     1.0000    0     1.008    3.949868    1.950802    1.590942
   8 H     1.0000    0     1.008    1.586595    2.426578   -0.032371
   9 O     8.0000    0    15.999   -3.284042   -1.673390   -0.099645
  10 H     1.0000    0     1.008   -3.949868   -1.950802    1.590942
  11 H     1.0000    0     1.008   -1.586595   -2.426578   -0.032371
  12 O     8.0000    0    15.999    3.311046    1.401289   -5.473176
  13 H     1.0000    0     1.008    3.848333    1.739493   -3.749292
  14 H     1.0000    0     1.008    1.740835    2.347304   -5.639377
  15 O     8.0000    0    15.999    1.401289   -3.311046    5.473176
  16 H     1.0000    0     1.008    1.739493   -3.848333    3.749292
  17 H     1.0000    0     1.008    2.347304   -1.740835    5.639377

--------------------------------
INTERNAL COORDINATES (ANGSTROEM)
--------------------------------
 O      0   0   0     0.000000000000     0.00000000     0.00000000
 H      1   0   0     0.961828878803     0.00000000     0.00000000
 H      1   2   0     0.995381322057   106.21731035     0.00000000
 O      3   1   2     3.349245975813   116.85538783   143.82107740
 H      4   3   1     0.983350632989    97.20424340    87.67157074
 H      4   3   1     0.972645187106   154.03893681   304.15813038
 O      5   4   3     1.785153773264   170.81379649   301.36914736
 H      7   5   4     0.972645187106   101.65007623   109.44492584
 H      7   5   4     0.983350632989    99.09581498     3.33484705
 O      4   3   1     2.760360281485    59.41411630   355.12427997
 H     10   4   3     0.972645187106   105.22009255   347.26752702
 H     10   4   3     0.983350632989     5.92595386   271.62167973
 O      7   5   4     2.847229166523    89.51229470   269.85728871
 H     13   7   5     0.972136791249    19.08819947   230.61896091
 H     13   7   5     0.974050112161    93.43428486   106.52268102
 O      3   1   2     1.682356278379   171.61043709   195.73896161
 H     16   3   1     0.972136791249   103.79460456   289.35412162
 H     16   3   1     0.974050112161   105.61118924    38.30604821

---------------------------
INTERNAL COORDINATES (A.U.)
---------------------------
 O      0   0   0     0.000000000000     0.00000000     0.00000000
 H      1   0   0     1.817593168635     0.00000000     0.00000000
 H      1   2   0     1.880998097508   106.21731035     0.00000000
 O      3   1   2     6.329157649425   116.85538783   143.82107740
 H      4   3   1     1.858263389967    97.20424340    87.67157074
 H      4   3   1     1.838033029106   154.03893681   304.15813038
 O      5   4   3     3.373451738406   170.81379649   301.36914736
 H      7   5   4     1.838033029106   101.65007623   109.44492584
 H      7   5   4     1.858263389967    99.09581498     3.33484705
 O      4   3   1     5.216324962960    59.41411630   355.12427997
 H     10   4   3     1.838033029106   105.22009255   347.26752702
 H     10   4   3     1.858263389967     5.92595386   271.62167973
 O      7   5   4     5.380483365242    89.51229470   269.85728871
 H     13   7   5     1.837072300170    19.08819947   230.61896091
 H     13   7   5     1.840687952699    93.43428486   106.52268102
 O      3   1   2     3.179192625819   171.61043709   195.73896161
 H     16   3   1     1.837072300170   103.79460456   289.35412162
 H     16   3   1     1.840687952699   105.61118924    38.30604821

---------------------
BASIS SET INFORMATION
---------------------
There are 2 groups of distinct atoms

 Group   1 Type O   : 11s6p2d1f contracted to 5s3p2d1f pattern {62111/411/11/1}
 Group   2 Type H   : 5s1p contracted to 3s1p pattern {311/1}

Atom   0O    basis set group =>   1
Atom   1H    basis set group =>   2
Atom   2H    basis set group =>   2
Atom   3O    basis set group =>   1
Atom   4H    basis set group =>   2
Atom   5H    basis set group =>   2
Atom   6O    basis set group =>   1
Atom   7H    basis set group =>   2
Atom   8H    basis set group =>   2
Atom   9O    basis set group =>   1
Atom  10H    basis set group =>   2
Atom  11H    basis set group =>   2
Atom  12O    basis set group =>   1
Atom  13H    basis set group =>   2
Atom  14H    basis set group =>   2
Atom  15O    basis set group =>   1
Atom  16H    basis set group =>   2
Atom  17H    basis set group =>   2


           ************************************************************
           *        Program running with 6 parallel MPI-processes     *
           *              working on a common directory               *
           ************************************************************
------------------------------------------------------------------------------
                           ORCA GTO INTEGRAL CALCULATION
------------------------------------------------------------------------------

                         BASIS SET STATISTICS AND STARTUP INFO

 # of primitive gaussian shells          ...  192
 # of primitive gaussian functions       ...  372
 # of contracted shells                  ...  114
 # of contracted basis functions         ...  258
 Highest angular momentum                ...    3
 Maximum contraction depth               ...    6
 Integral package used                   ... LIBINT
 Integral threshhold            Thresh   ...  2.500e-11
 Primitive cut-off              TCut     ...  2.500e-12


------------------------------ INTEGRAL EVALUATION ----------------------------


 * One electron integrals 
 Pre-screening matrix                    ... done
 Shell pair data                         ... done (   0.001 sec)



           ************************************************************
           *        Program running with 6 parallel MPI-processes     *
           *              working on a common directory               *
           ************************************************************
-------------------------------------------------------------------------------
                                 ORCA SCF
-------------------------------------------------------------------------------

------------
SCF SETTINGS
------------
Hamiltonian:
 Ab initio Hamiltonian  Method          .... Hartree-Fock(GTOs)


General Settings:
 Integral files         IntName         .... 12h2o.su.etal.mol1,5,6,7,8,9-orca.engrad-mp2.def2tzvp.frozencore
 Hartree-Fock type      HFTyp           .... RHF
 Total Charge           Charge          ....    0
 Multiplicity           Mult            ....    1
 Number of Electrons    NEL             ....   60
 Basis Dimension        Dim             ....  258
 Nuclear Repulsion      ENuc            ....    275.7114784506 Eh

Convergence Acceleration:
 DIIS                   CNVDIIS         .... on
   Start iteration      DIISMaxIt       ....    12
   Startup error        DIISStart       ....  0.200000
   # of expansion vecs  DIISMaxEq       ....     5
   Bias factor          DIISBfac        ....   1.050
   Max. coefficient     DIISMaxC        ....  10.000
 Newton-Raphson         CNVNR           .... off
 SOSCF                  CNVSOSCF        .... on
   Start iteration      SOSCFMaxIt      ....   150
   Startup grad/error   SOSCFStart      ....  0.003300
 Level Shifting         CNVShift        .... on
   Level shift para.    LevelShift      ....    0.2500
   Turn off err/grad.   ShiftErr        ....    0.0010
 Zerner damping         CNVZerner       .... off
 Static damping         CNVDamp         .... on
   Fraction old density DampFac         ....    0.7000
   Max. Damping (<1)    DampMax         ....    0.9800
   Min. Damping (>=0)   DampMin         ....    0.0000
   Turn off err/grad.   DampErr         ....    0.1000
 Fernandez-Rico         CNVRico         .... off

SCF Procedure:
 Maximum # iterations   MaxIter         ....   125
 SCF integral mode      SCFMode         .... Direct
   Integral package                     .... LIBINT
 Reset frequency        DirectResetFreq ....    20
 Integral Threshold     Thresh          ....  2.500e-11 Eh
 Primitive CutOff       TCut            ....  2.500e-12 Eh

Convergence Tolerance:
 Convergence Check Mode ConvCheckMode   .... Total+1el-Energy
 Convergence forced     ConvForced      .... 1
 Energy Change          TolE            ....  1.000e-08 Eh
 1-El. energy change                    ....  1.000e-05 Eh
 Orbital Gradient       TolG            ....  1.000e-05
 Orbital Rotation angle TolX            ....  1.000e-05
 DIIS Error             TolErr          ....  5.000e-07


Diagonalization of the overlap matrix:
Smallest eigenvalue                        ... 3.481e-03
Time for diagonalization                   ...    0.035 sec
Threshold for overlap eigenvalues          ... 1.000e-08
Number of eigenvalues below threshold      ... 0
Time for construction of square roots      ...    0.048 sec
Total time needed                          ...    0.083 sec

-------------------
DFT GRID GENERATION
-------------------

General Integration Accuracy     IntAcc      ...  4.340
Radial Grid Type                 RadialGrid  ... Gauss-Chebyshev
Angular Grid (max. acc.)         AngularGrid ... Lebedev-110
Angular grid pruning method      GridPruning ... 3 (G Style)
Weight generation scheme         WeightScheme... Becke
Basis function cutoff            BFCut       ...    1.0000e-11
Integration weight cutoff        WCut        ...    1.0000e-14
Grids for H and He will be reduced by one unit

# of grid points (after initial pruning)     ...  19824 (   0.0 sec)
# of grid points (after weights+screening)   ...  18674 (   0.0 sec)
nearest neighbour list constructed           ...    0.0 sec
Grid point re-assignment to atoms done       ...    0.0 sec
Grid point division into batches done        ...    0.0 sec
Reduced shell lists constructed in    0.0 sec

Total number of grid points                  ...    18674
Total number of batches                      ...      300
Average number of points per batch           ...       62
Average number of grid points per atom       ...     1037
Average number of shells per batch           ...    57.92 (50.81%)
Average number of basis functions per batch  ...   119.69 (46.39%)
Average number of large shells per batch     ...    41.14 (71.02%)
Average number of large basis fcns per batch ...    83.25 (69.56%)
Maximum spatial batch extension              ...  13.26, 19.62, 12.41 au
Average spatial batch extension              ...   0.57,  0.70,  0.55 au

Time for grid setup =    0.100 sec

------------------------------
INITIAL GUESS: MODEL POTENTIAL
------------------------------
Loading Hartree-Fock densities                     ... done
Calculating cut-offs                               ... done
Setting up the integral package                    ... done
Initializing the effective Hamiltonian             ... done
Starting the Coulomb interaction                   ... done (   0.0 sec)
Reading the grid                                   ... done
Mapping shells                                     ... done
Starting the XC term evaluation                    ... done (   0.2 sec)
Transforming the Hamiltonian                       ... done (   0.0 sec)
Diagonalizing the Hamiltonian                      ... done (   0.0 sec)
Back transforming the eigenvectors                 ... done (   0.0 sec)
Now organizing SCF variables                       ... done
                      ------------------
                      INITIAL GUESS DONE (   0.5 sec)
                      ------------------
--------------
SCF ITERATIONS
--------------
ITER       Energy         Delta-E        Max-DP      RMS-DP      [F,P]     Damp
               ***  Starting incremental Fock matrix formation  ***
  0   -455.8416967700   0.000000000000 0.04475114  0.00096962  0.3434677 0.7000
  1   -456.0480668951  -0.206370125123 0.02968266  0.00067441  0.2169682 0.7000
                               ***Turning on DIIS***
  2   -456.1577472554  -0.109680360286 0.01639328  0.00037927  0.1636776 0.7000
  3   -457.1435186256  -0.985771370177 0.00730498  0.00017694  0.1218522 0.7000
  4   -456.9442516523   0.199266973269 0.01599194  0.00041313  0.0861854 0.0000
  5   -456.4093074864   0.534944165878 0.00236527  0.00006691  0.0052766 0.0000
                      *** Initiating the SOSCF procedure ***
                           *** Shutting down DIIS ***
                      *** Re-Reading the Fockian *** 
                      *** Removing any level shift *** 
ITER      Energy       Delta-E        Grad      Rot      Max-DP    RMS-DP
  6   -456.37875711   0.0305503738  0.000771  0.000771  0.001437  0.000041
               *** Restarting incremental Fock matrix formation ***
  7   -456.37024320   0.0085139122  0.000265  0.000366  0.000662  0.000018
  8   -456.37025222  -0.0000090203  0.000147  0.000290  0.000470  0.000015
  9   -456.37025435  -0.0000021293  0.000069  0.000048  0.000095  0.000003
 10   -456.37025453  -0.0000001750  0.000010  0.000006  0.000022  0.000000
                  ***Gradient check signals convergence***
              ***Rediagonalizing the Fockian in SOSCF/NRSCF***

               *****************************************************
               *                     SUCCESS                       *
               *           SCF CONVERGED AFTER  11 CYCLES          *
               *****************************************************


----------------
TOTAL SCF ENERGY
----------------

Total Energy       :         -456.37025453 Eh          -12418.46597 eV

Components:
Nuclear Repulsion  :          275.71147845 Eh            7502.49075 eV
Electronic Energy  :         -732.08173298 Eh          -19920.95672 eV
One Electron Energy:        -1179.15781987 Eh          -32086.51553 eV
Two Electron Energy:          447.07608689 Eh           12165.55881 eV

Virial components:
Potential Energy   :         -912.18532966 Eh          -24821.82474 eV
Kinetic Energy     :          455.81507513 Eh           12403.35877 eV
Virial Ratio       :            2.00121799


---------------
SCF CONVERGENCE
---------------

  Last Energy change         ...   -4.6065e-09  Tolerance :   1.0000e-08
  Last MAX-Density change    ...    5.5108e-06  Tolerance :   1.0000e-07
  Last RMS-Density change    ...    1.4232e-07  Tolerance :   5.0000e-09
  Last Orbital Gradient      ...    1.8372e-06  Tolerance :   1.0000e-05
  Last Orbital Rotation      ...    2.1651e-06  Tolerance :   1.0000e-05

             **** THE GBW FILE WAS UPDATED (12h2o.su.etal.mol1,5,6,7,8,9-orca.engrad-mp2.def2tzvp.frozencore.gbw) ****
             **** DENSITY FILE WAS UPDATED (12h2o.su.etal.mol1,5,6,7,8,9-orca.engrad-mp2.def2tzvp.frozencore.scfp) ****
             **** ENERGY FILE WAS UPDATED (12h2o.su.etal.mol1,5,6,7,8,9-orca.engrad-mp2.def2tzvp.frozencore.en.tmp) ****
             **** THE GBW FILE WAS UPDATED (12h2o.su.etal.mol1,5,6,7,8,9-orca.engrad-mp2.def2tzvp.frozencore.gbw) ****
             **** DENSITY FILE WAS UPDATED (12h2o.su.etal.mol1,5,6,7,8,9-orca.engrad-mp2.def2tzvp.frozencore.scfp) ****
----------------
ORBITAL ENERGIES
----------------

  NO   OCC          E(Eh)            E(eV) 
   0   2.0000     -20.638266      -561.5958 
   1   2.0000     -20.589589      -560.2712 
   2   2.0000     -20.589544      -560.2700 
   3   2.0000     -20.552115      -559.2515 
   4   2.0000     -20.537662      -558.8582 
   5   2.0000     -20.499476      -557.8191 
   6   2.0000      -1.421674       -38.6857 
   7   2.0000      -1.382884       -37.6302 
   8   2.0000      -1.372067       -37.3358 
   9   2.0000      -1.334009       -36.3002 
  10   2.0000      -1.322410       -35.9846 
  11   2.0000      -1.283582       -34.9280 
  12   2.0000      -0.778804       -21.1923 
  13   2.0000      -0.750458       -20.4210 
  14   2.0000      -0.737085       -20.0571 
  15   2.0000      -0.708598       -19.2819 
  16   2.0000      -0.707509       -19.2523 
  17   2.0000      -0.670192       -18.2368 
  18   2.0000      -0.657456       -17.8903 
  19   2.0000      -0.635606       -17.2957 
  20   2.0000      -0.606179       -16.4950 
  21   2.0000      -0.578144       -15.7321 
  22   2.0000      -0.576038       -15.6748 
  23   2.0000      -0.563803       -15.3419 
  24   2.0000      -0.548151       -14.9160 
  25   2.0000      -0.519440       -14.1347 
  26   2.0000      -0.511012       -13.9053 
  27   2.0000      -0.498199       -13.5567 
  28   2.0000      -0.482551       -13.1309 
  29   2.0000      -0.450435       -12.2569 
  30   0.0000       0.067047         1.8244 
  31   0.0000       0.126830         3.4512 
  32   0.0000       0.144080         3.9206 
  33   0.0000       0.158585         4.3153 
  34   0.0000       0.178572         4.8592 
  35   0.0000       0.193775         5.2729 
  36   0.0000       0.245529         6.6812 
  37   0.0000       0.251706         6.8493 
  38   0.0000       0.269065         7.3216 
  39   0.0000       0.307139         8.3577 
  40   0.0000       0.333508         9.0752 
  41   0.0000       0.343114         9.3366 
  42   0.0000       0.428677        11.6649 
  43   0.0000       0.440323        11.9818 
  44   0.0000       0.476061        12.9543 
  45   0.0000       0.493079        13.4174 
  46   0.0000       0.520317        14.1585 
  47   0.0000       0.532653        14.4942 
  48   0.0000       0.545039        14.8313 
  49   0.0000       0.553620        15.0648 
  50   0.0000       0.556280        15.1371 
  51   0.0000       0.573012        15.5925 
  52   0.0000       0.591711        16.1013 
  53   0.0000       0.607353        16.5269 
  54   0.0000       0.612678        16.6718 
  55   0.0000       0.627934        17.0869 
  56   0.0000       0.632785        17.2189 
  57   0.0000       0.642556        17.4848 
  58   0.0000       0.667750        18.1704 
  59   0.0000       0.683096        18.5880 
  60   0.0000       0.701256        19.0821 
  61   0.0000       0.711654        19.3651 
  62   0.0000       0.734815        19.9953 
  63   0.0000       0.748411        20.3653 
  64   0.0000       0.775176        21.0936 
  65   0.0000       0.782901        21.3038 
  66   0.0000       0.788835        21.4653 
  67   0.0000       0.791765        21.5450 
  68   0.0000       0.827449        22.5160 
  69   0.0000       0.836450        22.7610 
  70   0.0000       0.863129        23.4869 
  71   0.0000       0.900377        24.5005 
  72   0.0000       0.916308        24.9340 
  73   0.0000       0.969045        26.3691 
  74   0.0000       1.010601        27.4999 
  75   0.0000       1.021765        27.8036 
  76   0.0000       1.075017        29.2527 
  77   0.0000       1.102559        30.0022 
  78   0.0000       1.323773        36.0217 
  79   0.0000       1.354073        36.8462 
  80   0.0000       1.360299        37.0156 
  81   0.0000       1.392228        37.8845 
  82   0.0000       1.418132        38.5893 
  83   0.0000       1.421562        38.6827 
  84   0.0000       1.444211        39.2990 
  85   0.0000       1.453903        39.5627 
  86   0.0000       1.464625        39.8545 
  87   0.0000       1.485618        40.4257 
  88   0.0000       1.522002        41.4158 
  89   0.0000       1.531241        41.6672 
  90   0.0000       1.550790        42.1992 
  91   0.0000       1.586884        43.1813 
  92   0.0000       1.590798        43.2878 
  93   0.0000       1.594222        43.3810 
  94   0.0000       1.621419        44.1211 
  95   0.0000       1.685051        45.8526 
  96   0.0000       1.774021        48.2736 
  97   0.0000       1.791787        48.7570 
  98   0.0000       1.813225        49.3404 
  99   0.0000       1.833707        49.8977 
 100   0.0000       1.858306        50.5671 
 101   0.0000       1.878545        51.1178 
 102   0.0000       1.918885        52.2155 
 103   0.0000       1.939384        52.7733 
 104   0.0000       1.954476        53.1840 
 105   0.0000       1.968568        53.5675 
 106   0.0000       2.002698        54.4962 
 107   0.0000       2.035321        55.3839 
 108   0.0000       2.047405        55.7127 
 109   0.0000       2.064057        56.1658 
 110   0.0000       2.101381        57.1815 
 111   0.0000       2.149599        58.4936 
 112   0.0000       2.172512        59.1170 
 113   0.0000       2.183380        59.4128 
 114   0.0000       2.238671        60.9173 
 115   0.0000       2.261505        61.5387 
 116   0.0000       2.276631        61.9503 
 117   0.0000       2.311668        62.9037 
 118   0.0000       2.320881        63.1544 
 119   0.0000       2.328610        63.3647 
 120   0.0000       2.350394        63.9575 
 121   0.0000       2.354133        64.0592 
 122   0.0000       2.369598        64.4800 
 123   0.0000       2.386203        64.9319 
 124   0.0000       2.413395        65.6718 
 125   0.0000       2.424407        65.9715 
 126   0.0000       2.446886        66.5831 
 127   0.0000       2.458593        66.9017 
 128   0.0000       2.511804        68.3497 
 129   0.0000       2.541100        69.1469 
 130   0.0000       2.549805        69.3837 
 131   0.0000       2.562851        69.7387 
 132   0.0000       2.581507        70.2464 
 133   0.0000       2.590323        70.4863 
 134   0.0000       2.607631        70.9572 
 135   0.0000       2.629954        71.5647 
 136   0.0000       2.637266        71.7636 
 137   0.0000       2.659153        72.3592 
 138   0.0000       2.675188        72.7956 
 139   0.0000       2.697197        73.3945 
 140   0.0000       2.712175        73.8020 
 141   0.0000       2.744618        74.6848 
 142   0.0000       2.783855        75.7525 
 143   0.0000       2.796902        76.1076 
 144   0.0000       2.877745        78.3074 
 145   0.0000       2.884622        78.4946 
 146   0.0000       2.912175        79.2443 
 147   0.0000       2.952246        80.3347 
 148   0.0000       2.970573        80.8334 
 149   0.0000       2.976587        80.9971 
 150   0.0000       2.977534        81.0228 
 151   0.0000       3.014653        82.0329 
 152   0.0000       3.037037        82.6420 
 153   0.0000       3.048405        82.9513 
 154   0.0000       3.075017        83.6755 
 155   0.0000       3.096490        84.2598 
 156   0.0000       3.112710        84.7012 
 157   0.0000       3.136619        85.3517 
 158   0.0000       3.174608        86.3855 
 159   0.0000       3.200584        87.0923 
 160   0.0000       3.228590        87.8544 
 161   0.0000       3.241304        88.2004 
 162   0.0000       3.288732        89.4909 
 163   0.0000       3.325877        90.5017 
 164   0.0000       3.331926        90.6663 
 165   0.0000       3.404653        92.6453 
 166   0.0000       3.473179        94.5100 
 167   0.0000       3.526396        95.9581 
 168   0.0000       3.977690       108.2384 
 169   0.0000       4.042647       110.0060 
 170   0.0000       4.049801       110.2007 
 171   0.0000       4.095617       111.4474 
 172   0.0000       4.113915       111.9453 
 173   0.0000       4.154151       113.0402 
 174   0.0000       4.232252       115.1654 
 175   0.0000       4.290945       116.7625 
 176   0.0000       4.315935       117.4426 
 177   0.0000       4.323081       117.6370 
 178   0.0000       4.387936       119.4018 
 179   0.0000       4.404372       119.8491 
 180   0.0000       5.470540       148.8610 
 181   0.0000       5.512191       149.9943 
 182   0.0000       5.516971       150.1244 
 183   0.0000       5.556166       151.1909 
 184   0.0000       5.570931       151.5927 
 185   0.0000       5.597055       152.3036 
 186   0.0000       5.602902       152.4627 
 187   0.0000       5.641755       153.5200 
 188   0.0000       5.652924       153.8239 
 189   0.0000       5.661151       154.0477 
 190   0.0000       5.668814       154.2563 
 191   0.0000       5.712862       155.4549 
 192   0.0000       5.746759       156.3773 
 193   0.0000       5.773778       157.1125 
 194   0.0000       5.798187       157.7767 
 195   0.0000       5.801174       157.8580 
 196   0.0000       5.811850       158.1485 
 197   0.0000       5.816830       158.2840 
 198   0.0000       5.831406       158.6806 
 199   0.0000       5.835055       158.7799 
 200   0.0000       5.857019       159.3776 
 201   0.0000       5.862204       159.5187 
 202   0.0000       5.869268       159.7109 
 203   0.0000       5.874827       159.8622 
 204   0.0000       5.879533       159.9902 
 205   0.0000       5.891464       160.3149 
 206   0.0000       5.907813       160.7598 
 207   0.0000       5.927658       161.2998 
 208   0.0000       5.949223       161.8866 
 209   0.0000       5.961521       162.2212 
 210   0.0000       6.396825       174.0665 
 211   0.0000       6.436059       175.1341 
 212   0.0000       6.462071       175.8419 
 213   0.0000       6.488799       176.5692 
 214   0.0000       6.497086       176.7947 
 215   0.0000       6.522817       177.4949 
 216   0.0000       6.636431       180.5865 
 217   0.0000       6.675378       181.6463 
 218   0.0000       6.695553       182.1953 
 219   0.0000       6.715853       182.7477 
 220   0.0000       6.734179       183.2463 
 221   0.0000       6.761394       183.9869 
 222   0.0000       6.815466       185.4583 
 223   0.0000       6.830108       185.8567 
 224   0.0000       6.843487       186.2208 
 225   0.0000       6.848182       186.3485 
 226   0.0000       6.866700       186.8524 
 227   0.0000       6.880546       187.2292 
 228   0.0000       6.894076       187.5974 
 229   0.0000       6.898632       187.7213 
 230   0.0000       6.908474       187.9891 
 231   0.0000       6.933068       188.6584 
 232   0.0000       6.948856       189.0880 
 233   0.0000       6.959236       189.3704 
 234   0.0000       6.964622       189.5170 
 235   0.0000       6.987389       190.1365 
 236   0.0000       6.996143       190.3747 
 237   0.0000       7.030193       191.3013 
 238   0.0000       7.036475       191.4722 
 239   0.0000       7.086110       192.8229 
 240   0.0000       7.327013       199.3782 
 241   0.0000       7.376004       200.7113 
 242   0.0000       7.406350       201.5370 
 243   0.0000       7.408680       201.6004 
 244   0.0000       7.476941       203.4579 
 245   0.0000       7.488291       203.7667 
 246   0.0000       7.506713       204.2681 
 247   0.0000       7.524404       204.7494 
 248   0.0000       7.542697       205.2472 
 249   0.0000       7.566591       205.8974 
 250   0.0000       7.573294       206.0798 
 251   0.0000       7.655585       208.3191 
 252   0.0000      44.903129      1221.8763 
 253   0.0000      44.922366      1222.3997 
 254   0.0000      44.962205      1223.4838 
 255   0.0000      44.990120      1224.2434 
 256   0.0000      45.051920      1225.9251 
 257   0.0000      45.085417      1226.8366 

                    ********************************
                    * MULLIKEN POPULATION ANALYSIS *
                    ********************************

-----------------------
MULLIKEN ATOMIC CHARGES
-----------------------
   0 O :   -0.766904
   1 H :    0.343282
   2 H :    0.395392
   3 O :   -0.773346
   4 H :    0.388329
   5 H :    0.384103
   6 O :   -0.745919
   7 H :    0.373946
   8 H :    0.394217
   9 O :   -0.772209
  10 H :    0.383840
  11 H :    0.360178
  12 O :   -0.714670
  13 H :    0.378102
  14 H :    0.340246
  15 O :   -0.718870
  16 H :    0.408623
  17 H :    0.341659
Sum of atomic charges:   -0.0000000

--------------------------------
MULLIKEN REDUCED ORBITAL CHARGES
--------------------------------
  0 O s       :     3.807677  s :     3.807677
      pz      :     1.710636  p :     4.934642
      px      :     1.413354
      py      :     1.810653
      dz2     :     0.003745  d :     0.023149
      dxz     :     0.004311
      dyz     :     0.005466
      dx2y2   :     0.002284
      dxy     :     0.007344
      f0      :     0.000080  f :     0.001435
      f+1     :     0.000313
      f-1     :     0.000179
      f+2     :     0.000070
      f-2     :     0.000350
      f+3     :     0.000089
      f-3     :     0.000355
  1 H s       :     0.610882  s :     0.610882
      pz      :     0.016849  p :     0.045835
      px      :     0.013922
      py      :     0.015065
  2 H s       :     0.548052  s :     0.548052
      pz      :     0.010385  p :     0.056556
      px      :     0.032110
      py      :     0.014061
  3 O s       :     3.801226  s :     3.801226
      pz      :     1.573686  p :     4.947801
      px      :     1.856995
      py      :     1.517120
      dz2     :     0.010444  d :     0.022932
      dxz     :     0.002003
      dyz     :     0.002462
      dx2y2   :     0.003191
      dxy     :     0.004832
      f0      :     0.000193  f :     0.001388
      f+1     :     0.000115
      f-1     :     0.000445
      f+2     :     0.000071
      f-2     :     0.000038
      f+3     :     0.000424
      f-3     :     0.000103
  4 H s       :     0.559288  s :     0.559288
      pz      :     0.008897  p :     0.052383
      px      :     0.014735
      py      :     0.028752
  5 H s       :     0.572186  s :     0.572186
      pz      :     0.019095  p :     0.043710
      px      :     0.012998
      py      :     0.011617
  6 O s       :     3.806135  s :     3.806135
      pz      :     1.568057  p :     4.913545
      px      :     1.492683
      py      :     1.852805
      dz2     :     0.011283  d :     0.024811
      dxz     :     0.002731
      dyz     :     0.002199
      dx2y2   :     0.003539
      dxy     :     0.005060
      f0      :     0.000186  f :     0.001428
      f+1     :     0.000457
      f-1     :     0.000116
      f+2     :     0.000068
      f-2     :     0.000038
      f+3     :     0.000107
      f-3     :     0.000455
  7 H s       :     0.582224  s :     0.582224
      pz      :     0.019110  p :     0.043830
      px      :     0.011494
      py      :     0.013226
  8 H s       :     0.564532  s :     0.564532
      pz      :     0.008833  p :     0.041251
      px      :     0.019070
      py      :     0.013348
  9 O s       :     3.805050  s :     3.805050
      pz      :     1.589087  p :     4.941651
      px      :     1.482170
      py      :     1.870394
      dz2     :     0.010858  d :     0.024112
      dxz     :     0.002754
      dyz     :     0.002428
      dx2y2   :     0.003060
      dxy     :     0.005012
      f0      :     0.000163  f :     0.001396
      f+1     :     0.000439
      f-1     :     0.000117
      f+2     :     0.000077
      f-2     :     0.000040
      f+3     :     0.000116
      f-3     :     0.000443
 10 H s       :     0.567210  s :     0.567210
      pz      :     0.024535  p :     0.048951
      px      :     0.011276
      py      :     0.013140
 11 H s       :     0.585454  s :     0.585454
      pz      :     0.010155  p :     0.054368
      px      :     0.028023
      py      :     0.016190
 12 O s       :     3.812043  s :     3.812043
      pz      :     1.541289  p :     4.875235
      px      :     1.518963
      py      :     1.814983
      dz2     :     0.011865  d :     0.025893
      dxz     :     0.001270
      dyz     :     0.003075
      dx2y2   :     0.002117
      dxy     :     0.007565
      f0      :     0.000254  f :     0.001500
      f+1     :     0.000376
      f-1     :     0.000168
      f+2     :     0.000055
      f-2     :     0.000056
      f+3     :     0.000070
      f-3     :     0.000521
 13 H s       :     0.573141  s :     0.573141
      pz      :     0.023654  p :     0.048757
      px      :     0.011788
      py      :     0.013314
 14 H s       :     0.614843  s :     0.614843
      pz      :     0.010923  p :     0.044911
      px      :     0.018166
      py      :     0.015822
 15 O s       :     3.798087  s :     3.798087
      pz      :     1.578640  p :     4.894107
      px      :     1.781989
      py      :     1.533478
      dz2     :     0.011969  d :     0.025272
      dxz     :     0.002425
      dyz     :     0.001189
      dx2y2   :     0.002546
      dxy     :     0.007142
      f0      :     0.000227  f :     0.001405
      f+1     :     0.000157
      f-1     :     0.000381
      f+2     :     0.000050
      f-2     :     0.000056
      f+3     :     0.000480
      f-3     :     0.000054
 16 H s       :     0.543529  s :     0.543529
      pz      :     0.025000  p :     0.047848
      px      :     0.011814
      py      :     0.011034
 17 H s       :     0.614167  s :     0.614167
      pz      :     0.010853  p :     0.044174
      px      :     0.015138
      py      :     0.018183


                     *******************************
                     * LOEWDIN POPULATION ANALYSIS *
                     *******************************

----------------------
LOEWDIN ATOMIC CHARGES
----------------------
   0 O :   -0.347765
   1 H :    0.151808
   2 H :    0.152771
   3 O :   -0.307814
   4 H :    0.153028
   5 H :    0.178585
   6 O :   -0.286055
   7 H :    0.174774
   8 H :    0.191196
   9 O :   -0.377668
  10 H :    0.151833
  11 H :    0.139631
  12 O :   -0.337897
  13 H :    0.153288
  14 H :    0.163406
  15 O :   -0.282535
  16 H :    0.165490
  17 H :    0.163924

-------------------------------
LOEWDIN REDUCED ORBITAL CHARGES
-------------------------------
  0 O s       :     3.461786  s :     3.461786
      pz      :     1.678143  p :     4.854337
      px      :     1.393917
      py      :     1.782277
      dz2     :     0.004747  d :     0.029643
      dxz     :     0.006858
      dyz     :     0.005697
      dx2y2   :     0.003287
      dxy     :     0.009053
      f0      :     0.000086  f :     0.001999
      f+1     :     0.000431
      f-1     :     0.000263
      f+2     :     0.000034
      f-2     :     0.000620
      f+3     :     0.000085
      f-3     :     0.000480
  1 H s       :     0.683332  s :     0.683332
      pz      :     0.065908  p :     0.164860
      px      :     0.045677
      py      :     0.053275
  2 H s       :     0.652089  s :     0.652089
      pz      :     0.033635  p :     0.195140
      px      :     0.113872
      py      :     0.047632
  3 O s       :     3.454637  s :     3.454637
      pz      :     1.539375  p :     4.821365
      px      :     1.795514
      py      :     1.486476
      dz2     :     0.014179  d :     0.029815
      dxz     :     0.001291
      dyz     :     0.003737
      dx2y2   :     0.004697
      dxy     :     0.005911
      f0      :     0.000372  f :     0.001997
      f+1     :     0.000197
      f-1     :     0.000724
      f+2     :     0.000039
      f-2     :     0.000045
      f+3     :     0.000552
      f-3     :     0.000068
  4 H s       :     0.661480  s :     0.661480
      pz      :     0.029422  p :     0.185493
      px      :     0.052756
      py      :     0.103314
  5 H s       :     0.661345  s :     0.661345
      pz      :     0.080557  p :     0.160070
      px      :     0.042844
      py      :     0.036669
  6 O s       :     3.462306  s :     3.462306
      pz      :     1.536526  p :     4.789205
      px      :     1.464284
      py      :     1.788396
      dz2     :     0.015749  d :     0.032476
      dxz     :     0.004035
      dyz     :     0.001396
      dx2y2   :     0.005068
      dxy     :     0.006228
      f0      :     0.000376  f :     0.002068
      f+1     :     0.000739
      f-1     :     0.000204
      f+2     :     0.000040
      f-2     :     0.000044
      f+3     :     0.000069
      f-3     :     0.000595
  7 H s       :     0.666238  s :     0.666238
      pz      :     0.080498  p :     0.158989
      px      :     0.035717
      py      :     0.042774
  8 H s       :     0.653831  s :     0.653831
      pz      :     0.028946  p :     0.154973
      px      :     0.077022
      py      :     0.049006
  9 O s       :     3.464462  s :     3.464462
      pz      :     1.572639  p :     4.882075
      px      :     1.473712
      py      :     1.835724
      dz2     :     0.013508  d :     0.029176
      dxz     :     0.003740
      dyz     :     0.001527
      dx2y2   :     0.004102
      dxy     :     0.006300
      f0      :     0.000340  f :     0.001955
      f+1     :     0.000701
      f-1     :     0.000188
      f+2     :     0.000043
      f-2     :     0.000042
      f+3     :     0.000069
      f-3     :     0.000572
 10 H s       :     0.674840  s :     0.674840
      pz      :     0.093336  p :     0.173327
      px      :     0.037109
      py      :     0.042883
 11 H s       :     0.676581  s :     0.676581
      pz      :     0.031138  p :     0.183788
      px      :     0.099691
      py      :     0.052958
 12 O s       :     3.468246  s :     3.468246
      pz      :     1.528258  p :     4.834879
      px      :     1.520398
      py      :     1.786223
      dz2     :     0.015832  d :     0.032617
      dxz     :     0.001958
      dyz     :     0.002411
      dx2y2   :     0.002369
      dxy     :     0.010047
      f0      :     0.000454  f :     0.002155
      f+1     :     0.000570
      f-1     :     0.000321
      f+2     :     0.000024
      f-2     :     0.000045
      f+3     :     0.000003
      f-3     :     0.000738
 13 H s       :     0.677666  s :     0.677666
      pz      :     0.090796  p :     0.169046
      px      :     0.035938
      py      :     0.042312
 14 H s       :     0.679447  s :     0.679447
      pz      :     0.031019  p :     0.157147
      px      :     0.071423
      py      :     0.054705
 15 O s       :     3.454118  s :     3.454118
      pz      :     1.545797  p :     4.793733
      px      :     1.724912
      py      :     1.523024
      dz2     :     0.015495  d :     0.032547
      dxz     :     0.001836
      dyz     :     0.001678
      dx2y2   :     0.003874
      dxy     :     0.009663
      f0      :     0.000403  f :     0.002137
      f+1     :     0.000335
      f-1     :     0.000563
      f+2     :     0.000021
      f-2     :     0.000045
      f+3     :     0.000743
      f-3     :     0.000027
 16 H s       :     0.662460  s :     0.662460
      pz      :     0.094989  p :     0.172050
      px      :     0.041262
      py      :     0.035799
 17 H s       :     0.678270  s :     0.678270
      pz      :     0.031539  p :     0.157806
      px      :     0.054879
      py      :     0.071388


                      *****************************
                      * MAYER POPULATION ANALYSIS *
                      *****************************

  NA   - Mulliken gross atomic population
  ZA   - Total nuclear charge
  QA   - Mulliken gross atomic charge
  VA   - Mayer's total valence
  BVA  - Mayer's bonded valence
  FA   - Mayer's free valence

  ATOM       NA         ZA         QA         VA         BVA        FA
  0 O      8.7669     8.0000    -0.7669     1.6943     1.6943    -0.0000
  1 H      0.6567     1.0000     0.3433     0.8983     0.8983    -0.0000
  2 H      0.6046     1.0000     0.3954     0.8807     0.8807    -0.0000
  3 O      8.7733     8.0000    -0.7733     1.7039     1.7039    -0.0000
  4 H      0.6117     1.0000     0.3883     0.8854     0.8854    -0.0000
  5 H      0.6159     1.0000     0.3841     0.8709     0.8709    -0.0000
  6 O      8.7459     8.0000    -0.7459     1.7518     1.7518    -0.0000
  7 H      0.6261     1.0000     0.3739     0.8765     0.8765    -0.0000
  8 H      0.6058     1.0000     0.3942     0.8642     0.8642    -0.0000
  9 O      8.7722     8.0000    -0.7722     1.7008     1.7008    -0.0000
 10 H      0.6162     1.0000     0.3838     0.8845     0.8845     0.0000
 11 H      0.6398     1.0000     0.3602     0.9058     0.9058    -0.0000
 12 O      8.7147     8.0000    -0.7147     1.7679     1.7679    -0.0000
 13 H      0.6219     1.0000     0.3781     0.8763     0.8763    -0.0000
 14 H      0.6598     1.0000     0.3402     0.8989     0.8989     0.0000
 15 O      8.7189     8.0000    -0.7189     1.7607     1.7607    -0.0000
 16 H      0.5914     1.0000     0.4086     0.8592     0.8592    -0.0000
 17 H      0.6583     1.0000     0.3417     0.8990     0.8990    -0.0000

  Mayer bond orders larger than 0.100000
B(  0-O ,  1-H ) :   0.8899 B(  0-O ,  2-H ) :   0.8043 B(  3-O ,  4-H ) :   0.8181 
B(  3-O ,  5-H ) :   0.8608 B(  6-O ,  7-H ) :   0.8669 B(  6-O ,  8-H ) :   0.8453 
B(  9-O , 10-H ) :   0.8495 B(  9-O , 11-H ) :   0.8578 B( 12-O , 13-H ) :   0.8637 
B( 12-O , 14-H ) :   0.8937 B( 15-O , 16-H ) :   0.8276 B( 15-O , 17-H ) :   0.8903 


-------
TIMINGS
-------

Total SCF time: 0 days 0 hours 0 min 17 sec 

Total time                  ....      17.351 sec
Sum of individual times     ....      16.831 sec  ( 97.0%)

Fock matrix formation       ....      15.632 sec  ( 90.1%)
Diagonalization             ....       0.347 sec  (  2.0%)
Density matrix formation    ....       0.080 sec  (  0.5%)
Population analysis         ....       0.057 sec  (  0.3%)
Initial guess               ....       0.352 sec  (  2.0%)
Orbital Transformation      ....       0.000 sec  (  0.0%)
Orbital Orthonormalization  ....       0.000 sec  (  0.0%)
DIIS solution               ....       0.122 sec  (  0.7%)
SOSCF solution              ....       0.143 sec  (  0.8%)


           ************************************************************
           *        Program running with 6 parallel MPI-processes     *
           *              working on a common directory               *
           ************************************************************

------------------------------------------------------------------------------
                                ORCA  MP2 
------------------------------------------------------------------------------

Freezing NCore=12 chemical core electrons
MP2 will be done in the AO integral direct mode
The Q1-step will be done using symmetric double matrices
Dimension of the basis                    ...  258
Memory devoted for MP2                    ... 8000 MB   
Memory needed for all in one shot         ...  264 MB
Number of MOs that can be treated together...  120      
MP2 density construction                  ... relaxed
The MP2 gradient is requested => amplitudes will be stored on disk
Total number of MOs              ...   24
Number of MOs treated per batch  ...    4 
Number of batches necessary      ...    1 
OPERATORS   0/  0 PASS   0
-----------------------------------------------
 MP2 CORRELATION ENERGY   :     -1.552412268 Eh
-----------------------------------------------


---------------------
MP2 DENSITY FORMATION
---------------------

Completing the external part of the density      ... done
Storing the unrelaxed density                    ... done

Calculating G(D)                                 ... done
Completing the Lagrangian                        ... done
Solving the Z-vector equations                   ... 

------------------------------------------------------------------------------
                           ORCA CP-SCF CALCULATION
------------------------------------------------------------------------------

Input orbitals are from        ... 12h2o.su.etal.mol1,5,6,7,8,9-orca.engrad-mp2.def2tzvp.frozencore.gbw
Input Perturbation             ... 12h2o.su.etal.mol1,5,6,7,8,9-orca.engrad-mp2.def2tzvp.frozencore.pin.tmp
Wavefunction output            ... 12h2o.su.etal.mol1,5,6,7,8,9-orca.engrad-mp2.def2tzvp.frozencore.pout.tmp
Perturbation mode              ... Real perturbation (singlet)
Solver                         ... POPLE
Max. number of iterations      ... 128
Convergence tolerance          ... 1.000e-08
Integral handling              ... Direct
Number of perturbations        ... 1
Number of operators            ... 1
Orbital ranges used for CP-SCF:
 Operator 0:  Orbitals   0... 29  to  30...257
Variables per vector in CP-SCF ... 6840
Number of vectors sought       ... 1
     CP-SCF ITERATION   0: 
     CP-SCF ITERATION   1:      0.000740818765
     CP-SCF ITERATION   2:      0.000018820220
     CP-SCF ITERATION   3:      0.000000770660
     CP-SCF ITERATION   4:      0.000000076609
     CP-SCF ITERATION   5:      0.000000006479
                                                 ... done
Finalizing the relaxed density                   ... done
Transforming P to the AO basis                   ... done
Storing the relaxed density                      ... done

------------------------------------
ENERGY WEIGHTED DENSITY FINALIZATION
------------------------------------

Gathering the parts of the W-matrix              ...                                                      done
Forming the Z-density                            ... done
Transforming Z to the AO basis                   ... done
Calculating G(Z)                                 ... done
Finalizing the W-matrix                          ...                                                      done
Transforming W to the AO basis and storing       ... done

                *********************************************
                * UNRELAXED MP2 DENSITY POPULATION ANALYSIS *
                *********************************************

------------------------------------------------------------------------------
                           ORCA POPULATION ANALYSIS
------------------------------------------------------------------------------
Input electron density              ... 12h2o.su.etal.mol1,5,6,7,8,9-orca.engrad-mp2.def2tzvp.frozencore.pmp2ur
BaseName (.gbw .S,...)              ... 12h2o.su.etal.mol1,5,6,7,8,9-orca.engrad-mp2.def2tzvp.frozencore

                    ********************************
                    * MULLIKEN POPULATION ANALYSIS *
                    ********************************

-----------------------
MULLIKEN ATOMIC CHARGES
-----------------------
   0 O :   -0.760993
   1 H :    0.340973
   2 H :    0.390737
   3 O :   -0.766533
   4 H :    0.383836
   5 H :    0.381708
   6 O :   -0.739660
   7 H :    0.371572
   8 H :    0.391308
   9 O :   -0.765945
  10 H :    0.380684
  11 H :    0.355933
  12 O :   -0.709359
  13 H :    0.375361
  14 H :    0.337839
  15 O :   -0.712249
  16 H :    0.405641
  17 H :    0.339149
Sum of atomic charges:   -0.0000000

--------------------------------
MULLIKEN REDUCED ORBITAL CHARGES
--------------------------------
  0 O s       :     3.802716  s :     3.802716
      pz      :     1.699745  p :     4.903668
      px      :     1.404677
      py      :     1.799246
      dz2     :     0.009382  d :     0.050592
      dxz     :     0.009796
      dyz     :     0.010894
      dx2y2   :     0.007815
      dxy     :     0.012705
      f0      :     0.000452  f :     0.004017
      f+1     :     0.000679
      f-1     :     0.000544
      f+2     :     0.000439
      f-2     :     0.000717
      f+3     :     0.000463
      f-3     :     0.000722
  1 H s       :     0.611516  s :     0.611516
      pz      :     0.017348  p :     0.047512
      px      :     0.014373
      py      :     0.015792
  2 H s       :     0.551044  s :     0.551044
      pz      :     0.011210  p :     0.058219
      px      :     0.032216
      py      :     0.014793
  3 O s       :     3.795991  s :     3.795991
      pz      :     1.563990  p :     4.915690
      px      :     1.844094
      py      :     1.507605
      dz2     :     0.015866  d :     0.050861
      dxz     :     0.007733
      dyz     :     0.007962
      dx2y2   :     0.008895
      dxy     :     0.010405
      f0      :     0.000578  f :     0.003990
      f+1     :     0.000491
      f-1     :     0.000814
      f+2     :     0.000438
      f-2     :     0.000407
      f+3     :     0.000787
      f-3     :     0.000476
  4 H s       :     0.562143  s :     0.562143
      pz      :     0.009687  p :     0.054021
      px      :     0.015431
      py      :     0.028903
  5 H s       :     0.573069  s :     0.573069
      pz      :     0.019204  p :     0.045223
      px      :     0.013816
      py      :     0.012204
  6 O s       :     3.801032  s :     3.801032
      pz      :     1.558572  p :     4.882420
      px      :     1.483782
      py      :     1.840066
      dz2     :     0.016565  d :     0.052198
      dxz     :     0.008105
      dyz     :     0.007865
      dx2y2   :     0.009104
      dxy     :     0.010560
      f0      :     0.000571  f :     0.004010
      f+1     :     0.000822
      f-1     :     0.000492
      f+2     :     0.000433
      f-2     :     0.000404
      f+3     :     0.000477
      f-3     :     0.000811
  7 H s       :     0.583053  s :     0.583053
      pz      :     0.019257  p :     0.045375
      px      :     0.012065
      py      :     0.014052
  8 H s       :     0.566004  s :     0.566004
      pz      :     0.009590  p :     0.042689
      px      :     0.019059
      py      :     0.014040
  9 O s       :     3.800065  s :     3.800065
      pz      :     1.579233  p :     4.910603
      px      :     1.473014
      py      :     1.858356
      dz2     :     0.016097  d :     0.051302
      dxz     :     0.008189
      dyz     :     0.007998
      dx2y2   :     0.008577
      dxy     :     0.010440
      f0      :     0.000549  f :     0.003975
      f+1     :     0.000810
      f-1     :     0.000489
      f+2     :     0.000441
      f-2     :     0.000406
      f+3     :     0.000482
      f-3     :     0.000799
 10 H s       :     0.568806  s :     0.568806
      pz      :     0.024629  p :     0.050510
      px      :     0.011895
      py      :     0.013985
 11 H s       :     0.587901  s :     0.587901
      pz      :     0.011031  p :     0.056166
      px      :     0.028186
      py      :     0.016948
 12 O s       :     3.807278  s :     3.807278
      pz      :     1.531978  p :     4.845559
      px      :     1.509916
      py      :     1.803666
      dz2     :     0.016957  d :     0.052464
      dxz     :     0.006639
      dyz     :     0.008529
      dx2y2   :     0.007582
      dxy     :     0.012758
      f0      :     0.000633  f :     0.004058
      f+1     :     0.000742
      f-1     :     0.000541
      f+2     :     0.000414
      f-2     :     0.000420
      f+3     :     0.000436
      f-3     :     0.000872
 13 H s       :     0.574276  s :     0.574276
      pz      :     0.023737  p :     0.050363
      px      :     0.012455
      py      :     0.014171
 14 H s       :     0.615574  s :     0.615574
      pz      :     0.011734  p :     0.046587
      px      :     0.018343
      py      :     0.016510
 15 O s       :     3.792915  s :     3.792915
      pz      :     1.568898  p :     4.862785
      px      :     1.769662
      py      :     1.524225
      dz2     :     0.017183  d :     0.052550
      dxz     :     0.008041
      dyz     :     0.006634
      dx2y2   :     0.008178
      dxy     :     0.012513
      f0      :     0.000612  f :     0.004000
      f+1     :     0.000536
      f-1     :     0.000750
      f+2     :     0.000414
      f-2     :     0.000423
      f+3     :     0.000838
      f-3     :     0.000428
 16 H s       :     0.545076  s :     0.545076
      pz      :     0.025036  p :     0.049284
      px      :     0.012596
      py      :     0.011652
 17 H s       :     0.615024  s :     0.615024
      pz      :     0.011664  p :     0.045827
      px      :     0.015781
      py      :     0.018382


                     *******************************
                     * LOEWDIN POPULATION ANALYSIS *
                     *******************************

----------------------
LOEWDIN ATOMIC CHARGES
----------------------
   0 O :   -0.344601
   1 H :    0.150472
   2 H :    0.150174
   3 O :   -0.303429
   4 H :    0.150339
   5 H :    0.177170
   6 O :   -0.281311
   7 H :    0.173353
   8 H :    0.189493
   9 O :   -0.374826
  10 H :    0.149785
  11 H :    0.137023
  12 O :   -0.334840
  13 H :    0.151479
  14 H :    0.161989
  15 O :   -0.278192
  16 H :    0.163596
  17 H :    0.162328

-------------------------------
LOEWDIN REDUCED ORBITAL CHARGES
-------------------------------
  0 O s       :     3.458140  s :     3.458140
      pz      :     1.666774  p :     4.823471
      px      :     1.385464
      py      :     1.771233
      dz2     :     0.010476  d :     0.058213
      dxz     :     0.012556
      dyz     :     0.011465
      dx2y2   :     0.008927
      dxy     :     0.014788
      f0      :     0.000470  f :     0.004778
      f+1     :     0.000846
      f-1     :     0.000648
      f+2     :     0.000411
      f-2     :     0.001031
      f+3     :     0.000473
      f-3     :     0.000899
  1 H s       :     0.681413  s :     0.681413
      pz      :     0.067194  p :     0.168115
      px      :     0.046628
      py      :     0.054293
  2 H s       :     0.652214  s :     0.652214
      pz      :     0.034485  p :     0.197612
      px      :     0.114619
      py      :     0.048509
  3 O s       :     3.450884  s :     3.450884
      pz      :     1.529031  p :     4.788935
      px      :     1.782761
      py      :     1.477143
      dz2     :     0.020211  d :     0.058810
      dxz     :     0.006947
      dyz     :     0.009266
      dx2y2   :     0.010564
      dxy     :     0.011821
      f0      :     0.000790  f :     0.004800
      f+1     :     0.000590
      f-1     :     0.001163
      f+2     :     0.000414
      f-2     :     0.000420
      f+3     :     0.000971
      f-3     :     0.000452
  4 H s       :     0.661388  s :     0.661388
      pz      :     0.030248  p :     0.188273
      px      :     0.053638
      py      :     0.104387
  5 H s       :     0.659833  s :     0.659833
      pz      :     0.081948  p :     0.162997
      px      :     0.043612
      py      :     0.037438
  6 O s       :     3.458440  s :     3.458440
      pz      :     1.526321  p :     4.757114
      px      :     1.455167
      py      :     1.775625
      dz2     :     0.021665  d :     0.060910
      dxz     :     0.009449
      dyz     :     0.006983
      dx2y2   :     0.010803
      dxy     :     0.012010
      f0      :     0.000792  f :     0.004846
      f+1     :     0.001174
      f-1     :     0.000595
      f+2     :     0.000412
      f-2     :     0.000417
      f+3     :     0.000449
      f-3     :     0.001007
  7 H s       :     0.664651  s :     0.664651
      pz      :     0.081996  p :     0.161996
      px      :     0.036451
      py      :     0.043549
  8 H s       :     0.652707  s :     0.652707
      pz      :     0.029725  p :     0.157801
      px      :     0.078191
      py      :     0.049885
  9 O s       :     3.460818  s :     3.460818
      pz      :     1.562834  p :     4.851741
      px      :     1.464619
      py      :     1.824288
      dz2     :     0.019371  d :     0.057536
      dxz     :     0.009208
      dyz     :     0.007029
      dx2y2   :     0.009833
      dxy     :     0.012095
      f0      :     0.000756  f :     0.004731
      f+1     :     0.001140
      f-1     :     0.000576
      f+2     :     0.000414
      f-2     :     0.000415
      f+3     :     0.000446
      f-3     :     0.000984
 10 H s       :     0.674001  s :     0.674001
      pz      :     0.094670  p :     0.176215
      px      :     0.037893
      py      :     0.043652
 11 H s       :     0.676148  s :     0.676148
      pz      :     0.032014  p :     0.186829
      px      :     0.100937
      py      :     0.053877
 12 O s       :     3.464508  s :     3.464508
      pz      :     1.518748  p :     4.805115
      px      :     1.511149
      py      :     1.775218
      dz2     :     0.021609  d :     0.060309
      dxz     :     0.007285
      dyz     :     0.007810
      dx2y2   :     0.007825
      dxy     :     0.015779
      f0      :     0.000874  f :     0.004908
      f+1     :     0.000990
      f-1     :     0.000717
      f+2     :     0.000388
      f-2     :     0.000417
      f+3     :     0.000375
      f-3     :     0.001148
 13 H s       :     0.676469  s :     0.676469
      pz      :     0.092216  p :     0.172052
      px      :     0.036691
      py      :     0.043146
 14 H s       :     0.677588  s :     0.677588
      pz      :     0.031787  p :     0.160423
      px      :     0.072852
      py      :     0.055784
 15 O s       :     3.450291  s :     3.450291
      pz      :     1.536095  p :     4.762086
      px      :     1.712491
      py      :     1.513501
      dz2     :     0.021380  d :     0.060883
      dxz     :     0.007383
      dyz     :     0.007079
      dx2y2   :     0.009487
      dxy     :     0.015554
      f0      :     0.000829  f :     0.004931
      f+1     :     0.000738
      f-1     :     0.000986
      f+2     :     0.000389
      f-2     :     0.000420
      f+3     :     0.001163
      f-3     :     0.000406
 16 H s       :     0.661664  s :     0.661664
      pz      :     0.096190  p :     0.174740
      px      :     0.042047
      py      :     0.036503
 17 H s       :     0.676565  s :     0.676565
      pz      :     0.032323  p :     0.161108
      px      :     0.055958
      py      :     0.072827


                      *****************************
                      * MAYER POPULATION ANALYSIS *
                      *****************************

  NA   - Mulliken gross atomic population
  ZA   - Total nuclear charge
  QA   - Mulliken gross atomic charge
  VA   - Mayer's total valence
  BVA  - Mayer's bonded valence
  FA   - Mayer's free valence

  ATOM       NA         ZA         QA         VA         BVA        FA
  0 O      8.7610     8.0000    -0.7610     2.0094     1.6159     0.3935
  1 H      0.6590     1.0000     0.3410     0.9042     0.8568     0.0474
  2 H      0.6093     1.0000     0.3907     0.8884     0.8421     0.0464
  3 O      8.7665     8.0000    -0.7665     2.0200     1.6264     0.3936
  4 H      0.6162     1.0000     0.3838     0.8932     0.8462     0.0470
  5 H      0.6183     1.0000     0.3817     0.8763     0.8317     0.0447
  6 O      8.7397     8.0000    -0.7397     2.0645     1.6727     0.3918
  7 H      0.6284     1.0000     0.3716     0.8821     0.8366     0.0455
  8 H      0.6087     1.0000     0.3913     0.8704     0.8249     0.0454
  9 O      8.7659     8.0000    -0.7659     2.0161     1.6223     0.3938
 10 H      0.6193     1.0000     0.3807     0.8908     0.8460     0.0448
 11 H      0.6441     1.0000     0.3559     0.9136     0.8649     0.0487
 12 O      8.7094     8.0000    -0.7094     2.0739     1.6866     0.3873
 13 H      0.6246     1.0000     0.3754     0.8823     0.8374     0.0449
 14 H      0.6622     1.0000     0.3378     0.9050     0.8568     0.0482
 15 O      8.7122     8.0000    -0.7122     2.0687     1.6809     0.3877
 16 H      0.5944     1.0000     0.4056     0.8650     0.8223     0.0427
 17 H      0.6609     1.0000     0.3391     0.9052     0.8568     0.0484

  Mayer bond orders larger than 0.100000
B(  0-O ,  1-H ) :   0.8491 B(  0-O ,  2-H ) :   0.7677 B(  3-O ,  4-H ) :   0.7809 
B(  3-O ,  5-H ) :   0.8223 B(  6-O ,  7-H ) :   0.8276 B(  6-O ,  8-H ) :   0.8068 
B(  9-O , 10-H ) :   0.8120 B(  9-O , 11-H ) :   0.8181 B( 12-O , 13-H ) :   0.8250 
B( 12-O , 14-H ) :   0.8520 B( 15-O , 16-H ) :   0.7917 B( 15-O , 17-H ) :   0.8486 



                *******************************************
                * RELAXED MP2 DENSITY POPULATION ANALYSIS *
                *******************************************

------------------------------------------------------------------------------
                           ORCA POPULATION ANALYSIS
------------------------------------------------------------------------------
Input electron density              ... 12h2o.su.etal.mol1,5,6,7,8,9-orca.engrad-mp2.def2tzvp.frozencore.pmp2re
BaseName (.gbw .S,...)              ... 12h2o.su.etal.mol1,5,6,7,8,9-orca.engrad-mp2.def2tzvp.frozencore

                    ********************************
                    * MULLIKEN POPULATION ANALYSIS *
                    ********************************

-----------------------
MULLIKEN ATOMIC CHARGES
-----------------------
   0 O :   -0.737494
   1 H :    0.334297
   2 H :    0.367251
   3 O :   -0.736411
   4 H :    0.362424
   5 H :    0.373651
   6 O :   -0.714280
   7 H :    0.364323
   8 H :    0.382090
   9 O :   -0.741212
  10 H :    0.365076
  11 H :    0.335705
  12 O :   -0.691741
  13 H :    0.364115
  14 H :    0.332207
  15 O :   -0.685091
  16 H :    0.391747
  17 H :    0.333344
Sum of atomic charges:   -0.0000000

--------------------------------
MULLIKEN REDUCED ORBITAL CHARGES
--------------------------------
  0 O s       :     3.804229  s :     3.804229
      pz      :     1.689211  p :     4.880588
      px      :     1.396817
      py      :     1.794561
      dz2     :     0.009235  d :     0.048726
      dxz     :     0.009224
      dyz     :     0.010582
      dx2y2   :     0.007697
      dxy     :     0.011988
      f0      :     0.000450  f :     0.003951
      f+1     :     0.000661
      f-1     :     0.000536
      f+2     :     0.000439
      f-2     :     0.000697
      f+3     :     0.000462
      f-3     :     0.000705
  1 H s       :     0.617399  s :     0.617399
      pz      :     0.017489  p :     0.048304
      px      :     0.014390
      py      :     0.016425
  2 H s       :     0.574323  s :     0.574323
      pz      :     0.011959  p :     0.058427
      px      :     0.031162
      py      :     0.015305
  3 O s       :     3.797402  s :     3.797402
      pz      :     1.555083  p :     4.886050
      px      :     1.827583
      py      :     1.503384
      dz2     :     0.014781  d :     0.049038
      dxz     :     0.007772
      dyz     :     0.007703
      dx2y2   :     0.008743
      dxy     :     0.010038
      f0      :     0.000566  f :     0.003921
      f+1     :     0.000485
      f-1     :     0.000785
      f+2     :     0.000437
      f-2     :     0.000405
      f+3     :     0.000768
      f-3     :     0.000474
  4 H s       :     0.583166  s :     0.583166
      pz      :     0.010362  p :     0.054410
      px      :     0.015986
      py      :     0.028062
  5 H s       :     0.580531  s :     0.580531
      pz      :     0.018450  p :     0.045818
      px      :     0.014750
      py      :     0.012618
  6 O s       :     3.804182  s :     3.804182
      pz      :     1.551167  p :     4.856090
      px      :     1.479544
      py      :     1.825378
      dz2     :     0.015370  d :     0.050072
      dxz     :     0.007827
      dyz     :     0.007925
      dx2y2   :     0.008834
      dxy     :     0.010116
      f0      :     0.000557  f :     0.003936
      f+1     :     0.000793
      f-1     :     0.000486
      f+2     :     0.000433
      f-2     :     0.000402
      f+3     :     0.000475
      f-3     :     0.000789
  7 H s       :     0.589680  s :     0.589680
      pz      :     0.018553  p :     0.045997
      px      :     0.012459
      py      :     0.014986
  8 H s       :     0.574694  s :     0.574694
      pz      :     0.010266  p :     0.043217
      px      :     0.018282
      py      :     0.014669
  9 O s       :     3.796300  s :     3.796300
      pz      :     1.574683  p :     4.891566
      px      :     1.466588
      py      :     1.850295
      dz2     :     0.015077  d :     0.049437
      dxz     :     0.007972
      dyz     :     0.008025
      dx2y2   :     0.008355
      dxy     :     0.010008
      f0      :     0.000537  f :     0.003909
      f+1     :     0.000783
      f-1     :     0.000483
      f+2     :     0.000440
      f-2     :     0.000405
      f+3     :     0.000480
      f-3     :     0.000781
 10 H s       :     0.583874  s :     0.583874
      pz      :     0.023984  p :     0.051049
      px      :     0.012238
      py      :     0.014827
 11 H s       :     0.607630  s :     0.607630
      pz      :     0.011804  p :     0.056666
      px      :     0.027236
      py      :     0.017626
 12 O s       :     3.809577  s :     3.809577
      pz      :     1.528084  p :     4.827890
      px      :     1.502094
      py      :     1.797712
      dz2     :     0.015704  d :     0.050287
      dxz     :     0.006596
      dyz     :     0.008509
      dx2y2   :     0.007495
      dxy     :     0.011984
      f0      :     0.000617  f :     0.003986
      f+1     :     0.000720
      f-1     :     0.000531
      f+2     :     0.000415
      f-2     :     0.000419
      f+3     :     0.000437
      f-3     :     0.000848
 13 H s       :     0.584982  s :     0.584982
      pz      :     0.022838  p :     0.050904
      px      :     0.012958
      py      :     0.015107
 14 H s       :     0.620412  s :     0.620412
      pz      :     0.012474  p :     0.047381
      px      :     0.017815
      py      :     0.017092
 15 O s       :     3.793201  s :     3.793201
      pz      :     1.566235  p :     4.837390
      px      :     1.753689
      py      :     1.517465
      dz2     :     0.015995  d :     0.050574
      dxz     :     0.008036
      dyz     :     0.006614
      dx2y2   :     0.008122
      dxy     :     0.011806
      f0      :     0.000595  f :     0.003926
      f+1     :     0.000527
      f-1     :     0.000729
      f+2     :     0.000414
      f-2     :     0.000421
      f+3     :     0.000813
      f-3     :     0.000428
 16 H s       :     0.558620  s :     0.558620
      pz      :     0.024213  p :     0.049633
      px      :     0.013350
      py      :     0.012070
 17 H s       :     0.620063  s :     0.620063
      pz      :     0.012419  p :     0.046593
      px      :     0.016343
      py      :     0.017831


                     *******************************
                     * LOEWDIN POPULATION ANALYSIS *
                     *******************************

----------------------
LOEWDIN ATOMIC CHARGES
----------------------
   0 O :   -0.342682
   1 H :    0.152174
   2 H :    0.142828
   3 O :   -0.296036
   4 H :    0.143496
   5 H :    0.178242
   6 O :   -0.274229
   7 H :    0.174724
   8 H :    0.189518
   9 O :   -0.374643
  10 H :    0.145540
  11 H :    0.130968
  12 O :   -0.335353
  13 H :    0.148921
  14 H :    0.164254
  15 O :   -0.271813
  16 H :    0.159918
  17 H :    0.164172

-------------------------------
LOEWDIN REDUCED ORBITAL CHARGES
-------------------------------
  0 O s       :     3.459829  s :     3.459829
      pz      :     1.661650  p :     4.820454
      px      :     1.388853
      py      :     1.769951
      dz2     :     0.010527  d :     0.057582
      dxz     :     0.012211
      dyz     :     0.011409
      dx2y2   :     0.008920
      dxy     :     0.014515
      f0      :     0.000473  f :     0.004817
      f+1     :     0.000858
      f-1     :     0.000649
      f+2     :     0.000412
      f-2     :     0.001032
      f+3     :     0.000477
      f-3     :     0.000915
  1 H s       :     0.679515  s :     0.679515
      pz      :     0.067263  p :     0.168311
      px      :     0.046163
      py      :     0.054884
  2 H s       :     0.659362  s :     0.659362
      pz      :     0.035123  p :     0.197811
      px      :     0.113625
      py      :     0.049063
  3 O s       :     3.452057  s :     3.452057
      pz      :     1.527985  p :     4.780848
      px      :     1.773161
      py      :     1.479702
      dz2     :     0.019823  d :     0.058296
      dxz     :     0.007017
      dyz     :     0.009069
      dx2y2   :     0.010611
      dxy     :     0.011776
      f0      :     0.000791  f :     0.004835
      f+1     :     0.000593
      f-1     :     0.001175
      f+2     :     0.000415
      f-2     :     0.000419
      f+3     :     0.000986
      f-3     :     0.000456
  4 H s       :     0.667522  s :     0.667522
      pz      :     0.030614  p :     0.188982
      px      :     0.054318
      py      :     0.104050
  5 H s       :     0.658967  s :     0.658967
      pz      :     0.080959  p :     0.162791
      px      :     0.044363
      py      :     0.037469
  6 O s       :     3.460139  s :     3.460139
      pz      :     1.525616  p :     4.749223
      px      :     1.458057
      py      :     1.765550
      dz2     :     0.021183  d :     0.060001
      dxz     :     0.009231
      dyz     :     0.007074
      dx2y2   :     0.010691
      dxy     :     0.011822
      f0      :     0.000792  f :     0.004865
      f+1     :     0.001181
      f-1     :     0.000597
      f+2     :     0.000414
      f-2     :     0.000415
      f+3     :     0.000452
      f-3     :     0.001014
  7 H s       :     0.663356  s :     0.663356
      pz      :     0.081275  p :     0.161920
      px      :     0.036326
      py      :     0.044320
  8 H s       :     0.653016  s :     0.653016
      pz      :     0.030079  p :     0.157466
      px      :     0.077001
      py      :     0.050386
  9 O s       :     3.461566  s :     3.461566
      pz      :     1.563928  p :     4.851554
      px      :     1.466862
      py      :     1.820764
      dz2     :     0.018956  d :     0.056761
      dxz     :     0.009027
      dyz     :     0.007083
      dx2y2   :     0.009742
      dxy     :     0.011953
      f0      :     0.000757  f :     0.004762
      f+1     :     0.001153
      f-1     :     0.000576
      f+2     :     0.000416
      f-2     :     0.000414
      f+3     :     0.000449
      f-3     :     0.000997
 10 H s       :     0.677836  s :     0.677836
      pz      :     0.094139  p :     0.176623
      px      :     0.038063
      py      :     0.044421
 11 H s       :     0.681213  s :     0.681213
      pz      :     0.032669  p :     0.187818
      px      :     0.100479
      py      :     0.054670
 12 O s       :     3.466058  s :     3.466058
      pz      :     1.519485  p :     4.805272
      px      :     1.512661
      py      :     1.773125
      dz2     :     0.020968  d :     0.059097
      dxz     :     0.007159
      dyz     :     0.007851
      dx2y2   :     0.007746
      dxy     :     0.015374
      f0      :     0.000878  f :     0.004926
      f+1     :     0.000997
      f-1     :     0.000715
      f+2     :     0.000390
      f-2     :     0.000416
      f+3     :     0.000375
      f-3     :     0.001154
 13 H s       :     0.678692  s :     0.678692
      pz      :     0.091285  p :     0.172387
      px      :     0.037019
      py      :     0.044083
 14 H s       :     0.675069  s :     0.675069
      pz      :     0.032183  p :     0.160676
      px      :     0.072189
      py      :     0.056305
 15 O s       :     3.451293  s :     3.451293
      pz      :     1.537589  p :     4.755556
      px      :     1.702919
      py      :     1.515047
      dz2     :     0.020849  d :     0.060013
      dxz     :     0.007435
      dyz     :     0.006981
      dx2y2   :     0.009527
      dxy     :     0.015220
      f0      :     0.000832  f :     0.004951
      f+1     :     0.000739
      f-1     :     0.000992
      f+2     :     0.000391
      f-2     :     0.000420
      f+3     :     0.001169
      f-3     :     0.000408
 16 H s       :     0.665288  s :     0.665288
      pz      :     0.095302  p :     0.174795
      px      :     0.042692
      py      :     0.036801
 17 H s       :     0.674408  s :     0.674408
      pz      :     0.032815  p :     0.161420
      px      :     0.056410
      py      :     0.072195


                      *****************************
                      * MAYER POPULATION ANALYSIS *
                      *****************************

  NA   - Mulliken gross atomic population
  ZA   - Total nuclear charge
  QA   - Mulliken gross atomic charge
  VA   - Mayer's total valence
  BVA  - Mayer's bonded valence
  FA   - Mayer's free valence

  ATOM       NA         ZA         QA         VA         BVA        FA
  0 O      8.7375     8.0000    -0.7375     2.0310     1.6430     0.3880
  1 H      0.6657     1.0000     0.3343     0.9086     0.8611     0.0474
  2 H      0.6327     1.0000     0.3673     0.9171     0.8716     0.0455
  3 O      8.7364     8.0000    -0.7364     2.0629     1.6755     0.3874
  4 H      0.6376     1.0000     0.3624     0.9222     0.8764     0.0458
  5 H      0.6263     1.0000     0.3737     0.8831     0.8385     0.0447
  6 O      8.7143     8.0000    -0.7143     2.1060     1.7205     0.3855
  7 H      0.6357     1.0000     0.3643     0.8879     0.8424     0.0455
  8 H      0.6179     1.0000     0.3821     0.8816     0.8366     0.0450
  9 O      8.7412     8.0000    -0.7412     2.0329     1.6444     0.3885
 10 H      0.6349     1.0000     0.3651     0.9120     0.8676     0.0444
 11 H      0.6643     1.0000     0.3357     0.9417     0.8939     0.0479
 12 O      8.6917     8.0000    -0.6917     2.0886     1.7066     0.3820
 13 H      0.6359     1.0000     0.3641     0.8970     0.8523     0.0447
 14 H      0.6678     1.0000     0.3322     0.9089     0.8606     0.0483
 15 O      8.6851     8.0000    -0.6851     2.1056     1.7239     0.3817
 16 H      0.6083     1.0000     0.3917     0.8843     0.8419     0.0424
 17 H      0.6667     1.0000     0.3333     0.9101     0.8617     0.0484

  Mayer bond orders larger than 0.100000
B(  0-O ,  1-H ) :   0.8519 B(  0-O ,  2-H ) :   0.7679 B(  3-O ,  4-H ) :   0.7791 
B(  3-O ,  5-H ) :   0.8258 B(  6-O ,  7-H ) :   0.8307 B(  6-O ,  8-H ) :   0.8102 
B(  9-O , 10-H ) :   0.8169 B(  9-O , 11-H ) :   0.8196 B( 12-O , 13-H ) :   0.8306 
B( 12-O , 14-H ) :   0.8554 B( 15-O , 16-H ) :   0.7963 B( 15-O , 17-H ) :   0.8510 



----------------------------------
MP2 DERIVATIVE INTEGRAL GENERATION
----------------------------------


Input Wavefunction Amplitudes       ... 12h2o.su.etal.mol1,5,6,7,8,9-orca.engrad-mp2.def2tzvp.frozencore.mp2tsaa.tmp
Input Correlated Electron Density   ... 12h2o.su.etal.mol1,5,6,7,8,9-orca.engrad-mp2.def2tzvp.frozencore.pmp2re
Input Energy Weighted Density       ... 12h2o.su.etal.mol1,5,6,7,8,9-orca.engrad-mp2.def2tzvp.frozencore.wmp2.tmp
Input SCF Electron Density          ... 12h2o.su.etal.mol1,5,6,7,8,9-orca.engrad-mp2.def2tzvp.frozencore.scfp

One-Electron Terms    ...
                        ... One-Electron Terms done
Prescreening matrices              ... done

Batch handling in the gradient evaluation:
Memory available                      ... 8000.0 MB
Memory per occupied orbital in Q2     ...   12.2 MB
Memory per occupied orbital in Q3     ...    0.1 MB
Total memory requirement per |i>      ...   12.3 MB
Max. Number of orbitals possible      ...    651
Number of orbitals treated per batch  ...     24
Number of batches to be done          ...      1
Batch   0: i=    6 ...    29

---------------------------------------
MP2 TOTAL ENERGY:     -457.922666797 Eh
---------------------------------------

The final MP2 gradient
  0:  -0.00719632   0.00382699  -0.00128077
  1:  -0.00120816   0.00045954  -0.00052995
  2:   0.01565317  -0.00453670  -0.00168442
  3:  -0.01023203  -0.00156573   0.00675756
  4:   0.00270291   0.00602329   0.00418216
  5:   0.00019385   0.00011115  -0.00734127
  6:   0.01385260  -0.00693228  -0.01453071
  7:  -0.00086592  -0.00295584   0.00778489
  8:  -0.01069972   0.00602818   0.00094087
  9:  -0.00838011   0.00338209   0.00066451
 10:  -0.00354302  -0.00371191   0.00192128
 11:   0.01630150  -0.00423342  -0.00066439
 12:   0.00801399  -0.00628606  -0.00489226
 13:   0.00062317   0.00103921   0.00732056
 14:  -0.00940378   0.00625240   0.00052455
 15:  -0.01071271  -0.00933123   0.00051129
 16:   0.00036627   0.00218808   0.00216574
 17:   0.00453430   0.01024226  -0.00184965

-----------------------------------
NORM OF THE MP2 GRADIENT:  0.048234
-----------------------------------

-------------------------   --------------------
FINAL SINGLE POINT ENERGY      -457.922666797376
-------------------------   --------------------


                            ***************************************
                            *     ORCA property calculations      *
                            ***************************************

                                    ---------------------
                                    Active property flags
                                    ---------------------
   (+) Dipole Moment


------------------------------------------------------------------------------
                       ORCA ELECTRIC PROPERTIES CALCULATION
------------------------------------------------------------------------------

Dipole Moment Calculation                       ... on
Quadrupole Moment Calculation                   ... off
Polarizability Calculation                      ... off
GBWName                                         ... 12h2o.su.etal.mol1,5,6,7,8,9-orca.engrad-mp2.def2tzvp.frozencore.gbw
Electron density file                           ... 12h2o.su.etal.mol1,5,6,7,8,9-orca.engrad-mp2.def2tzvp.frozencore.scfp
The origin for moment calculation is the CENTER OF MASS  = ( 0.517607, -1.139615  0.885083)

-------------
DIPOLE MOMENT
-------------
                                X             Y             Z
Electronic contribution:      0.39796      -0.06176      -0.12299
Nuclear contribution   :      0.87361       0.79587       1.40687
                        -----------------------------------------
Total Dipole Moment    :      1.27157       0.73411       1.28388
                        -----------------------------------------
Magnitude (a.u.)       :      1.95043
Magnitude (Debye)      :      4.95760



--------------------
Rotational spectrum 
--------------------
 
Rotational constants in cm-1:     0.078430     0.026772     0.023558 
Rotational constants in MHz :  2351.284020   802.608675   706.252527 

 Dipole components along the rotational axes: 
x,y,z [a.u.] :     0.201073     1.676756     0.975826 
x,y,z [Debye]:     0.511088     4.261976     2.480352 

 

                         *** MP2 UNRELAXED DENSITY ***

------------------------------------------------------------------------------
                       ORCA ELECTRIC PROPERTIES CALCULATION
------------------------------------------------------------------------------

Dipole Moment Calculation                       ... on
Quadrupole Moment Calculation                   ... off
Polarizability Calculation                      ... off
GBWName                                         ... 12h2o.su.etal.mol1,5,6,7,8,9-orca.engrad-mp2.def2tzvp.frozencore.gbw
Electron density file                           ... 12h2o.su.etal.mol1,5,6,7,8,9-orca.engrad-mp2.def2tzvp.frozencore.pmp2ur
The origin for moment calculation is the CENTER OF MASS  = ( 0.517607, -1.139615  0.885083)

-------------
DIPOLE MOMENT
-------------
                                X             Y             Z
Electronic contribution:      0.39432      -0.06896      -0.13745
Nuclear contribution   :      0.87361       0.79587       1.40687
                        -----------------------------------------
Total Dipole Moment    :      1.26793       0.72691       1.26942
                        -----------------------------------------
Magnitude (a.u.)       :      1.93584
Magnitude (Debye)      :      4.92051



--------------------
Rotational spectrum 
--------------------
 
Rotational constants in cm-1:     0.078430     0.026772     0.023558 
Rotational constants in MHz :  2351.284020   802.608675   706.252527 

 Dipole components along the rotational axes: 
x,y,z [a.u.] :     0.193514     1.667206     0.964600 
x,y,z [Debye]:     0.491874     4.237700     2.451819 

 

                           *** MP2 RELAXED DENSITY ***

------------------------------------------------------------------------------
                       ORCA ELECTRIC PROPERTIES CALCULATION
------------------------------------------------------------------------------

Dipole Moment Calculation                       ... on
Quadrupole Moment Calculation                   ... off
Polarizability Calculation                      ... off
GBWName                                         ... 12h2o.su.etal.mol1,5,6,7,8,9-orca.engrad-mp2.def2tzvp.frozencore.gbw
Electron density file                           ... 12h2o.su.etal.mol1,5,6,7,8,9-orca.engrad-mp2.def2tzvp.frozencore.pmp2re
The origin for moment calculation is the CENTER OF MASS  = ( 0.517607, -1.139615  0.885083)

-------------
DIPOLE MOMENT
-------------
                                X             Y             Z
Electronic contribution:      0.40565      -0.06451      -0.15628
Nuclear contribution   :      0.87361       0.79587       1.40687
                        -----------------------------------------
Total Dipole Moment    :      1.27926       0.73136       1.25059
                        -----------------------------------------
Magnitude (a.u.)       :      1.93271
Magnitude (Debye)      :      4.91256



--------------------
Rotational spectrum 
--------------------
 
Rotational constants in cm-1:     0.078430     0.026772     0.023558 
Rotational constants in MHz :  2351.284020   802.608675   706.252527 

 Dipole components along the rotational axes: 
x,y,z [a.u.] :     0.171387     1.668039     0.961060 
x,y,z [Debye]:     0.435630     4.239819     2.442820 

 

Timings for individual modules:

Sum of individual times         ...       71.748 sec (=   1.196 min)
GTO integral calculation        ...        0.984 sec (=   0.016 min)   1.4 %
SCF iterations                  ...       18.488 sec (=   0.308 min)  25.8 %
MP2 module                      ...       52.276 sec (=   0.871 min)  72.9 %
                             ****ORCA TERMINATED NORMALLY****
TOTAL RUN TIME: 0 days 0 hours 1 minutes 12 seconds 615 msec
