25
Energy:   -373.90092331
Na  -0.00539013  -0.34541230  -0.10699508
O    1.96381607  -1.05442927  -1.29762634
H    2.13015658  -0.55006202  -2.09397824
H    2.40490867  -1.89075535  -1.44671640
O   -1.97999204   0.99126995   0.08174155
H   -1.76423695   1.88740493   0.33985721
H   -2.93091767   0.99536973  -0.02759958
C   -3.14137051   0.31502036  -3.87780503
H   -3.11878173  -0.25574677  -4.78257838
H   -3.16527073   1.35819759  -4.11467873
H   -4.01405522   0.05698238  -3.31501120
C   -1.88346716   0.00648423  -3.04468763
N   -0.94690093  -0.22323494  -2.42439385
C    0.30033223  -3.89197697   3.70738822
H    1.35612897  -4.04844248   3.78296578
H   -0.18703032  -4.82768288   3.52897493
H   -0.06371698  -3.46853752   4.62011287
C    0.00617012  -2.92950115   2.54175151
N   -0.21284694  -2.21289414   1.67388200
C    2.86714902   3.73511687   1.41550539
H    2.30639165   4.46241162   1.96458981
H    3.30475992   4.19718937   0.55533983
H    3.64040937   3.33634680   2.03836168
C    1.93146934   2.59724589   0.96678145
N    1.23481328   1.75004923   0.63268607
