25
Energy:   -376.14869309
Na   0.00170468   0.11520146  -0.41012238
O   -1.71671917  -1.18400540   0.42309616
H   -2.11372042  -1.13412726   1.29265583
H   -2.08262844  -1.98004372   0.03752482
O   -0.26888375   0.17436427  -2.69122568
H   -1.10495605   0.61778754  -2.83472043
H    0.15448587   0.17676556  -3.54970355
C    2.40202249   0.50912629   4.06808617
H    1.89047782  -0.17776885   4.70948877
H    2.32524536   1.49761342   4.47045112
H    3.43303424   0.23159716   3.99814730
C    1.76487877   0.47449368   2.66649833
N    1.29049631   0.44870813   1.62295248
C   -3.07056822   4.49359824  -1.42372602
H   -3.65637293   4.71393292  -0.55586333
H   -3.70752446   4.45018739  -2.28238855
H   -2.33655207   5.25966713  -1.56249862
C   -2.36713984   3.13639125  -1.23723826
N   -1.84340544   2.12588895  -1.09838964
C    2.44055917  -4.26963761  -0.45551903
H    3.48360864  -4.07767061  -0.31375639
H    2.30941797  -4.93233104  -1.28530122
H    2.03749254  -4.71973910   0.42756933
C    1.70820627  -2.94433139  -0.73627276
N    1.16293624  -1.95758068  -0.94530668
