25
Energy:   -375.61012025
Na  -1.12937285  -1.24124387  -0.35273495
O   -3.35901788  -0.75154386  -1.16367991
H   -3.57969800   0.04490002  -0.68076244
H   -4.19715729  -1.06760579  -1.50110996
O   -1.02214827  -3.08098394  -1.67270775
H   -0.76186565  -3.95152950  -1.37165089
H   -1.29480312  -3.21265548  -2.58075719
C    1.78635780   2.04536538  -3.03651572
H    1.93683101   1.53456508  -3.96460033
H    2.71933418   2.43878366  -2.69057321
H    1.09213232   2.84700568  -3.17907416
C    1.22616503   1.06054319  -1.99348679
N    0.80907605   0.32729831  -1.21690435
C   -0.13679665   2.38668497   2.41107875
H   -0.51762307   2.26879502   3.40404068
H   -0.16972763   3.42041995   2.13684048
H    0.87470017   2.03975558   2.37348526
C   -0.99709612   1.56787026   1.43075875
N   -1.63762818   0.95822550   0.70086596
C    2.53315477  -0.78811754   2.95486063
H    3.42046149  -0.63403526   2.37706687
H    2.72240221  -1.52185271   3.71031890
H    2.24379366   0.13274944   3.41656752
C    1.40018323  -1.27921161   2.03464213
N    0.55663442  -1.64485348   1.34949762
