25
Energy:   -383.53194796
Na   0.36302498  -0.34172216   0.85886761
O   -0.68418153  -1.65457441   2.67596322
H   -1.29434341  -1.33767935   3.34193007
H   -0.67060241  -2.60420385   2.79534242
O    2.58493136  -0.17181107   1.31085909
H    3.04666724   0.65811135   1.19144136
H    3.26508263  -0.78783134   1.58315512
C   -1.16374877   1.66298596  -3.78262834
H   -1.36422726   2.71203475  -3.71778101
H   -2.03572450   1.15449847  -4.13759015
H   -0.35282222   1.49606692  -4.46044487
C   -0.78734376   1.12521944  -2.38952876
N   -0.50709313   0.72482782  -1.35230279
C   -1.43128483   4.06460060   2.66509137
H   -0.93084692   4.87318805   2.17453208
H   -1.35871533   4.19082718   3.72513835
H   -2.46164976   4.05536596   2.37671327
C   -0.77303072   2.73245581   2.26050295
N   -0.28293062   1.74061346   1.95926848
C    0.82112420  -4.02384993  -2.63750586
H   -0.17795057  -4.29406042  -2.90904974
H    1.39735767  -4.90983963  -2.47054378
H    1.26378229  -3.45411343  -3.42766611
C    0.79260276  -3.17977911  -1.34974385
N    0.77136726  -2.55133002  -0.39094651
