25
Energy:   -375.63786769
Na   0.39704535  -0.92541414   0.29079541
O   -1.00746855  -2.42047809   1.41865497
H   -0.88861420  -2.81552637   2.28239240
H   -1.68000597  -2.95746372   0.99964220
O    2.52663391  -1.58994253  -0.26738518
H    3.33525980  -1.23608275   0.10293802
H    2.81897454  -2.25593152  -0.88966121
C   -1.35975628   3.94306335  -0.06766793
H   -0.51256419   4.59382448  -0.12829544
H   -1.79403053   4.01285325   0.90774703
H   -2.08339726   4.23031033  -0.80165158
C   -0.91254644   2.49258499  -0.32789070
N   -0.57957838   1.41263792  -0.52163839
C    0.33728165   3.02701439   3.30738384
H    1.28500995   3.28920726   3.72924419
H   -0.40507056   3.01507952   4.07788357
H    0.06700969   3.74637528   2.56282218
C    0.43068337   1.63148551   2.66288769
N    0.50022520   0.59245084   2.18303101
C   -0.44874481  -3.18104042  -4.23652123
H   -0.25054042  -2.51898120  -5.05340114
H   -1.47814118  -3.47240204  -4.25524538
H    0.16952108  -4.04998642  -4.32358001
C   -0.14228984  -2.46393390  -2.90857410
N    0.08587982  -1.93001551  -1.91985709
