25
Energy:   -392.53267787
Na   0.01032902   0.65474885  -0.14159943
O    1.56374368  -1.05119126  -0.15746746
H    1.21472706  -1.90204107   0.10800163
H    2.48700584  -1.21887869  -0.34641125
O   -1.59270096  -0.84610775   0.56646010
H   -2.51930314  -0.89365842   0.80178793
H   -1.27056220  -1.74054505   0.67799658
C   -0.84472560   3.00807999  -4.53698604
H   -1.83643884   2.78764106  -4.87286059
H   -0.13796738   2.67048173  -5.26597116
H   -0.74053552   4.06435750  -4.40162964
C   -0.58455877   2.29098512  -3.19919376
N   -0.39085274   1.75707539  -2.20314661
C    0.96351700   4.58281958   2.89986340
H    1.81100407   5.12191001   2.53101743
H    1.16929147   4.22743530   3.88792107
H    0.11186634   5.23013466   2.92380990
C    0.67334749   3.38676811   1.97419470
N    0.45730310   2.49625342   1.28499229
C   -0.09369219  -5.92723751   1.27844290
H   -0.65219002  -6.08952638   2.17657578
H    0.90767463  -6.27963136   1.41254050
H   -0.55367541  -6.45842632   0.47150240
C   -0.06906044  -4.42196166   0.95419318
N   -0.05072098  -3.30121537   0.71277452
