25
Energy:   -378.13668232
Na  -0.93563218   0.80541213   0.63196862
O   -2.38448534  -0.31939290   2.12540453
H   -2.48792690  -0.31679723   3.07699528
H   -2.93795940  -1.04059921   1.82580519
O   -1.62853459   3.03452986   0.33804429
H   -1.58661536   3.49927062  -0.49771324
H   -1.96616225   3.68257579   0.95632891
C    0.97663308  -3.48799385  -1.34116606
H    0.18579703  -3.77577285  -2.00196995
H    1.35545844  -4.35405435  -0.83983818
H    1.76260682  -3.02935321  -1.90400985
C    0.43840487  -2.48742539  -0.30156365
N    0.03766951  -1.74245670   0.47246759
C    3.33283330   0.71221525   3.27688301
H    3.26802568   0.11112390   4.15971331
H    3.76119153   1.66149876   3.52238075
H    3.94879021   0.21916476   2.55411237
C    1.92307219   0.92070334   2.69318246
N    0.87344096   1.07593219   2.25859088
C   -0.63907558   0.34082603  -4.44684186
H    0.24564059  -0.13939766  -4.80955759
H   -0.67321746   1.34679458  -4.80983042
H   -1.50077260  -0.19199202  -4.79105438
C   -0.62306713   0.35100616  -2.90695872
N   -0.61114811   0.35858572  -1.76044572
