25
Energy:   -372.67271141
Na   0.09075660  -0.68357876   1.14529065
O    2.32626811  -1.27246739   1.74105168
H    3.00478793  -0.59749408   1.75698086
H    2.75357768  -2.05079351   2.09860842
O   -0.84155412  -2.74634375   2.04166508
H   -0.48443950  -3.61583083   1.86085242
H   -1.55082723  -2.90309106   2.66503799
C    0.88346285   4.32438760   1.75455942
H    1.34465751   4.76903684   2.61158143
H   -0.13272488   4.65234263   1.68595122
H    1.41313585   4.61735035   0.87222250
C    0.91990490   2.79076492   1.88973873
N    0.94703766   1.64891313   1.99038587
C   -2.79988604   2.01116250  -2.01570990
H   -3.28826487   1.20393884  -2.52046355
H   -2.45572371   2.72516665  -2.73449321
H   -3.48908217   2.48249365  -1.34656512
C   -1.60039273   1.46696342  -1.21779815
N   -0.70731544   1.06178247  -0.62371659
C    0.39833312  -2.78049061  -3.42224113
H   -0.23165612  -2.18878254  -4.05303055
H    0.11296069  -3.80901827  -3.49702428
H    1.41693537  -2.66964361  -3.73056156
C    0.24974361  -2.31133294  -1.96299056
N    0.13911197  -1.96202373  -0.87651218
