25
Energy:   -372.00695590
Na   0.49867180  -1.09114126   0.24657307
O   -0.33316397  -2.86642784   1.39938573
H   -0.44120049  -2.92242397   2.34881945
H   -0.68983400  -3.69066046   1.06823783
O    2.72137181  -0.55974458   0.19188787
H    2.94939963   0.36985025   0.20130153
H    3.51116347  -0.99737546  -0.12582299
C   -0.91848489   3.47191488  -1.65735437
H   -0.10673543   4.11684777  -1.92197593
H   -1.57628048   3.98350252  -0.98617470
H   -1.45538048   3.19373725  -2.54011109
C   -0.36733410   2.20775546  -0.97198310
N    0.04302271   1.26653131  -0.46169305
C   -0.26308575   1.63184322   4.40278266
H   -0.13094470   2.68627353   4.27782008
H    0.33376497   1.29236573   5.22340641
H   -1.29358665   1.42249817   4.60062511
C    0.17086280   0.90414470   3.11680306
N    0.49395722   0.36234008   2.15933279
C   -1.00125091  -1.90522853  -4.22186054
H   -1.34320225  -0.95514800  -4.57586116
H   -1.72606972  -2.65593964  -4.45843952
H   -0.07085201  -2.14711003  -4.69170129
C   -0.80497787  -1.84404282  -2.69564522
N   -0.65884368  -1.79848728  -1.55930854
