25
Energy:   -373.83531430
Na  -0.63103347  -0.42019265  -1.52532296
O   -1.60639387  -2.21815747  -2.75894599
H   -1.20693913  -2.83112198  -3.37615119
H   -2.54543569  -2.39312532  -2.82074047
O   -0.92657402   1.27481951  -3.08756228
H   -0.31398314   1.85609839  -3.53820529
H   -1.78302123   1.50100236  -3.45028992
C   -2.41618473  -0.16981149   3.02646623
H   -1.44395708   0.06630115   3.40583993
H   -2.73663728  -1.10912436   3.42634195
H   -3.10690949   0.59484377   3.31473820
C   -2.36012622  -0.25826095   1.49003070
N   -2.31838812  -0.32411559   0.34608461
C    1.17872068   3.21436597   1.98776697
H    1.76071820   3.88099640   1.38628301
H    1.72425987   2.96509923   2.87385510
H    0.25821089   3.68865669   2.25722777
C    0.88075616   1.93104789   1.19032616
N    0.65890803   0.97555924   0.59659523
C    3.65797018  -1.97614756   0.54757252
H    4.53555854  -2.23070490  -0.00914952
H    3.39601637  -2.78922645   1.19191871
H    3.84927529  -1.10268861   1.13525518
C    2.49657823  -1.69667694  -0.42436622
N    1.63186913  -1.48859836  -1.14801879
