25
Energy:   -372.35927894
Na   0.76205734   1.39676007   0.40435379
O    2.84635398   1.78352079  -0.55987380
H    2.96851922   2.00532589  -1.48297184
H    3.73475421   1.70624601  -0.21201536
O   -0.17503560   2.57361081   2.21919636
H   -1.13143562   2.60868336   2.23653939
H    0.09569225   3.00587742   3.02918639
C    0.51664316  -1.65934118  -4.20177921
H   -0.44433991  -1.76338282  -4.66067686
H    0.92547282  -2.62868524  -4.00651148
H    1.16919521  -1.12267807  -4.85833662
C    0.37214394  -0.88686048  -2.87739500
N    0.26455769  -0.31171350  -1.89133075
C    0.76863840  -2.32158467   3.61742209
H    1.19689607  -3.28332739   3.42625068
H   -0.28349908  -2.42594986   3.78178061
H    1.22466442  -1.89435505   4.48599230
C    1.01022283  -1.40207591   2.40591865
N    1.19009341  -0.71745984   1.50389926
C   -3.68158625  -0.13472272  -0.87561140
H   -4.58020899   0.44609746  -0.87058418
H   -3.82235884  -1.01470720  -0.28340409
H   -3.44386322  -0.41529038  -1.88043409
C   -2.52777537   0.69965940  -0.28898808
N   -1.66871072   1.32089481   0.14777965
