25
Energy:   -375.95363498
Na   0.27718753   1.17833653   0.61830909
O    1.63328896   0.77482391   2.56877950
H    1.40144912   0.25245768   3.33664385
H    2.53653863   1.04844627   2.72847513
O   -0.35136421   3.42227492   0.22749467
H    0.15240320   4.02058381  -0.32429942
H   -1.14128997   3.91286857   0.45457838
C    3.91975045   0.84492170  -2.80253103
H    3.63908725  -0.02001030  -3.36646451
H    4.91557435   0.72093169  -2.43123556
H    3.87868739   1.70956459  -3.43150288
C    2.94955202   1.02379106  -1.62002489
N    2.22719518   1.15696743  -0.73959533
C   -2.83081474  -1.85279543  -2.09917711
H   -2.21236252  -2.62239084  -2.51165733
H   -3.50734340  -1.49880615  -2.84877677
H   -3.38687117  -2.24606655  -1.27392674
C   -1.94692092  -0.68861478  -1.61439353
N   -1.28882180   0.17817064  -1.25345012
C   -2.39503934  -2.95552519   2.39804673
H   -2.26280953  -3.19398616   3.43272147
H   -2.28730900  -3.84345880   1.81079280
H   -3.37194687  -2.54539329   2.24857232
C   -1.33438412  -1.92464054   1.96922585
N   -0.54467810  -1.15710006   1.64994922
