25
Energy:   -381.37232707
Na  -0.04893467   0.98561777   0.01435963
O   -1.22558640   2.61167178   1.26038521
H   -2.12153332   2.93116814   1.15345984
H   -0.85050397   3.17190165   1.93986113
O    1.07143749   2.51102001  -1.44470328
H    0.67491448   2.66259590  -2.30262292
H    1.99418429   2.73599651  -1.56368128
C   -0.70532066  -4.06183943   0.25379048
H   -1.58782890  -4.33942516  -0.28382048
H   -0.72606793  -4.50597401   1.22703922
H    0.15822168  -4.40517322  -0.27660148
C   -0.64816327  -2.52895497   0.39016590
N   -0.60560700  -1.38765281   0.49170361
C    3.50223939   0.34901032   3.61651294
H    3.15902680  -0.53669156   4.10909539
H    3.59360629   1.14123948   4.32990212
H    4.45540917   0.16115157   3.16809845
C    2.49285517   0.75391804   2.52619499
N    1.74132273   1.05539024   1.71440372
C   -2.56112401  -1.15112840  -3.64408872
H   -2.37147968  -2.09405138  -3.17522683
H   -2.10081390  -1.13403881  -4.60986388
H   -3.61666983  -1.01112903  -3.74955098
C   -1.97737456  -0.02011286  -2.77711674
N   -1.54274656   0.82197962  -2.13161668
