25
Energy:   -378.20604130
Na  -0.16021008  -0.70091086   0.06385177
O   -1.87554166  -2.00916967  -1.02413073
H   -1.75552859  -2.61398938  -1.75626585
H   -2.76111481  -2.18794067  -0.70785083
O   -1.27562019  -1.54925698   2.02544360
H   -1.97068301  -1.08857096   2.49543075
H   -0.96580099  -2.21113118   2.64363973
C   -3.34609336   2.48959532  -2.40283022
H   -3.81524481   1.79271580  -3.06551871
H   -2.88729297   3.27033955  -2.97277735
H   -4.08114604   2.91016349  -1.74882787
C   -2.27326729   1.76358776  -1.57002939
N   -1.47449951   1.22304213  -0.94997131
C    1.67231935   3.88104661   0.92595622
H    1.03063592   4.42145396   1.59011166
H    1.48365648   4.18876749  -0.08132392
H    2.69348106   4.08153631   1.17481709
C    1.39768730   2.37181801   1.06162589
N    1.19321126   1.24812871   1.16263813
C    4.23571179  -3.11568779   0.39098479
H    4.83457988  -2.39476727   0.90725100
H    4.64960053  -3.29389186  -0.57949886
H    4.22113786  -4.03038864   0.94597042
C    2.79907204  -2.58030737   0.24595366
N    1.72942844  -2.18169230   0.13797138
