
                                 *****************
                                 * O   R   C   A *
                                 *****************

           --- An Ab Initio, DFT and Semiempirical electronic structure package ---

                  #######################################################
                  #                        -***-                        #
                  #          Department of theory and spectroscopy      #
                  #               Directorship: Frank Neese             #
                  #        Max Planck Institute fuer Kohlenforschung    #
                  #                Kaiser Wilhelm Platz 1               #
                  #                 D-45470 Muelheim/Ruhr               #
                  #                      Germany                        #
                  #                                                     #
                  #                  All rights reserved                #
                  #                        -***-                        #
                  #######################################################


                         Program Version 4.2.0 -  RELEASE  -


 With contributions from (in alphabetic order):
   Daniel Aravena         : Magnetic Suceptibility
   Michael Atanasov       : Ab Initio Ligand Field Theory (pilot matlab implementation)
   Alexander A. Auer      : GIAO ZORA, VPT2
   Ute Becker             : Parallelization
   Giovanni Bistoni       : ED, misc. LED, open-shell LED, HFLED
   Martin Brehm           : Molecular dynamics
   Dmytro Bykov           : SCF Hessian
   Vijay G. Chilkuri      : MRCI spin determinant printing, contributions to CSF-ICE
   Dipayan Datta          : RHF DLPNO-CCSD density
   Achintya Kumar Dutta   : EOM-CC, STEOM-CC
   Dmitry Ganyushin       : Spin-Orbit,Spin-Spin,Magnetic field MRCI
   Miquel Garcia          : C-PCM Hessian, Gaussian charge scheme
   Yang Guo               : DLPNO-NEVPT2, CIM, IAO-localization
   Andreas Hansen         : Spin unrestricted coupled pair/coupled cluster methods
   Benjamin Helmich-Paris : CASSCF linear response (MC-RPA)
   Lee Huntington         : MR-EOM, pCC
   Robert Izsak           : Overlap fitted RIJCOSX, COSX-SCS-MP3, EOM
   Christian Kollmar      : KDIIS, OOCD, Brueckner-CCSD(T), CCSD density
   Simone Kossmann        : Meta GGA functionals, TD-DFT gradient, OOMP2, MP2 Hessian
   Martin Krupicka        : AUTO-CI
   Lucas Lang             : DCDCAS
   Dagmar Lenk            : GEPOL surface, SMD
   Dimitrios Liakos       : Extrapolation schemes; Compound Job, initial MDCI parallelization
   Dimitrios Manganas     : Further ROCIS development; embedding schemes
   Dimitrios Pantazis     : SARC Basis sets
   Taras Petrenko         : DFT Hessian,TD-DFT gradient, ASA, ECA, R-Raman, ABS, FL, XAS/XES, NRVS
   Peter Pinski           : DLPNO-MP2, DLPNO-MP2 Gradient
   Christoph Reimann      : Effective Core Potentials
   Marius Retegan         : Local ZFS, SOC
   Christoph Riplinger    : Optimizer, TS searches, QM/MM, DLPNO-CCSD(T), (RO)-DLPNO pert. Triples
   Tobias Risthaus        : Range-separated hybrids, TD-DFT gradient, RPA, STAB
   Michael Roemelt        : Original ROCIS implementation
   Masaaki Saitow         : Open-shell DLPNO-CCSD energy and density
   Barbara Sandhoefer     : DKH picture change effects
   Avijit Sen             : IP-ROCIS
   Kantharuban Sivalingam : CASSCF convergence, NEVPT2, FIC-MRCI
   Bernardo de Souza      : ESD, SOC TD-DFT
   Georgi Stoychev        : AutoAux, RI-MP2 NMR
   Willem Van den Heuvel  : Paramagnetic NMR
   Boris Wezisla          : Elementary symmetry handling
   Frank Wennmohs         : Technical directorship


 We gratefully acknowledge several colleagues who have allowed us to
 interface, adapt or use parts of their codes:
   Stefan Grimme, W. Hujo, H. Kruse,             : VdW corrections, initial TS optimization,
                  C. Bannwarth                     DFT functionals, gCP, sTDA/sTD-DF
   Ed Valeev, F. Pavosevic, A. Kumar             : LibInt (2-el integral package), F12 methods
   Garnet Chan, S. Sharma, J. Yang, R. Olivares  : DMRG
   Ulf Ekstrom                                   : XCFun DFT Library
   Mihaly Kallay                                 : mrcc  (arbitrary order and MRCC methods)
   Andreas Klamt, Michael Diedenhofen            : otool_cosmo (COSMO solvation model)
   Jiri Pittner, Ondrej Demel                    : Mk-CCSD
   Frank Weinhold                                : gennbo (NPA and NBO analysis)
   Christopher J. Cramer and Donald G. Truhlar   : smd solvation model
   Lars Goerigk                                  : TD-DFT with DH, B97 family of functionals
   V. Asgeirsson, H. Jonsson                     : NEB implementation
   FAccTs GmbH                                   : IRC, NEB, NEB-TS, Multilevel, MM, QM/MM, CI optimization
   S Lehtola, MJT Oliveira, MAL Marques          : LibXC Library


 Your calculation uses the libint2 library for the computation of 2-el integrals
 For citations please refer to: http://libint.valeyev.net

 Your ORCA version has been built with support for libXC version: 4.2.3
 For citations please refer to: https://tddft.org/programs/libxc/

 This ORCA versions uses:
   CBLAS   interface :  Fast vector & matrix operations
   LAPACKE interface :  Fast linear algebra routines
   SCALAPACK package :  Parallel linear algebra routines


----- Orbital basis set information -----
Your calculation utilizes the basis: def2-TZVP
   F. Weigend and R. Ahlrichs, Phys. Chem. Chem. Phys. 7, 3297 (2005).

================================================================================
                                        WARNINGS
                       Please study these warnings very carefully!
================================================================================


WARNING: The frozen-core approximation for MP2-gradient calculations is turned on by default.

INFO   : the flag for use of LIBINT has been found!

================================================================================
                                       INPUT FILE
================================================================================
NAME = 12h2o.su.etal.mol0,1,2,8,9-orca.engrad-mp2.def2tzvp.frozencore.inp
|  1> # 12h2o.su.etal.mol0,1,2,8,9
|  2> ! MP2 def2-TZVP EnGrad TightSCF
|  3> 
|  4> %pal
|  5>     nprocs 6
|  6> end
|  7> 
|  8> %maxcore 8000
|  9> 
| 10> %scf
| 11>     ConvForced true
| 12> end
| 13> 
| 14> *xyz 0 1
| 15> O   1.794470000   0.923410000   2.768350000
| 16> H   2.338250000   1.359750000   3.430940000
| 17> H   0.879480000   1.303000000   2.865760000
| 18> O  -1.794470000  -0.923410000   2.768350000
| 19> H  -2.338250000  -1.359750000   3.430940000
| 20> H  -0.879480000  -1.303000000   2.865760000
| 21> O   0.923410000  -1.794470000  -2.768350000
| 22> H   1.359750000  -2.338250000  -3.430940000
| 23> H   1.303000000  -0.879480000  -2.865760000
| 24> O   1.752130000   0.741530000  -2.896280000
| 25> H   2.036450000   0.920500000  -1.984040000
| 26> H   0.921210000   1.242140000  -2.984230000
| 27> O   0.741530000  -1.752130000   2.896280000
| 28> H   0.920500000  -2.036450000   1.984040000
| 29> H   1.242140000  -0.921210000   2.984230000
| 30> *
| 31> 
| 32>                          ****END OF INPUT****
================================================================================

                     *******************************
                     * Energy+Gradient Calculation *
                     *******************************

---------------------------------
CARTESIAN COORDINATES (ANGSTROEM)
---------------------------------
  O      1.794470    0.923410    2.768350
  H      2.338250    1.359750    3.430940
  H      0.879480    1.303000    2.865760
  O     -1.794470   -0.923410    2.768350
  H     -2.338250   -1.359750    3.430940
  H     -0.879480   -1.303000    2.865760
  O      0.923410   -1.794470   -2.768350
  H      1.359750   -2.338250   -3.430940
  H      1.303000   -0.879480   -2.865760
  O      1.752130    0.741530   -2.896280
  H      2.036450    0.920500   -1.984040
  H      0.921210    1.242140   -2.984230
  O      0.741530   -1.752130    2.896280
  H      0.920500   -2.036450    1.984040
  H      1.242140   -0.921210    2.984230

----------------------------
CARTESIAN COORDINATES (A.U.)
----------------------------
  NO LB      ZA    FRAG     MASS         X           Y           Z
   0 O     8.0000    0    15.999    3.391057    1.744992    5.231423
   1 H     1.0000    0     1.008    4.418652    2.569555    6.483537
   2 H     1.0000    0     1.008    1.661976    2.462313    5.415502
   3 O     8.0000    0    15.999   -3.391057   -1.744992    5.231423
   4 H     1.0000    0     1.008   -4.418652   -2.569555    6.483537
   5 H     1.0000    0     1.008   -1.661976   -2.462313    5.415502
   6 O     8.0000    0    15.999    1.744992   -3.391057   -5.231423
   7 H     1.0000    0     1.008    2.569555   -4.418652   -6.483537
   8 H     1.0000    0     1.008    2.462313   -1.661976   -5.415502
   9 O     8.0000    0    15.999    3.311046    1.401289   -5.473176
  10 H     1.0000    0     1.008    3.848333    1.739493   -3.749292
  11 H     1.0000    0     1.008    1.740835    2.347304   -5.639377
  12 O     8.0000    0    15.999    1.401289   -3.311046    5.473176
  13 H     1.0000    0     1.008    1.739493   -3.848333    3.749292
  14 H     1.0000    0     1.008    2.347304   -1.740835    5.639377

--------------------------------
INTERNAL COORDINATES (ANGSTROEM)
--------------------------------
 O      0   0   0     0.000000000000     0.00000000     0.00000000
 H      1   0   0     0.961828878803     0.00000000     0.00000000
 H      1   2   0     0.995381322057   106.21731035     0.00000000
 O      3   1   2     3.480861789658   117.35405144   223.81249033
 H      4   3   1     0.961828878803   134.84484566    98.22461471
 H      4   3   1     0.995381322057    62.29205096    12.66575463
 O      6   4   3     5.935920367146   102.58474291   273.48279218
 H      7   6   4     0.961828878803   146.97742434   224.01286022
 H      7   6   4     0.995381322057    97.62005672    87.72090689
 O      9   7   6     1.682356278379   171.61043709   321.17145860
 H     10   9   7     0.972136791249   103.79460456    70.64587838
 H     10   9   7     0.974050112161   105.61118924   321.69395179
 O      6   4   3     1.682356278379   171.61043709   328.33166207
 H     13   6   4     0.972136791249   103.79460456   289.35412162
 H     13   6   4     0.974050112161   105.61118924    38.30604821

---------------------------
INTERNAL COORDINATES (A.U.)
---------------------------
 O      0   0   0     0.000000000000     0.00000000     0.00000000
 H      1   0   0     1.817593168635     0.00000000     0.00000000
 H      1   2   0     1.880998097508   106.21731035     0.00000000
 O      3   1   2     6.577875492484   117.35405144   223.81249033
 H      4   3   1     1.817593168635   134.84484566    98.22461471
 H      4   3   1     1.880998097508    62.29205096    12.66575463
 O      6   4   3    11.217263846671   102.58474291   273.48279218
 H      7   6   4     1.817593168635   146.97742434   224.01286022
 H      7   6   4     1.880998097508    97.62005672    87.72090689
 O      9   7   6     3.179192625819   171.61043709   321.17145860
 H     10   9   7     1.837072300170   103.79460456    70.64587838
 H     10   9   7     1.840687952699   105.61118924   321.69395179
 O      6   4   3     3.179192625819   171.61043709   328.33166207
 H     13   6   4     1.837072300170   103.79460456   289.35412162
 H     13   6   4     1.840687952699   105.61118924    38.30604821

---------------------
BASIS SET INFORMATION
---------------------
There are 2 groups of distinct atoms

 Group   1 Type O   : 11s6p2d1f contracted to 5s3p2d1f pattern {62111/411/11/1}
 Group   2 Type H   : 5s1p contracted to 3s1p pattern {311/1}

Atom   0O    basis set group =>   1
Atom   1H    basis set group =>   2
Atom   2H    basis set group =>   2
Atom   3O    basis set group =>   1
Atom   4H    basis set group =>   2
Atom   5H    basis set group =>   2
Atom   6O    basis set group =>   1
Atom   7H    basis set group =>   2
Atom   8H    basis set group =>   2
Atom   9O    basis set group =>   1
Atom  10H    basis set group =>   2
Atom  11H    basis set group =>   2
Atom  12O    basis set group =>   1
Atom  13H    basis set group =>   2
Atom  14H    basis set group =>   2


           ************************************************************
           *        Program running with 6 parallel MPI-processes     *
           *              working on a common directory               *
           ************************************************************
------------------------------------------------------------------------------
                           ORCA GTO INTEGRAL CALCULATION
------------------------------------------------------------------------------

                         BASIS SET STATISTICS AND STARTUP INFO

 # of primitive gaussian shells          ...  160
 # of primitive gaussian functions       ...  310
 # of contracted shells                  ...   95
 # of contracted basis functions         ...  215
 Highest angular momentum                ...    3
 Maximum contraction depth               ...    6
 Integral package used                   ... LIBINT
 Integral threshhold            Thresh   ...  2.500e-11
 Primitive cut-off              TCut     ...  2.500e-12


------------------------------ INTEGRAL EVALUATION ----------------------------


 * One electron integrals 
 Pre-screening matrix                    ... done
 Shell pair data                         ... done (   0.001 sec)



           ************************************************************
           *        Program running with 6 parallel MPI-processes     *
           *              working on a common directory               *
           ************************************************************
-------------------------------------------------------------------------------
                                 ORCA SCF
-------------------------------------------------------------------------------

------------
SCF SETTINGS
------------
Hamiltonian:
 Ab initio Hamiltonian  Method          .... Hartree-Fock(GTOs)


General Settings:
 Integral files         IntName         .... 12h2o.su.etal.mol0,1,2,8,9-orca.engrad-mp2.def2tzvp.frozencore
 Hartree-Fock type      HFTyp           .... RHF
 Total Charge           Charge          ....    0
 Multiplicity           Mult            ....    1
 Number of Electrons    NEL             ....   50
 Basis Dimension        Dim             ....  215
 Nuclear Repulsion      ENuc            ....    168.5147111195 Eh

Convergence Acceleration:
 DIIS                   CNVDIIS         .... on
   Start iteration      DIISMaxIt       ....    12
   Startup error        DIISStart       ....  0.200000
   # of expansion vecs  DIISMaxEq       ....     5
   Bias factor          DIISBfac        ....   1.050
   Max. coefficient     DIISMaxC        ....  10.000
 Newton-Raphson         CNVNR           .... off
 SOSCF                  CNVSOSCF        .... on
   Start iteration      SOSCFMaxIt      ....   150
   Startup grad/error   SOSCFStart      ....  0.003300
 Level Shifting         CNVShift        .... on
   Level shift para.    LevelShift      ....    0.2500
   Turn off err/grad.   ShiftErr        ....    0.0010
 Zerner damping         CNVZerner       .... off
 Static damping         CNVDamp         .... on
   Fraction old density DampFac         ....    0.7000
   Max. Damping (<1)    DampMax         ....    0.9800
   Min. Damping (>=0)   DampMin         ....    0.0000
   Turn off err/grad.   DampErr         ....    0.1000
 Fernandez-Rico         CNVRico         .... off

SCF Procedure:
 Maximum # iterations   MaxIter         ....   125
 SCF integral mode      SCFMode         .... Direct
   Integral package                     .... LIBINT
 Reset frequency        DirectResetFreq ....    20
 Integral Threshold     Thresh          ....  2.500e-11 Eh
 Primitive CutOff       TCut            ....  2.500e-12 Eh

Convergence Tolerance:
 Convergence Check Mode ConvCheckMode   .... Total+1el-Energy
 Convergence forced     ConvForced      .... 1
 Energy Change          TolE            ....  1.000e-08 Eh
 1-El. energy change                    ....  1.000e-05 Eh
 Orbital Gradient       TolG            ....  1.000e-05
 Orbital Rotation angle TolX            ....  1.000e-05
 DIIS Error             TolErr          ....  5.000e-07


Diagonalization of the overlap matrix:
Smallest eigenvalue                        ... 4.624e-03
Time for diagonalization                   ...    0.008 sec
Threshold for overlap eigenvalues          ... 1.000e-08
Number of eigenvalues below threshold      ... 0
Time for construction of square roots      ...    0.004 sec
Total time needed                          ...    0.012 sec

-------------------
DFT GRID GENERATION
-------------------

General Integration Accuracy     IntAcc      ...  4.340
Radial Grid Type                 RadialGrid  ... Gauss-Chebyshev
Angular Grid (max. acc.)         AngularGrid ... Lebedev-110
Angular grid pruning method      GridPruning ... 3 (G Style)
Weight generation scheme         WeightScheme... Becke
Basis function cutoff            BFCut       ...    1.0000e-11
Integration weight cutoff        WCut        ...    1.0000e-14
Grids for H and He will be reduced by one unit

# of grid points (after initial pruning)     ...  16520 (   0.0 sec)
# of grid points (after weights+screening)   ...  15920 (   0.0 sec)
nearest neighbour list constructed           ...    0.0 sec
Grid point re-assignment to atoms done       ...    0.0 sec
Grid point division into batches done        ...    0.0 sec
Reduced shell lists constructed in    0.0 sec

Total number of grid points                  ...    15920
Total number of batches                      ...      258
Average number of points per batch           ...       61
Average number of grid points per atom       ...     1061
Average number of shells per batch           ...    43.16 (45.43%)
Average number of basis functions per batch  ...    85.66 (39.84%)
Average number of large shells per batch     ...    29.86 (69.19%)
Average number of large basis fcns per batch ...    59.32 (69.25%)
Maximum spatial batch extension              ...  14.53, 14.40, 17.28 au
Average spatial batch extension              ...   0.70,  0.73,  0.70 au

Time for grid setup =    0.041 sec

------------------------------
INITIAL GUESS: MODEL POTENTIAL
------------------------------
Loading Hartree-Fock densities                     ... done
Calculating cut-offs                               ... done
Setting up the integral package                    ... done
Initializing the effective Hamiltonian             ... done
Starting the Coulomb interaction                   ... done (   0.0 sec)
Reading the grid                                   ... done
Mapping shells                                     ... done
Starting the XC term evaluation                    ... done (   0.0 sec)
Transforming the Hamiltonian                       ... done (   0.0 sec)
Diagonalizing the Hamiltonian                      ... done (   0.0 sec)
Back transforming the eigenvectors                 ... done (   0.0 sec)
Now organizing SCF variables                       ... done
                      ------------------
                      INITIAL GUESS DONE (   0.2 sec)
                      ------------------
--------------
SCF ITERATIONS
--------------
ITER       Energy         Delta-E        Max-DP      RMS-DP      [F,P]     Damp
               ***  Starting incremental Fock matrix formation  ***
  0   -379.8433166764   0.000000000000 0.04410016  0.00107298  0.3505550 0.7000
  1   -380.0241598227  -0.180843146335 0.02934383  0.00074143  0.2165431 0.7000
                               ***Turning on DIIS***
  2   -380.1196590644  -0.095499241640 0.01639146  0.00041193  0.1635005 0.7000
  3   -380.9759999220  -0.856340857628 0.00747713  0.00018619  0.1218930 0.7000
  4   -380.8028707838   0.173129138188 0.01644885  0.00043034  0.0862413 0.0000
  5   -380.3388726753   0.463998108553 0.00211353  0.00006942  0.0052429 0.0000
                      *** Initiating the SOSCF procedure ***
                           *** Shutting down DIIS ***
                      *** Re-Reading the Fockian *** 
                      *** Removing any level shift *** 
ITER      Energy       Delta-E        Grad      Rot      Max-DP    RMS-DP
  6   -380.31207204   0.0268006367  0.000917  0.000917  0.001372  0.000042
               *** Restarting incremental Fock matrix formation ***
  7   -380.30360436   0.0084676784  0.000283  0.000383  0.000668  0.000018
  8   -380.30361170  -0.0000073353  0.000153  0.000312  0.000493  0.000015
  9   -380.30361345  -0.0000017503  0.000071  0.000042  0.000100  0.000003
 10   -380.30361359  -0.0000001455  0.000013  0.000006  0.000020  0.000000
 11   -380.30361359  -0.0000000033  0.000003  0.000002  0.000005  0.000000
                  ***Gradient check signals convergence***
              ***Rediagonalizing the Fockian in SOSCF/NRSCF***

               *****************************************************
               *                     SUCCESS                       *
               *           SCF CONVERGED AFTER  12 CYCLES          *
               *****************************************************


----------------
TOTAL SCF ENERGY
----------------

Total Energy       :         -380.30361359 Eh          -10348.58744 eV

Components:
Nuclear Repulsion  :          168.51471112 Eh            4585.51841 eV
Electronic Energy  :         -548.81832471 Eh          -14934.10585 eV
One Electron Energy:         -860.66803122 Eh          -23419.96778 eV
Two Electron Energy:          311.84970651 Eh            8485.86193 eV

Virial components:
Potential Energy   :         -760.10302825 Eh          -20683.45493 eV
Kinetic Energy     :          379.79941466 Eh           10334.86749 eV
Virial Ratio       :            2.00132754


---------------
SCF CONVERGENCE
---------------

  Last Energy change         ...   -1.2744e-10  Tolerance :   1.0000e-08
  Last MAX-Density change    ...    1.2834e-06  Tolerance :   1.0000e-07
  Last RMS-Density change    ...    4.0179e-08  Tolerance :   5.0000e-09
  Last Orbital Gradient      ...    9.9472e-07  Tolerance :   1.0000e-05
  Last Orbital Rotation      ...    9.5355e-07  Tolerance :   1.0000e-05

             **** THE GBW FILE WAS UPDATED (12h2o.su.etal.mol0,1,2,8,9-orca.engrad-mp2.def2tzvp.frozencore.gbw) ****
             **** DENSITY FILE WAS UPDATED (12h2o.su.etal.mol0,1,2,8,9-orca.engrad-mp2.def2tzvp.frozencore.scfp) ****
             **** ENERGY FILE WAS UPDATED (12h2o.su.etal.mol0,1,2,8,9-orca.engrad-mp2.def2tzvp.frozencore.en.tmp) ****
             **** THE GBW FILE WAS UPDATED (12h2o.su.etal.mol0,1,2,8,9-orca.engrad-mp2.def2tzvp.frozencore.gbw) ****
             **** DENSITY FILE WAS UPDATED (12h2o.su.etal.mol0,1,2,8,9-orca.engrad-mp2.def2tzvp.frozencore.scfp) ****
----------------
ORBITAL ENERGIES
----------------

  NO   OCC          E(Eh)            E(eV) 
   0   2.0000     -20.599840      -560.5501 
   1   2.0000     -20.597839      -560.4957 
   2   2.0000     -20.565224      -559.6082 
   3   2.0000     -20.516786      -558.2901 
   4   2.0000     -20.512159      -558.1642 
   5   2.0000      -1.383129       -37.6369 
   6   2.0000      -1.378130       -37.5008 
   7   2.0000      -1.353441       -36.8290 
   8   2.0000      -1.299196       -35.3529 
   9   2.0000      -1.294146       -35.2155 
  10   2.0000      -0.745136       -20.2762 
  11   2.0000      -0.740665       -20.1545 
  12   2.0000      -0.715394       -19.4669 
  13   2.0000      -0.690516       -18.7899 
  14   2.0000      -0.682026       -18.5589 
  15   2.0000      -0.620880       -16.8950 
  16   2.0000      -0.617717       -16.8089 
  17   2.0000      -0.590289       -16.0626 
  18   2.0000      -0.557698       -15.1757 
  19   2.0000      -0.547426       -14.8962 
  20   2.0000      -0.536016       -14.5857 
  21   2.0000      -0.513967       -13.9858 
  22   2.0000      -0.496678       -13.5153 
  23   2.0000      -0.467104       -12.7105 
  24   2.0000      -0.462865       -12.5952 
  25   0.0000       0.100000         2.7211 
  26   0.0000       0.115090         3.1318 
  27   0.0000       0.155494         4.2312 
  28   0.0000       0.174673         4.7531 
  29   0.0000       0.180243         4.9046 
  30   0.0000       0.185365         5.0440 
  31   0.0000       0.195217         5.3121 
  32   0.0000       0.279818         7.6142 
  33   0.0000       0.323063         8.7910 
  34   0.0000       0.339075         9.2267 
  35   0.0000       0.463040        12.6000 
  36   0.0000       0.479275        13.0417 
  37   0.0000       0.490525        13.3479 
  38   0.0000       0.497426        13.5356 
  39   0.0000       0.512232        13.9385 
  40   0.0000       0.551887        15.0176 
  41   0.0000       0.557095        15.1593 
  42   0.0000       0.565322        15.3832 
  43   0.0000       0.581303        15.8181 
  44   0.0000       0.590460        16.0672 
  45   0.0000       0.605928        16.4881 
  46   0.0000       0.631881        17.1944 
  47   0.0000       0.642985        17.4965 
  48   0.0000       0.644280        17.5318 
  49   0.0000       0.647605        17.6222 
  50   0.0000       0.653226        17.7752 
  51   0.0000       0.671466        18.2715 
  52   0.0000       0.717070        19.5125 
  53   0.0000       0.734833        19.9958 
  54   0.0000       0.737047        20.0561 
  55   0.0000       0.741324        20.1725 
  56   0.0000       0.767639        20.8885 
  57   0.0000       0.787149        21.4194 
  58   0.0000       0.793957        21.6047 
  59   0.0000       0.835008        22.7217 
  60   0.0000       0.915744        24.9187 
  61   0.0000       0.933070        25.3901 
  62   0.0000       0.981105        26.6972 
  63   0.0000       1.006166        27.3792 
  64   0.0000       1.029754        28.0210 
  65   0.0000       1.356964        36.9249 
  66   0.0000       1.361957        37.0607 
  67   0.0000       1.380878        37.5756 
  68   0.0000       1.388632        37.7866 
  69   0.0000       1.410476        38.3810 
  70   0.0000       1.429279        38.8926 
  71   0.0000       1.488461        40.5031 
  72   0.0000       1.492434        40.6112 
  73   0.0000       1.493386        40.6371 
  74   0.0000       1.509496        41.0755 
  75   0.0000       1.547547        42.1109 
  76   0.0000       1.591338        43.3025 
  77   0.0000       1.604873        43.6708 
  78   0.0000       1.607706        43.7479 
  79   0.0000       1.633860        44.4596 
  80   0.0000       1.780121        48.4396 
  81   0.0000       1.790528        48.7227 
  82   0.0000       1.809828        49.2479 
  83   0.0000       1.829904        49.7942 
  84   0.0000       1.853114        50.4258 
  85   0.0000       1.877664        51.0938 
  86   0.0000       1.882371        51.2219 
  87   0.0000       1.971419        53.6450 
  88   0.0000       1.976577        53.7854 
  89   0.0000       1.990262        54.1578 
  90   0.0000       2.055621        55.9363 
  91   0.0000       2.059902        56.0528 
  92   0.0000       2.074196        56.4417 
  93   0.0000       2.126752        57.8719 
  94   0.0000       2.155488        58.6538 
  95   0.0000       2.241512        60.9947 
  96   0.0000       2.247028        61.1447 
  97   0.0000       2.292980        62.3952 
  98   0.0000       2.314032        62.9680 
  99   0.0000       2.323082        63.2143 
 100   0.0000       2.336136        63.5695 
 101   0.0000       2.344437        63.7954 
 102   0.0000       2.368861        64.4600 
 103   0.0000       2.396942        65.2241 
 104   0.0000       2.398940        65.2785 
 105   0.0000       2.426086        66.0172 
 106   0.0000       2.487913        67.6995 
 107   0.0000       2.519970        68.5719 
 108   0.0000       2.529340        68.8269 
 109   0.0000       2.547942        69.3330 
 110   0.0000       2.567047        69.8529 
 111   0.0000       2.582788        70.2812 
 112   0.0000       2.609154        70.9987 
 113   0.0000       2.616326        71.1938 
 114   0.0000       2.645558        71.9893 
 115   0.0000       2.659030        72.3559 
 116   0.0000       2.674426        72.7748 
 117   0.0000       2.695605        73.3511 
 118   0.0000       2.769340        75.3576 
 119   0.0000       2.788100        75.8680 
 120   0.0000       2.875249        78.2395 
 121   0.0000       2.895454        78.7893 
 122   0.0000       2.920711        79.4766 
 123   0.0000       2.932894        79.8081 
 124   0.0000       2.947788        80.2134 
 125   0.0000       2.950542        80.2883 
 126   0.0000       2.967799        80.7579 
 127   0.0000       3.006912        81.8222 
 128   0.0000       3.029617        82.4401 
 129   0.0000       3.042550        82.7920 
 130   0.0000       3.074959        83.6739 
 131   0.0000       3.092557        84.1528 
 132   0.0000       3.106311        84.5270 
 133   0.0000       3.176037        86.4244 
 134   0.0000       3.226920        87.8090 
 135   0.0000       3.227754        87.8316 
 136   0.0000       3.250405        88.4480 
 137   0.0000       3.285254        89.3963 
 138   0.0000       3.498158        95.1897 
 139   0.0000       3.523186        95.8708 
 140   0.0000       3.960645       107.7746 
 141   0.0000       3.999069       108.8202 
 142   0.0000       4.041351       109.9708 
 143   0.0000       4.104899       111.7000 
 144   0.0000       4.122255       112.1723 
 145   0.0000       4.273745       116.2945 
 146   0.0000       4.278207       116.4159 
 147   0.0000       4.316191       117.4495 
 148   0.0000       4.399601       119.7192 
 149   0.0000       4.411475       120.0423 
 150   0.0000       5.511125       149.9653 
 151   0.0000       5.511603       149.9783 
 152   0.0000       5.539109       150.7268 
 153   0.0000       5.589321       152.0932 
 154   0.0000       5.593335       152.2024 
 155   0.0000       5.608181       152.6064 
 156   0.0000       5.652868       153.8224 
 157   0.0000       5.677220       154.4850 
 158   0.0000       5.682558       154.6303 
 159   0.0000       5.693489       154.9277 
 160   0.0000       5.776819       157.1952 
 161   0.0000       5.799374       157.8090 
 162   0.0000       5.803916       157.9326 
 163   0.0000       5.808888       158.0679 
 164   0.0000       5.829404       158.6262 
 165   0.0000       5.847986       159.1318 
 166   0.0000       5.853551       159.2832 
 167   0.0000       5.871327       159.7669 
 168   0.0000       5.877081       159.9235 
 169   0.0000       5.882920       160.0824 
 170   0.0000       5.889540       160.2625 
 171   0.0000       5.893832       160.3793 
 172   0.0000       5.901580       160.5902 
 173   0.0000       5.968503       162.4112 
 174   0.0000       5.974164       162.5653 
 175   0.0000       6.394843       174.0125 
 176   0.0000       6.451444       175.5527 
 177   0.0000       6.479427       176.3142 
 178   0.0000       6.501937       176.9267 
 179   0.0000       6.513395       177.2385 
 180   0.0000       6.668744       181.4657 
 181   0.0000       6.691956       182.0974 
 182   0.0000       6.710957       182.6144 
 183   0.0000       6.747832       183.6178 
 184   0.0000       6.760592       183.9651 
 185   0.0000       6.832634       185.9254 
 186   0.0000       6.834463       185.9752 
 187   0.0000       6.846823       186.3115 
 188   0.0000       6.878156       187.1641 
 189   0.0000       6.883314       187.3045 
 190   0.0000       6.889828       187.4818 
 191   0.0000       6.897302       187.6851 
 192   0.0000       6.917273       188.2286 
 193   0.0000       6.931288       188.6099 
 194   0.0000       6.955029       189.2559 
 195   0.0000       6.973909       189.7697 
 196   0.0000       6.988726       190.1729 
 197   0.0000       6.999190       190.4576 
 198   0.0000       7.058595       192.0741 
 199   0.0000       7.094055       193.0391 
 200   0.0000       7.347650       199.9397 
 201   0.0000       7.404023       201.4737 
 202   0.0000       7.442326       202.5160 
 203   0.0000       7.457846       202.9383 
 204   0.0000       7.470924       203.2942 
 205   0.0000       7.501076       204.1147 
 206   0.0000       7.514256       204.4733 
 207   0.0000       7.540446       205.1860 
 208   0.0000       7.571594       206.0335 
 209   0.0000       7.583610       206.3605 
 210   0.0000      44.849686      1220.4220 
 211   0.0000      44.871163      1221.0064 
 212   0.0000      44.955600      1223.3041 
 213   0.0000      44.971201      1223.7286 
 214   0.0000      44.976040      1223.8603 

                    ********************************
                    * MULLIKEN POPULATION ANALYSIS *
                    ********************************

-----------------------
MULLIKEN ATOMIC CHARGES
-----------------------
   0 O :   -0.730368
   1 H :    0.364890
   2 H :    0.380857
   3 O :   -0.762286
   4 H :    0.332149
   5 H :    0.392322
   6 O :   -0.753313
   7 H :    0.332878
   8 H :    0.387693
   9 O :   -0.705342
  10 H :    0.368373
  11 H :    0.369760
  12 O :   -0.735149
  13 H :    0.367117
  14 H :    0.390419
Sum of atomic charges:    0.0000000

--------------------------------
MULLIKEN REDUCED ORBITAL CHARGES
--------------------------------
  0 O s       :     3.809485  s :     3.809485
      pz      :     1.736416  p :     4.894826
      px      :     1.376812
      py      :     1.781599
      dz2     :     0.004375  d :     0.024557
      dxz     :     0.004953
      dyz     :     0.005569
      dx2y2   :     0.002565
      dxy     :     0.007095
      f0      :     0.000093  f :     0.001500
      f+1     :     0.000351
      f-1     :     0.000183
      f+2     :     0.000061
      f-2     :     0.000355
      f+3     :     0.000091
      f-3     :     0.000366
  1 H s       :     0.589840  s :     0.589840
      pz      :     0.017270  p :     0.045270
      px      :     0.013310
      py      :     0.014690
  2 H s       :     0.577994  s :     0.577994
      pz      :     0.010943  p :     0.041148
      px      :     0.018135
      py      :     0.012071
  3 O s       :     3.808001  s :     3.808001
      pz      :     1.719624  p :     4.928963
      px      :     1.409029
      py      :     1.800310
      dz2     :     0.004104  d :     0.023857
      dxz     :     0.004760
      dyz     :     0.005616
      dx2y2   :     0.002326
      dxy     :     0.007051
      f0      :     0.000088  f :     0.001465
      f+1     :     0.000329
      f-1     :     0.000183
      f+2     :     0.000069
      f-2     :     0.000359
      f+3     :     0.000088
      f-3     :     0.000350
  4 H s       :     0.621787  s :     0.621787
      pz      :     0.017192  p :     0.046064
      px      :     0.013807
      py      :     0.015065
  5 H s       :     0.550566  s :     0.550566
      pz      :     0.010818  p :     0.057112
      px      :     0.032253
      py      :     0.014041
  6 O s       :     3.808208  s :     3.808208
      pz      :     1.717896  p :     4.919473
      px      :     1.801811
      py      :     1.399766
      dz2     :     0.004083  d :     0.024160
      dxz     :     0.005742
      dyz     :     0.004684
      dx2y2   :     0.002360
      dxy     :     0.007292
      f0      :     0.000088  f :     0.001473
      f+1     :     0.000184
      f-1     :     0.000330
      f+2     :     0.000070
      f-2     :     0.000359
      f+3     :     0.000354
      f-3     :     0.000089
  7 H s       :     0.621032  s :     0.621032
      pz      :     0.017070  p :     0.046090
      px      :     0.015174
      py      :     0.013846
  8 H s       :     0.555295  s :     0.555295
      pz      :     0.011008  p :     0.057012
      px      :     0.014188
      py      :     0.031817
  9 O s       :     3.801045  s :     3.801045
      pz      :     1.527550  p :     4.876759
      px      :     1.556455
      py      :     1.792754
      dz2     :     0.012536  d :     0.026078
      dxz     :     0.001233
      dyz     :     0.002549
      dx2y2   :     0.002514
      dxy     :     0.007246
      f0      :     0.000251  f :     0.001460
      f+1     :     0.000395
      f-1     :     0.000165
      f+2     :     0.000052
      f-2     :     0.000057
      f+3     :     0.000055
      f-3     :     0.000485
 10 H s       :     0.587987  s :     0.587987
      pz      :     0.019461  p :     0.043641
      px      :     0.011648
      py      :     0.012532
 11 H s       :     0.586827  s :     0.586827
      pz      :     0.010211  p :     0.043413
      px      :     0.018475
      py      :     0.014728
 12 O s       :     3.796083  s :     3.796083
      pz      :     1.526026  p :     4.912716
      px      :     1.793225
      py      :     1.593465
      dz2     :     0.012235  d :     0.024946
      dxz     :     0.002401
      dyz     :     0.001223
      dx2y2   :     0.002353
      dxy     :     0.006735
      f0      :     0.000252  f :     0.001404
      f+1     :     0.000158
      f-1     :     0.000389
      f+2     :     0.000052
      f-2     :     0.000056
      f+3     :     0.000447
      f-3     :     0.000049
 13 H s       :     0.589273  s :     0.589273
      pz      :     0.019309  p :     0.043611
      px      :     0.012618
      py      :     0.011684
 14 H s       :     0.560229  s :     0.560229
      pz      :     0.009628  p :     0.049352
      px      :     0.015606
      py      :     0.024119


                     *******************************
                     * LOEWDIN POPULATION ANALYSIS *
                     *******************************

----------------------
LOEWDIN ATOMIC CHARGES
----------------------
   0 O :   -0.318520
   1 H :    0.164762
   2 H :    0.192835
   3 O :   -0.376229
   4 H :    0.147193
   5 H :    0.150793
   6 O :   -0.371613
   7 H :    0.147741
   8 H :    0.150428
   9 O :   -0.279355
  10 H :    0.175358
  11 H :    0.177467
  12 O :   -0.293275
  13 H :    0.173437
  14 H :    0.158979

-------------------------------
LOEWDIN REDUCED ORBITAL CHARGES
-------------------------------
  0 O s       :     3.467627  s :     3.467627
      pz      :     1.712272  p :     4.817353
      px      :     1.363178
      py      :     1.741903
      dz2     :     0.004993  d :     0.031473
      dxz     :     0.007071
      dyz     :     0.005495
      dx2y2   :     0.004297
      dxy     :     0.009618
      f0      :     0.000078  f :     0.002066
      f+1     :     0.000457
      f-1     :     0.000271
      f+2     :     0.000033
      f-2     :     0.000609
      f+3     :     0.000089
      f-3     :     0.000528
  1 H s       :     0.671739  s :     0.671739
      pz      :     0.066440  p :     0.163499
      px      :     0.044466
      py      :     0.052593
  2 H s       :     0.658495  s :     0.658495
      pz      :     0.033219  p :     0.148670
      px      :     0.072061
      py      :     0.043390
  3 O s       :     3.468213  s :     3.468213
      pz      :     1.705082  p :     4.876255
      px      :     1.392039
      py      :     1.779134
      dz2     :     0.004323  d :     0.029751
      dxz     :     0.007247
      dyz     :     0.005846
      dx2y2   :     0.003357
      dxy     :     0.008977
      f0      :     0.000074  f :     0.002011
      f+1     :     0.000441
      f-1     :     0.000266
      f+2     :     0.000034
      f-2     :     0.000633
      f+3     :     0.000085
      f-3     :     0.000479
  4 H s       :     0.688480  s :     0.688480
      pz      :     0.065564  p :     0.164327
      px      :     0.045571
      py      :     0.053192
  5 H s       :     0.654236  s :     0.654236
      pz      :     0.033623  p :     0.194971
      px      :     0.113615
      py      :     0.047733
  6 O s       :     3.468649  s :     3.468649
      pz      :     1.705096  p :     4.870755
      px      :     1.778406
      py      :     1.387253
      dz2     :     0.004372  d :     0.030184
      dxz     :     0.005945
      dyz     :     0.007177
      dx2y2   :     0.003394
      dxy     :     0.009296
      f0      :     0.000074  f :     0.002025
      f+1     :     0.000268
      f-1     :     0.000444
      f+2     :     0.000034
      f-2     :     0.000632
      f+3     :     0.000489
      f-3     :     0.000085
  7 H s       :     0.687979  s :     0.687979
      pz      :     0.065545  p :     0.164280
      px      :     0.053298
      py      :     0.045437
  8 H s       :     0.656644  s :     0.656644
      pz      :     0.033788  p :     0.192929
      px      :     0.047617
      py      :     0.111524
  9 O s       :     3.460344  s :     3.460344
      pz      :     1.519072  p :     4.783026
      px      :     1.532951
      py      :     1.731002
      dz2     :     0.016751  d :     0.033774
      dxz     :     0.001977
      dyz     :     0.002043
      dx2y2   :     0.003707
      dxy     :     0.009296
      f0      :     0.000455  f :     0.002211
      f+1     :     0.000592
      f-1     :     0.000350
      f+2     :     0.000023
      f-2     :     0.000048
      f+3     :     0.000028
      f-3     :     0.000716
 10 H s       :     0.666021  s :     0.666021
      pz      :     0.081430  p :     0.158621
      px      :     0.035531
      py      :     0.041660
 11 H s       :     0.664882  s :     0.664882
      pz      :     0.029717  p :     0.157650
      px      :     0.072855
      py      :     0.055078
 12 O s       :     3.453655  s :     3.453655
      pz      :     1.518090  p :     4.805806
      px      :     1.733724
      py      :     1.553992
      dz2     :     0.016105  d :     0.031701
      dxz     :     0.001929
      dyz     :     0.002012
      dx2y2   :     0.003405
      dxy     :     0.008251
      f0      :     0.000462  f :     0.002112
      f+1     :     0.000337
      f-1     :     0.000573
      f+2     :     0.000021
      f-2     :     0.000051
      f+3     :     0.000642
      f-3     :     0.000026
 13 H s       :     0.667282  s :     0.667282
      pz      :     0.080899  p :     0.159281
      px      :     0.041835
      py      :     0.036547
 14 H s       :     0.666627  s :     0.666627
      pz      :     0.029653  p :     0.174394
      px      :     0.058096
      py      :     0.086645


                      *****************************
                      * MAYER POPULATION ANALYSIS *
                      *****************************

  NA   - Mulliken gross atomic population
  ZA   - Total nuclear charge
  QA   - Mulliken gross atomic charge
  VA   - Mayer's total valence
  BVA  - Mayer's bonded valence
  FA   - Mayer's free valence

  ATOM       NA         ZA         QA         VA         BVA        FA
  0 O      8.7304     8.0000    -0.7304     1.7604     1.7604    -0.0000
  1 H      0.6351     1.0000     0.3649     0.8818     0.8818     0.0000
  2 H      0.6191     1.0000     0.3809     0.8696     0.8696    -0.0000
  3 O      8.7623     8.0000    -0.7623     1.6918     1.6918     0.0000
  4 H      0.6679     1.0000     0.3321     0.9052     0.9052     0.0000
  5 H      0.6077     1.0000     0.3923     0.8846     0.8846    -0.0000
  6 O      8.7533     8.0000    -0.7533     1.7031     1.7031     0.0000
  7 H      0.6671     1.0000     0.3329     0.9044     0.9044     0.0000
  8 H      0.6123     1.0000     0.3877     0.8841     0.8841    -0.0000
  9 O      8.7053     8.0000    -0.7053     1.7769     1.7769    -0.0000
 10 H      0.6316     1.0000     0.3684     0.8784     0.8784    -0.0000
 11 H      0.6302     1.0000     0.3698     0.8774     0.8774     0.0000
 12 O      8.7351     8.0000    -0.7351     1.7454     1.7454     0.0000
 13 H      0.6329     1.0000     0.3671     0.8786     0.8786    -0.0000
 14 H      0.6096     1.0000     0.3904     0.8792     0.8792     0.0000

  Mayer bond orders larger than 0.100000
B(  0-O ,  1-H ) :   0.8746 B(  0-O ,  2-H ) :   0.8585 B(  3-O ,  4-H ) :   0.8995 
B(  3-O ,  5-H ) :   0.8117 B(  6-O ,  7-H ) :   0.8990 B(  6-O ,  8-H ) :   0.8246 
B(  9-O , 10-H ) :   0.8720 B(  9-O , 11-H ) :   0.8709 B( 12-O , 13-H ) :   0.8736 
B( 12-O , 14-H ) :   0.8357 

-------
TIMINGS
-------

Total SCF time: 0 days 0 hours 0 min 5 sec 

Total time                  ....       5.780 sec
Sum of individual times     ....       5.568 sec  ( 96.3%)

Fock matrix formation       ....       5.288 sec  ( 91.5%)
Diagonalization             ....       0.054 sec  (  0.9%)
Density matrix formation    ....       0.006 sec  (  0.1%)
Population analysis         ....       0.020 sec  (  0.3%)
Initial guess               ....       0.116 sec  (  2.0%)
Orbital Transformation      ....       0.000 sec  (  0.0%)
Orbital Orthonormalization  ....       0.000 sec  (  0.0%)
DIIS solution               ....       0.017 sec  (  0.3%)
SOSCF solution              ....       0.025 sec  (  0.4%)


           ************************************************************
           *        Program running with 6 parallel MPI-processes     *
           *              working on a common directory               *
           ************************************************************

------------------------------------------------------------------------------
                                ORCA  MP2 
------------------------------------------------------------------------------

Freezing NCore=10 chemical core electrons
MP2 will be done in the AO integral direct mode
The Q1-step will be done using symmetric double matrices
Dimension of the basis                    ...  215
Memory devoted for MP2                    ... 8000 MB   
Memory needed for all in one shot         ...  153 MB
Number of MOs that can be treated together...  209      
MP2 density construction                  ... relaxed
The MP2 gradient is requested => amplitudes will be stored on disk
Total number of MOs              ...   20
Number of MOs treated per batch  ...    4 
Number of batches necessary      ...    1 
OPERATORS   0/  0 PASS   0
-----------------------------------------------
 MP2 CORRELATION ENERGY   :     -1.287504137 Eh
-----------------------------------------------


---------------------
MP2 DENSITY FORMATION
---------------------

Completing the external part of the density      ... done
Storing the unrelaxed density                    ... done

Calculating G(D)                                 ... done
Completing the Lagrangian                        ... done
Solving the Z-vector equations                   ... 

------------------------------------------------------------------------------
                           ORCA CP-SCF CALCULATION
------------------------------------------------------------------------------

Input orbitals are from        ... 12h2o.su.etal.mol0,1,2,8,9-orca.engrad-mp2.def2tzvp.frozencore.gbw
Input Perturbation             ... 12h2o.su.etal.mol0,1,2,8,9-orca.engrad-mp2.def2tzvp.frozencore.pin.tmp
Wavefunction output            ... 12h2o.su.etal.mol0,1,2,8,9-orca.engrad-mp2.def2tzvp.frozencore.pout.tmp
Perturbation mode              ... Real perturbation (singlet)
Solver                         ... POPLE
Max. number of iterations      ... 128
Convergence tolerance          ... 1.000e-08
Integral handling              ... Direct
Number of perturbations        ... 1
Number of operators            ... 1
Orbital ranges used for CP-SCF:
 Operator 0:  Orbitals   0... 24  to  25...214
Variables per vector in CP-SCF ... 4750
Number of vectors sought       ... 1
     CP-SCF ITERATION   0: 
     CP-SCF ITERATION   1:      0.000574729325
     CP-SCF ITERATION   2:      0.000013161175
     CP-SCF ITERATION   3:      0.000000554646
     CP-SCF ITERATION   4:      0.000000051270
     CP-SCF ITERATION   5:      0.000000003785
                                                 ... done
Finalizing the relaxed density                   ... done
Transforming P to the AO basis                   ... done
Storing the relaxed density                      ... done

------------------------------------
ENERGY WEIGHTED DENSITY FINALIZATION
------------------------------------

Gathering the parts of the W-matrix              ...                                                      done
Forming the Z-density                            ... done
Transforming Z to the AO basis                   ... done
Calculating G(Z)                                 ... done
Finalizing the W-matrix                          ...                                                      done
Transforming W to the AO basis and storing       ... done

                *********************************************
                * UNRELAXED MP2 DENSITY POPULATION ANALYSIS *
                *********************************************

------------------------------------------------------------------------------
                           ORCA POPULATION ANALYSIS
------------------------------------------------------------------------------
Input electron density              ... 12h2o.su.etal.mol0,1,2,8,9-orca.engrad-mp2.def2tzvp.frozencore.pmp2ur
BaseName (.gbw .S,...)              ... 12h2o.su.etal.mol0,1,2,8,9-orca.engrad-mp2.def2tzvp.frozencore

                    ********************************
                    * MULLIKEN POPULATION ANALYSIS *
                    ********************************

-----------------------
MULLIKEN ATOMIC CHARGES
-----------------------
   0 O :   -0.724840
   1 H :    0.362720
   2 H :    0.378068
   3 O :   -0.756818
   4 H :    0.329895
   5 H :    0.387786
   6 O :   -0.747962
   7 H :    0.330633
   8 H :    0.383440
   9 O :   -0.699384
  10 H :    0.365974
  11 H :    0.367350
  12 O :   -0.728688
  13 H :    0.364708
  14 H :    0.387118
Sum of atomic charges:    0.0000000

--------------------------------
MULLIKEN REDUCED ORBITAL CHARGES
--------------------------------
  0 O s       :     3.804611  s :     3.804611
      pz      :     1.725793  p :     4.864790
      px      :     1.369144
      py      :     1.769852
      dz2     :     0.009758  d :     0.051384
      dxz     :     0.010235
      dyz     :     0.010960
      dx2y2   :     0.008012
      dxy     :     0.012419
      f0      :     0.000461  f :     0.004055
      f+1     :     0.000712
      f-1     :     0.000548
      f+2     :     0.000429
      f-2     :     0.000719
      f+3     :     0.000461
      f-3     :     0.000725
  1 H s       :     0.590460  s :     0.590460
      pz      :     0.017744  p :     0.046820
      px      :     0.013696
      py      :     0.015380
  2 H s       :     0.579284  s :     0.579284
      pz      :     0.011770  p :     0.042648
      px      :     0.018066
      py      :     0.012812
  3 O s       :     3.803062  s :     3.803062
      pz      :     1.709226  p :     4.898860
      px      :     1.400605
      py      :     1.789028
      dz2     :     0.009567  d :     0.050864
      dxz     :     0.010123
      dyz     :     0.010942
      dx2y2   :     0.007823
      dxy     :     0.012409
      f0      :     0.000456  f :     0.004032
      f+1     :     0.000693
      f-1     :     0.000546
      f+2     :     0.000437
      f-2     :     0.000724
      f+3     :     0.000461
      f-3     :     0.000715
  4 H s       :     0.622307  s :     0.622307
      pz      :     0.017709  p :     0.047798
      px      :     0.014277
      py      :     0.015812
  5 H s       :     0.553422  s :     0.553422
      pz      :     0.011655  p :     0.058791
      px      :     0.032358
      py      :     0.014779
  6 O s       :     3.803289  s :     3.803289
      pz      :     1.707507  p :     4.889531
      px      :     1.790576
      py      :     1.391448
      dz2     :     0.009538  d :     0.051104
      dxz     :     0.011060
      dyz     :     0.010040
      dx2y2   :     0.007844
      dxy     :     0.012622
      f0      :     0.000456  f :     0.004038
      f+1     :     0.000547
      f-1     :     0.000693
      f+2     :     0.000438
      f-2     :     0.000724
      f+3     :     0.000719
      f-3     :     0.000462
  7 H s       :     0.621544  s :     0.621544
      pz      :     0.017584  p :     0.047823
      px      :     0.015929
      py      :     0.014310
  8 H s       :     0.557846  s :     0.557846
      pz      :     0.011854  p :     0.058714
      px      :     0.014938
      py      :     0.031921
  9 O s       :     3.795899  s :     3.795899
      pz      :     1.518457  p :     4.846413
      px      :     1.547339
      py      :     1.780616
      dz2     :     0.017602  d :     0.053031
      dxz     :     0.006595
      dyz     :     0.008085
      dx2y2   :     0.008125
      dxy     :     0.012623
      f0      :     0.000631  f :     0.004042
      f+1     :     0.000760
      f-1     :     0.000541
      f+2     :     0.000414
      f-2     :     0.000423
      f+3     :     0.000430
      f-3     :     0.000845
 10 H s       :     0.588835  s :     0.588835
      pz      :     0.019535  p :     0.045191
      px      :     0.012307
      py      :     0.013349
 11 H s       :     0.587698  s :     0.587698
      pz      :     0.010965  p :     0.044952
      px      :     0.018637
      py      :     0.015350
 12 O s       :     3.790884  s :     3.790884
      pz      :     1.516876  p :     4.881530
      px      :     1.780741
      py      :     1.583912
      dz2     :     0.017365  d :     0.052273
      dxz     :     0.007983
      dyz     :     0.006662
      dx2y2   :     0.008061
      dxy     :     0.012201
      f0      :     0.000633  f :     0.004001
      f+1     :     0.000534
      f-1     :     0.000756
      f+2     :     0.000415
      f-2     :     0.000424
      f+3     :     0.000812
      f-3     :     0.000427
 13 H s       :     0.590107  s :     0.590107
      pz      :     0.019384  p :     0.045185
      px      :     0.013437
      py      :     0.012365
 14 H s       :     0.562024  s :     0.562024
      pz      :     0.010379  p :     0.050858
      px      :     0.016169
      py      :     0.024311


                     *******************************
                     * LOEWDIN POPULATION ANALYSIS *
                     *******************************

----------------------
LOEWDIN ATOMIC CHARGES
----------------------
   0 O :   -0.314783
   1 H :    0.163671
   2 H :    0.191167
   3 O :   -0.373893
   4 H :    0.145905
   5 H :    0.148277
   6 O :   -0.369266
   7 H :    0.146470
   8 H :    0.148001
   9 O :   -0.275331
  10 H :    0.174030
  11 H :    0.176124
  12 O :   -0.289311
  13 H :    0.172067
  14 H :    0.156872

-------------------------------
LOEWDIN REDUCED ORBITAL CHARGES
-------------------------------
  0 O s       :     3.463850  s :     3.463850
      pz      :     1.701733  p :     4.786789
      px      :     1.355142
      py      :     1.729915
      dz2     :     0.010499  d :     0.059331
      dxz     :     0.012568
      dyz     :     0.011164
      dx2y2   :     0.009836
      dxy     :     0.015265
      f0      :     0.000456  f :     0.004813
      f+1     :     0.000864
      f-1     :     0.000656
      f+2     :     0.000408
      f-2     :     0.001016
      f+3     :     0.000473
      f-3     :     0.000940
  1 H s       :     0.669870  s :     0.669870
      pz      :     0.067626  p :     0.166460
      px      :     0.045279
      py      :     0.053555
  2 H s       :     0.657218  s :     0.657218
      pz      :     0.034031  p :     0.151616
      px      :     0.073238
      py      :     0.044346
  3 O s       :     3.464578  s :     3.464578
      pz      :     1.694726  p :     4.846714
      px      :     1.383772
      py      :     1.768216
      dz2     :     0.009865  d :     0.057828
      dxz     :     0.012832
      dyz     :     0.011494
      dx2y2   :     0.008957
      dxy     :     0.014680
      f0      :     0.000452  f :     0.004773
      f+1     :     0.000853
      f-1     :     0.000648
      f+2     :     0.000410
      f-2     :     0.001042
      f+3     :     0.000472
      f-3     :     0.000897
  4 H s       :     0.686436  s :     0.686436
      pz      :     0.066888  p :     0.167659
      px      :     0.046551
      py      :     0.054220
  5 H s       :     0.654282  s :     0.654282
      pz      :     0.034461  p :     0.197441
      px      :     0.114372
      py      :     0.048608
  6 O s       :     3.464992  s :     3.464992
      pz      :     1.694749  p :     4.841292
      px      :     1.767528
      py      :     1.379015
      dz2     :     0.009905  d :     0.058195
      dxz     :     0.011583
      dyz     :     0.012752
      dx2y2   :     0.008979
      dxy     :     0.014976
      f0      :     0.000452  f :     0.004786
      f+1     :     0.000650
      f-1     :     0.000855
      f+2     :     0.000410
      f-2     :     0.001041
      f+3     :     0.000907
      f-3     :     0.000472
  7 H s       :     0.685928  s :     0.685928
      pz      :     0.066856  p :     0.167602
      px      :     0.054338
      py      :     0.046407
  8 H s       :     0.656530  s :     0.656530
      pz      :     0.034632  p :     0.195470
      px      :     0.048517
      py      :     0.112320
  9 O s       :     3.456473  s :     3.456473
      pz      :     1.509738  p :     4.752141
      px      :     1.523629
      py      :     1.718774
      dz2     :     0.022505  d :     0.061728
      dxz     :     0.007281
      dyz     :     0.007507
      dx2y2   :     0.009286
      dxy     :     0.015150
      f0      :     0.000875  f :     0.004988
      f+1     :     0.001010
      f-1     :     0.000749
      f+2     :     0.000389
      f-2     :     0.000421
      f+3     :     0.000408
      f-3     :     0.001136
 10 H s       :     0.664348  s :     0.664348
      pz      :     0.082899  p :     0.161622
      px      :     0.036256
      py      :     0.042468
 11 H s       :     0.663235  s :     0.663235
      pz      :     0.030437  p :     0.160641
      px      :     0.074117
      py      :     0.056087
 12 O s       :     3.449863  s :     3.449863
      pz      :     1.508709  p :     4.774501
      px      :     1.721323
      py      :     1.544469
      dz2     :     0.021928  d :     0.060041
      dxz     :     0.007438
      dyz     :     0.007393
      dx2y2   :     0.009067
      dxy     :     0.014215
      f0      :     0.000884  f :     0.004906
      f+1     :     0.000736
      f-1     :     0.000995
      f+2     :     0.000390
      f-2     :     0.000426
      f+3     :     0.001067
      f-3     :     0.000409
 13 H s       :     0.665592  s :     0.665592
      pz      :     0.082393  p :     0.162341
      px      :     0.042638
      py      :     0.037310
 14 H s       :     0.665968  s :     0.665968
      pz      :     0.030385  p :     0.177160
      px      :     0.059004
      py      :     0.087770


                      *****************************
                      * MAYER POPULATION ANALYSIS *
                      *****************************

  NA   - Mulliken gross atomic population
  ZA   - Total nuclear charge
  QA   - Mulliken gross atomic charge
  VA   - Mayer's total valence
  BVA  - Mayer's bonded valence
  FA   - Mayer's free valence

  ATOM       NA         ZA         QA         VA         BVA        FA
  0 O      8.7248     8.0000    -0.7248     2.0697     1.6803     0.3894
  1 H      0.6373     1.0000     0.3627     0.8873     0.8423     0.0450
  2 H      0.6219     1.0000     0.3781     0.8755     0.8289     0.0467
  3 O      8.7568     8.0000    -0.7568     2.0051     1.6134     0.3917
  4 H      0.6701     1.0000     0.3299     0.9112     0.8632     0.0480
  5 H      0.6122     1.0000     0.3878     0.8922     0.8462     0.0460
  6 O      8.7480     8.0000    -0.7480     2.0148     1.6242     0.3906
  7 H      0.6694     1.0000     0.3306     0.9104     0.8626     0.0479
  8 H      0.6166     1.0000     0.3834     0.8913     0.8454     0.0460
  9 O      8.6994     8.0000    -0.6994     2.0818     1.6967     0.3850
 10 H      0.6340     1.0000     0.3660     0.8841     0.8385     0.0456
 11 H      0.6326     1.0000     0.3674     0.8831     0.8375     0.0456
 12 O      8.7287     8.0000    -0.7287     2.0546     1.6670     0.3876
 13 H      0.6353     1.0000     0.3647     0.8843     0.8384     0.0459
 14 H      0.6129     1.0000     0.3871     0.8855     0.8413     0.0443

  Mayer bond orders larger than 0.100000
B(  0-O ,  1-H ) :   0.8356 B(  0-O ,  2-H ) :   0.8183 B(  3-O ,  4-H ) :   0.8581 
B(  3-O ,  5-H ) :   0.7753 B(  6-O ,  7-H ) :   0.8577 B(  6-O ,  8-H ) :   0.7873 
B(  9-O , 10-H ) :   0.8325 B(  9-O , 11-H ) :   0.8314 B( 12-O , 13-H ) :   0.8339 
B( 12-O , 14-H ) :   0.7991 


                *******************************************
                * RELAXED MP2 DENSITY POPULATION ANALYSIS *
                *******************************************

------------------------------------------------------------------------------
                           ORCA POPULATION ANALYSIS
------------------------------------------------------------------------------
Input electron density              ... 12h2o.su.etal.mol0,1,2,8,9-orca.engrad-mp2.def2tzvp.frozencore.pmp2re
BaseName (.gbw .S,...)              ... 12h2o.su.etal.mol0,1,2,8,9-orca.engrad-mp2.def2tzvp.frozencore

                    ********************************
                    * MULLIKEN POPULATION ANALYSIS *
                    ********************************

-----------------------
MULLIKEN ATOMIC CHARGES
-----------------------
   0 O :   -0.705111
   1 H :    0.356373
   2 H :    0.370882
   3 O :   -0.738076
   4 H :    0.323937
   5 H :    0.364850
   6 O :   -0.730107
   7 H :    0.324740
   8 H :    0.362817
   9 O :   -0.678145
  10 H :    0.359702
  11 H :    0.361065
  12 O :   -0.702513
  13 H :    0.359028
  14 H :    0.370558
Sum of atomic charges:   -0.0000000

--------------------------------
MULLIKEN REDUCED ORBITAL CHARGES
--------------------------------
  0 O s       :     3.807778  s :     3.807778
      pz      :     1.720862  p :     4.844150
      px      :     1.366252
      py      :     1.757036
      dz2     :     0.009485  d :     0.049202
      dxz     :     0.009659
      dyz     :     0.010703
      dx2y2   :     0.007736
      dxy     :     0.011620
      f0      :     0.000459  f :     0.003982
      f+1     :     0.000693
      f-1     :     0.000540
      f+2     :     0.000429
      f-2     :     0.000698
      f+3     :     0.000459
      f-3     :     0.000704
  1 H s       :     0.596140  s :     0.596140
      pz      :     0.017861  p :     0.047487
      px      :     0.013612
      py      :     0.016014
  2 H s       :     0.585958  s :     0.585958
      pz      :     0.012584  p :     0.043160
      px      :     0.017091
      py      :     0.013484
  3 O s       :     3.803455  s :     3.803455
      pz      :     1.704401  p :     4.881684
      px      :     1.394281
      py      :     1.783002
      dz2     :     0.009364  d :     0.048970
      dxz     :     0.009556
      dyz     :     0.010639
      dx2y2   :     0.007695
      dxy     :     0.011716
      f0      :     0.000454  f :     0.003967
      f+1     :     0.000676
      f-1     :     0.000538
      f+2     :     0.000437
      f-2     :     0.000705
      f+3     :     0.000459
      f-3     :     0.000698
  4 H s       :     0.627473  s :     0.627473
      pz      :     0.017887  p :     0.048590
      px      :     0.014271
      py      :     0.016431
  5 H s       :     0.576120  s :     0.576120
      pz      :     0.012416  p :     0.059030
      px      :     0.031289
      py      :     0.015326
  6 O s       :     3.804008  s :     3.804008
      pz      :     1.702638  p :     4.872929
      px      :     1.785184
      py      :     1.385106
      dz2     :     0.009332  d :     0.049196
      dxz     :     0.010760
      dyz     :     0.009478
      dx2y2   :     0.007722
      dxy     :     0.011903
      f0      :     0.000453  f :     0.003973
      f+1     :     0.000539
      f-1     :     0.000676
      f+2     :     0.000438
      f-2     :     0.000705
      f+3     :     0.000702
      f-3     :     0.000460
  7 H s       :     0.626639  s :     0.626639
      pz      :     0.017729  p :     0.048621
      px      :     0.016598
      py      :     0.014293
  8 H s       :     0.578152  s :     0.578152
      pz      :     0.012638  p :     0.059031
      px      :     0.015505
      py      :     0.030888
  9 O s       :     3.798970  s :     3.798970
      pz      :     1.513643  p :     4.824270
      px      :     1.544057
      py      :     1.766570
      dz2     :     0.016276  d :     0.050939
      dxz     :     0.006538
      dyz     :     0.008067
      dx2y2   :     0.008103
      dxy     :     0.011954
      f0      :     0.000612  f :     0.003966
      f+1     :     0.000738
      f-1     :     0.000531
      f+2     :     0.000414
      f-2     :     0.000421
      f+3     :     0.000430
      f-3     :     0.000820
 10 H s       :     0.594514  s :     0.594514
      pz      :     0.018778  p :     0.045784
      px      :     0.012805
      py      :     0.014201
 11 H s       :     0.593400  s :     0.593400
      pz      :     0.011607  p :     0.045536
      px      :     0.018102
      py      :     0.015827
 12 O s       :     3.790615  s :     3.790615
      pz      :     1.511391  p :     4.857584
      px      :     1.763284
      py      :     1.582909
      dz2     :     0.016090  d :     0.050386
      dxz     :     0.007963
      dyz     :     0.006614
      dx2y2   :     0.008070
      dxy     :     0.011649
      f0      :     0.000615  f :     0.003928
      f+1     :     0.000525
      f-1     :     0.000735
      f+2     :     0.000416
      f-2     :     0.000422
      f+3     :     0.000789
      f-3     :     0.000427
 13 H s       :     0.595169  s :     0.595169
      pz      :     0.018623  p :     0.045803
      px      :     0.014303
      py      :     0.012878
 14 H s       :     0.578126  s :     0.578126
      pz      :     0.010981  p :     0.051316
      px      :     0.016518
      py      :     0.023817


                     *******************************
                     * LOEWDIN POPULATION ANALYSIS *
                     *******************************

----------------------
LOEWDIN ATOMIC CHARGES
----------------------
   0 O :   -0.312394
   1 H :    0.165479
   2 H :    0.192320
   3 O :   -0.376225
   4 H :    0.147734
   5 H :    0.140852
   6 O :   -0.371654
   7 H :    0.148297
   8 H :    0.141215
   9 O :   -0.271017
  10 H :    0.175541
  11 H :    0.177660
  12 O :   -0.283762
  13 H :    0.173773
  14 H :    0.152180

-------------------------------
LOEWDIN REDUCED ORBITAL CHARGES
-------------------------------
  0 O s       :     3.465406  s :     3.465406
      pz      :     1.701068  p :     4.784020
      px      :     1.360340
      py      :     1.722612
      dz2     :     0.010341  d :     0.058137
      dxz     :     0.012191
      dyz     :     0.011128
      dx2y2   :     0.009626
      dxy     :     0.014852
      f0      :     0.000458  f :     0.004830
      f+1     :     0.000870
      f-1     :     0.000655
      f+2     :     0.000408
      f-2     :     0.001016
      f+3     :     0.000476
      f-3     :     0.000946
  1 H s       :     0.668301  s :     0.668301
      pz      :     0.067668  p :     0.166219
      px      :     0.044550
      py      :     0.054001
  2 H s       :     0.656215  s :     0.656215
      pz      :     0.034752  p :     0.151464
      px      :     0.071750
      py      :     0.044962
  3 O s       :     3.466189  s :     3.466189
      pz      :     1.694326  p :     4.848201
      px      :     1.387394
      py      :     1.766481
      dz2     :     0.009814  d :     0.057024
      dxz     :     0.012460
      dyz     :     0.011402
      dx2y2   :     0.008935
      dxy     :     0.014414
      f0      :     0.000454  f :     0.004811
      f+1     :     0.000865
      f-1     :     0.000648
      f+2     :     0.000411
      f-2     :     0.001043
      f+3     :     0.000476
      f-3     :     0.000914
  4 H s       :     0.684307  s :     0.684307
      pz      :     0.067023  p :     0.167959
      px      :     0.046161
      py      :     0.054776
  5 H s       :     0.661457  s :     0.661457
      pz      :     0.035172  p :     0.197691
      px      :     0.113325
      py      :     0.049194
  6 O s       :     3.466629  s :     3.466629
      pz      :     1.694415  p :     4.842846
      px      :     1.765894
      py      :     1.382537
      dz2     :     0.009846  d :     0.057356
      dxz     :     0.011492
      dyz     :     0.012381
      dx2y2   :     0.008952
      dxy     :     0.014685
      f0      :     0.000454  f :     0.004822
      f+1     :     0.000650
      f-1     :     0.000867
      f+2     :     0.000411
      f-2     :     0.001041
      f+3     :     0.000923
      f-3     :     0.000476
  7 H s       :     0.683786  s :     0.683786
      pz      :     0.066957  p :     0.167917
      px      :     0.054974
      py      :     0.045985
  8 H s       :     0.663040  s :     0.663040
      pz      :     0.035369  p :     0.195745
      px      :     0.049145
      py      :     0.111231
  9 O s       :     3.458037  s :     3.458037
      pz      :     1.511854  p :     4.747249
      px      :     1.525732
      py      :     1.709662
      dz2     :     0.021818  d :     0.060725
      dxz     :     0.007144
      dyz     :     0.007544
      dx2y2   :     0.009354
      dxy     :     0.014865
      f0      :     0.000875  f :     0.005007
      f+1     :     0.001017
      f-1     :     0.000749
      f+2     :     0.000391
      f-2     :     0.000421
      f+3     :     0.000409
      f-3     :     0.001144
 10 H s       :     0.662917  s :     0.662917
      pz      :     0.081949  p :     0.161542
      px      :     0.036406
      py      :     0.043187
 11 H s       :     0.661790  s :     0.661790
      pz      :     0.030731  p :     0.160550
      px      :     0.073279
      py      :     0.056540
 12 O s       :     3.450796  s :     3.450796
      pz      :     1.510829  p :     4.768760
      px      :     1.711458
      py      :     1.546473
      dz2     :     0.021307  d :     0.059277
      dxz     :     0.007469
      dyz     :     0.007264
      dx2y2   :     0.009174
      dxy     :     0.014063
      f0      :     0.000883  f :     0.004929
      f+1     :     0.000737
      f-1     :     0.001003
      f+2     :     0.000391
      f-2     :     0.000426
      f+3     :     0.001079
      f-3     :     0.000410
 13 H s       :     0.663927  s :     0.663927
      pz      :     0.081447  p :     0.162300
      px      :     0.043276
      py      :     0.037577
 14 H s       :     0.670182  s :     0.670182
      pz      :     0.030752  p :     0.177638
      px      :     0.059468
      py      :     0.087418


                      *****************************
                      * MAYER POPULATION ANALYSIS *
                      *****************************

  NA   - Mulliken gross atomic population
  ZA   - Total nuclear charge
  QA   - Mulliken gross atomic charge
  VA   - Mayer's total valence
  BVA  - Mayer's bonded valence
  FA   - Mayer's free valence

  ATOM       NA         ZA         QA         VA         BVA        FA
  0 O      8.7051     8.0000    -0.7051     2.0930     1.7092     0.3839
  1 H      0.6436     1.0000     0.3564     0.8920     0.8470     0.0450
  2 H      0.6291     1.0000     0.3709     0.8826     0.8360     0.0466
  3 O      8.7381     8.0000    -0.7381     2.0118     1.6248     0.3870
  4 H      0.6761     1.0000     0.3239     0.9148     0.8667     0.0481
  5 H      0.6352     1.0000     0.3648     0.9207     0.8755     0.0452
  6 O      8.7301     8.0000    -0.7301     2.0212     1.6352     0.3860
  7 H      0.6753     1.0000     0.3247     0.9139     0.8659     0.0480
  8 H      0.6372     1.0000     0.3628     0.9168     0.8714     0.0454
  9 O      8.6781     8.0000    -0.6781     2.1096     1.7302     0.3794
 10 H      0.6403     1.0000     0.3597     0.8890     0.8434     0.0457
 11 H      0.6389     1.0000     0.3611     0.8881     0.8424     0.0457
 12 O      8.7025     8.0000    -0.7025     2.0871     1.7053     0.3818
 13 H      0.6410     1.0000     0.3590     0.8880     0.8420     0.0460
 14 H      0.6294     1.0000     0.3706     0.9084     0.8647     0.0437

  Mayer bond orders larger than 0.100000
B(  0-O ,  1-H ) :   0.8394 B(  0-O ,  2-H ) :   0.8221 B(  3-O ,  4-H ) :   0.8613 
B(  3-O ,  5-H ) :   0.7777 B(  6-O ,  7-H ) :   0.8609 B(  6-O ,  8-H ) :   0.7906 
B(  9-O , 10-H ) :   0.8362 B(  9-O , 11-H ) :   0.8351 B( 12-O , 13-H ) :   0.8370 
B( 12-O , 14-H ) :   0.8019 


----------------------------------
MP2 DERIVATIVE INTEGRAL GENERATION
----------------------------------


Input Wavefunction Amplitudes       ... 12h2o.su.etal.mol0,1,2,8,9-orca.engrad-mp2.def2tzvp.frozencore.mp2tsaa.tmp
Input Correlated Electron Density   ... 12h2o.su.etal.mol0,1,2,8,9-orca.engrad-mp2.def2tzvp.frozencore.pmp2re
Input Energy Weighted Density       ... 12h2o.su.etal.mol0,1,2,8,9-orca.engrad-mp2.def2tzvp.frozencore.wmp2.tmp
Input SCF Electron Density          ... 12h2o.su.etal.mol0,1,2,8,9-orca.engrad-mp2.def2tzvp.frozencore.scfp

One-Electron Terms    ...
                        ... One-Electron Terms done
Prescreening matrices              ... done

Batch handling in the gradient evaluation:
Memory available                      ... 8000.0 MB
Memory per occupied orbital in Q2     ...    7.1 MB
Memory per occupied orbital in Q3     ...    0.1 MB
Total memory requirement per |i>      ...    7.1 MB
Max. Number of orbitals possible      ...   1121
Number of orbitals treated per batch  ...     20
Number of batches to be done          ...      1
Batch   0: i=    5 ...    24

---------------------------------------
MP2 TOTAL ENERGY:     -381.591117731 Eh
---------------------------------------

The final MP2 gradient
  0:   0.02706500  -0.00563118  -0.00033246
  1:   0.00100012  -0.00215493  -0.00172560
  2:  -0.02593516   0.00848634   0.00142454
  3:  -0.00950051   0.00116255  -0.00096553
  4:  -0.00193232   0.00039830   0.00066326
  5:   0.01735219  -0.00434205  -0.00071496
  6:  -0.00476436  -0.01107444  -0.00046906
  7:  -0.00013987  -0.00191219  -0.00035372
  8:   0.00690137   0.02178426   0.00158369
  9:   0.00471845  -0.01357433  -0.00838303
 10:   0.00062569   0.00056854   0.00654785
 11:  -0.00749531   0.00430564   0.00053609
 12:  -0.00761086   0.00185049   0.00826162
 13:   0.00066584  -0.00067583  -0.00721160
 14:  -0.00095029   0.00080882   0.00113890

-----------------------------------
NORM OF THE MP2 GRADIENT:  0.056496
-----------------------------------

-------------------------   --------------------
FINAL SINGLE POINT ENERGY      -381.591117731460
-------------------------   --------------------


                            ***************************************
                            *     ORCA property calculations      *
                            ***************************************

                                    ---------------------
                                    Active property flags
                                    ---------------------
   (+) Dipole Moment


------------------------------------------------------------------------------
                       ORCA ELECTRIC PROPERTIES CALCULATION
------------------------------------------------------------------------------

Dipole Moment Calculation                       ... on
Quadrupole Moment Calculation                   ... off
Polarizability Calculation                      ... off
GBWName                                         ... 12h2o.su.etal.mol0,1,2,8,9-orca.engrad-mp2.def2tzvp.frozencore.gbw
Electron density file                           ... 12h2o.su.etal.mol0,1,2,8,9-orca.engrad-mp2.def2tzvp.frozencore.scfp
The origin for moment calculation is the CENTER OF MASS  = ( 1.311532, -1.026382  1.062357)

-------------
DIPOLE MOMENT
-------------
                                X             Y             Z
Electronic contribution:      0.33547       0.20649      -0.08438
Nuclear contribution   :      0.78984       1.32960       0.63259
                        -----------------------------------------
Total Dipole Moment    :      1.12531       1.53610       0.54821
                        -----------------------------------------
Magnitude (a.u.)       :      1.98153
Magnitude (Debye)      :      5.03664



--------------------
Rotational spectrum 
--------------------
 
Rotational constants in cm-1:     0.066381     0.021281     0.018448 
Rotational constants in MHz :  1990.044165   637.983486   553.064723 

 Dipole components along the rotational axes: 
x,y,z [a.u.] :     0.209022     1.962111     0.181335 
x,y,z [Debye]:     0.531292     4.987291     0.460916 

 

                         *** MP2 UNRELAXED DENSITY ***

------------------------------------------------------------------------------
                       ORCA ELECTRIC PROPERTIES CALCULATION
------------------------------------------------------------------------------

Dipole Moment Calculation                       ... on
Quadrupole Moment Calculation                   ... off
Polarizability Calculation                      ... off
GBWName                                         ... 12h2o.su.etal.mol0,1,2,8,9-orca.engrad-mp2.def2tzvp.frozencore.gbw
Electron density file                           ... 12h2o.su.etal.mol0,1,2,8,9-orca.engrad-mp2.def2tzvp.frozencore.pmp2ur
The origin for moment calculation is the CENTER OF MASS  = ( 1.311532, -1.026382  1.062357)

-------------
DIPOLE MOMENT
-------------
                                X             Y             Z
Electronic contribution:      0.33271       0.19670      -0.09103
Nuclear contribution   :      0.78984       1.32960       0.63259
                        -----------------------------------------
Total Dipole Moment    :      1.12255       1.52631       0.54156
                        -----------------------------------------
Magnitude (a.u.)       :      1.97054
Magnitude (Debye)      :      5.00871



--------------------
Rotational spectrum 
--------------------
 
Rotational constants in cm-1:     0.066381     0.021281     0.018448 
Rotational constants in MHz :  1990.044165   637.983486   553.064723 

 Dipole components along the rotational axes: 
x,y,z [a.u.] :     0.203606     1.951937     0.177477 
x,y,z [Debye]:     0.517526     4.961430     0.451110 

 

                           *** MP2 RELAXED DENSITY ***

------------------------------------------------------------------------------
                       ORCA ELECTRIC PROPERTIES CALCULATION
------------------------------------------------------------------------------

Dipole Moment Calculation                       ... on
Quadrupole Moment Calculation                   ... off
Polarizability Calculation                      ... off
GBWName                                         ... 12h2o.su.etal.mol0,1,2,8,9-orca.engrad-mp2.def2tzvp.frozencore.gbw
Electron density file                           ... 12h2o.su.etal.mol0,1,2,8,9-orca.engrad-mp2.def2tzvp.frozencore.pmp2re
The origin for moment calculation is the CENTER OF MASS  = ( 1.311532, -1.026382  1.062357)

-------------
DIPOLE MOMENT
-------------
                                X             Y             Z
Electronic contribution:      0.34130       0.19729      -0.10259
Nuclear contribution   :      0.78984       1.32960       0.63259
                        -----------------------------------------
Total Dipole Moment    :      1.13113       1.52689       0.53000
                        -----------------------------------------
Magnitude (a.u.)       :      1.97275
Magnitude (Debye)      :      5.01434



--------------------
Rotational spectrum 
--------------------
 
Rotational constants in cm-1:     0.066381     0.021281     0.018448 
Rotational constants in MHz :  1990.044165   637.983486   553.064723 

 Dipole components along the rotational axes: 
x,y,z [a.u.] :     0.190362     1.955879     0.173379 
x,y,z [Debye]:     0.483862     4.971450     0.440694 

 

Timings for individual modules:

Sum of individual times         ...       26.466 sec (=   0.441 min)
GTO integral calculation        ...        0.927 sec (=   0.015 min)   3.5 %
SCF iterations                  ...        6.451 sec (=   0.108 min)  24.4 %
MP2 module                      ...       19.088 sec (=   0.318 min)  72.1 %
                             ****ORCA TERMINATED NORMALLY****
TOTAL RUN TIME: 0 days 0 hours 0 minutes 27 seconds 404 msec
