
                                 *****************
                                 * O   R   C   A *
                                 *****************

           --- An Ab Initio, DFT and Semiempirical electronic structure package ---

                  #######################################################
                  #                        -***-                        #
                  #          Department of theory and spectroscopy      #
                  #               Directorship: Frank Neese             #
                  #        Max Planck Institute fuer Kohlenforschung    #
                  #                Kaiser Wilhelm Platz 1               #
                  #                 D-45470 Muelheim/Ruhr               #
                  #                      Germany                        #
                  #                                                     #
                  #                  All rights reserved                #
                  #                        -***-                        #
                  #######################################################


                         Program Version 4.2.0 -  RELEASE  -


 With contributions from (in alphabetic order):
   Daniel Aravena         : Magnetic Suceptibility
   Michael Atanasov       : Ab Initio Ligand Field Theory (pilot matlab implementation)
   Alexander A. Auer      : GIAO ZORA, VPT2
   Ute Becker             : Parallelization
   Giovanni Bistoni       : ED, misc. LED, open-shell LED, HFLED
   Martin Brehm           : Molecular dynamics
   Dmytro Bykov           : SCF Hessian
   Vijay G. Chilkuri      : MRCI spin determinant printing, contributions to CSF-ICE
   Dipayan Datta          : RHF DLPNO-CCSD density
   Achintya Kumar Dutta   : EOM-CC, STEOM-CC
   Dmitry Ganyushin       : Spin-Orbit,Spin-Spin,Magnetic field MRCI
   Miquel Garcia          : C-PCM Hessian, Gaussian charge scheme
   Yang Guo               : DLPNO-NEVPT2, CIM, IAO-localization
   Andreas Hansen         : Spin unrestricted coupled pair/coupled cluster methods
   Benjamin Helmich-Paris : CASSCF linear response (MC-RPA)
   Lee Huntington         : MR-EOM, pCC
   Robert Izsak           : Overlap fitted RIJCOSX, COSX-SCS-MP3, EOM
   Christian Kollmar      : KDIIS, OOCD, Brueckner-CCSD(T), CCSD density
   Simone Kossmann        : Meta GGA functionals, TD-DFT gradient, OOMP2, MP2 Hessian
   Martin Krupicka        : AUTO-CI
   Lucas Lang             : DCDCAS
   Dagmar Lenk            : GEPOL surface, SMD
   Dimitrios Liakos       : Extrapolation schemes; Compound Job, initial MDCI parallelization
   Dimitrios Manganas     : Further ROCIS development; embedding schemes
   Dimitrios Pantazis     : SARC Basis sets
   Taras Petrenko         : DFT Hessian,TD-DFT gradient, ASA, ECA, R-Raman, ABS, FL, XAS/XES, NRVS
   Peter Pinski           : DLPNO-MP2, DLPNO-MP2 Gradient
   Christoph Reimann      : Effective Core Potentials
   Marius Retegan         : Local ZFS, SOC
   Christoph Riplinger    : Optimizer, TS searches, QM/MM, DLPNO-CCSD(T), (RO)-DLPNO pert. Triples
   Tobias Risthaus        : Range-separated hybrids, TD-DFT gradient, RPA, STAB
   Michael Roemelt        : Original ROCIS implementation
   Masaaki Saitow         : Open-shell DLPNO-CCSD energy and density
   Barbara Sandhoefer     : DKH picture change effects
   Avijit Sen             : IP-ROCIS
   Kantharuban Sivalingam : CASSCF convergence, NEVPT2, FIC-MRCI
   Bernardo de Souza      : ESD, SOC TD-DFT
   Georgi Stoychev        : AutoAux, RI-MP2 NMR
   Willem Van den Heuvel  : Paramagnetic NMR
   Boris Wezisla          : Elementary symmetry handling
   Frank Wennmohs         : Technical directorship


 We gratefully acknowledge several colleagues who have allowed us to
 interface, adapt or use parts of their codes:
   Stefan Grimme, W. Hujo, H. Kruse,             : VdW corrections, initial TS optimization,
                  C. Bannwarth                     DFT functionals, gCP, sTDA/sTD-DF
   Ed Valeev, F. Pavosevic, A. Kumar             : LibInt (2-el integral package), F12 methods
   Garnet Chan, S. Sharma, J. Yang, R. Olivares  : DMRG
   Ulf Ekstrom                                   : XCFun DFT Library
   Mihaly Kallay                                 : mrcc  (arbitrary order and MRCC methods)
   Andreas Klamt, Michael Diedenhofen            : otool_cosmo (COSMO solvation model)
   Jiri Pittner, Ondrej Demel                    : Mk-CCSD
   Frank Weinhold                                : gennbo (NPA and NBO analysis)
   Christopher J. Cramer and Donald G. Truhlar   : smd solvation model
   Lars Goerigk                                  : TD-DFT with DH, B97 family of functionals
   V. Asgeirsson, H. Jonsson                     : NEB implementation
   FAccTs GmbH                                   : IRC, NEB, NEB-TS, Multilevel, MM, QM/MM, CI optimization
   S Lehtola, MJT Oliveira, MAL Marques          : LibXC Library


 Your calculation uses the libint2 library for the computation of 2-el integrals
 For citations please refer to: http://libint.valeyev.net

 Your ORCA version has been built with support for libXC version: 4.2.3
 For citations please refer to: https://tddft.org/programs/libxc/

 This ORCA versions uses:
   CBLAS   interface :  Fast vector & matrix operations
   LAPACKE interface :  Fast linear algebra routines
   SCALAPACK package :  Parallel linear algebra routines


----- Orbital basis set information -----
Your calculation utilizes the basis: def2-TZVP
   F. Weigend and R. Ahlrichs, Phys. Chem. Chem. Phys. 7, 3297 (2005).

================================================================================
                                        WARNINGS
                       Please study these warnings very carefully!
================================================================================


WARNING: The frozen-core approximation for MP2-gradient calculations is turned on by default.

INFO   : the flag for use of LIBINT has been found!

================================================================================
                                       INPUT FILE
================================================================================
NAME = 12h2o.su.etal.mol0,1,2,3,5,7,9,10,11-orca.engrad-mp2.def2tzvp.frozencore.inp
|  1> # 12h2o.su.etal.mol0,1,2,3,5,7,9,10,11
|  2> ! MP2 def2-TZVP EnGrad TightSCF
|  3> 
|  4> %pal
|  5>     nprocs 6
|  6> end
|  7> 
|  8> %maxcore 8000
|  9> 
| 10> %scf
| 11>     ConvForced true
| 12> end
| 13> 
| 14> *xyz 0 1
| 15> O   1.794470000   0.923410000   2.768350000
| 16> H   2.338250000   1.359750000   3.430940000
| 17> H   0.879480000   1.303000000   2.865760000
| 18> O  -1.794470000  -0.923410000   2.768350000
| 19> H  -2.338250000  -1.359750000   3.430940000
| 20> H  -0.879480000  -1.303000000   2.865760000
| 21> O   0.923410000  -1.794470000  -2.768350000
| 22> H   1.359750000  -2.338250000  -3.430940000
| 23> H   1.303000000  -0.879480000  -2.865760000
| 24> O  -1.752130000  -0.741530000  -2.896280000
| 25> H  -2.036450000  -0.920500000  -1.984040000
| 26> H  -0.921210000  -1.242140000  -2.984230000
| 27> O   0.885520000  -1.737840000   0.052730000
| 28> H   1.284090000  -0.839590000   0.017130000
| 29> H   1.032320000  -2.090180000  -0.841890000
| 30> O  -1.737840000  -0.885520000  -0.052730000
| 31> H  -2.090180000  -1.032320000   0.841890000
| 32> H  -0.839590000  -1.284090000  -0.017130000
| 33> O   0.741530000  -1.752130000   2.896280000
| 34> H   0.920500000  -2.036450000   1.984040000
| 35> H   1.242140000  -0.921210000   2.984230000
| 36> O  -0.923410000   1.794470000  -2.768350000
| 37> H  -1.359750000   2.338250000  -3.430940000
| 38> H  -1.303000000   0.879480000  -2.865760000
| 39> O  -0.741530000   1.752130000   2.896280000
| 40> H  -0.920500000   2.036450000   1.984040000
| 41> H  -1.242140000   0.921210000   2.984230000
| 42> *
| 43> 
| 44>                          ****END OF INPUT****
================================================================================

                     *******************************
                     * Energy+Gradient Calculation *
                     *******************************

---------------------------------
CARTESIAN COORDINATES (ANGSTROEM)
---------------------------------
  O      1.794470    0.923410    2.768350
  H      2.338250    1.359750    3.430940
  H      0.879480    1.303000    2.865760
  O     -1.794470   -0.923410    2.768350
  H     -2.338250   -1.359750    3.430940
  H     -0.879480   -1.303000    2.865760
  O      0.923410   -1.794470   -2.768350
  H      1.359750   -2.338250   -3.430940
  H      1.303000   -0.879480   -2.865760
  O     -1.752130   -0.741530   -2.896280
  H     -2.036450   -0.920500   -1.984040
  H     -0.921210   -1.242140   -2.984230
  O      0.885520   -1.737840    0.052730
  H      1.284090   -0.839590    0.017130
  H      1.032320   -2.090180   -0.841890
  O     -1.737840   -0.885520   -0.052730
  H     -2.090180   -1.032320    0.841890
  H     -0.839590   -1.284090   -0.017130
  O      0.741530   -1.752130    2.896280
  H      0.920500   -2.036450    1.984040
  H      1.242140   -0.921210    2.984230
  O     -0.923410    1.794470   -2.768350
  H     -1.359750    2.338250   -3.430940
  H     -1.303000    0.879480   -2.865760
  O     -0.741530    1.752130    2.896280
  H     -0.920500    2.036450    1.984040
  H     -1.242140    0.921210    2.984230

----------------------------
CARTESIAN COORDINATES (A.U.)
----------------------------
  NO LB      ZA    FRAG     MASS         X           Y           Z
   0 O     8.0000    0    15.999    3.391057    1.744992    5.231423
   1 H     1.0000    0     1.008    4.418652    2.569555    6.483537
   2 H     1.0000    0     1.008    1.661976    2.462313    5.415502
   3 O     8.0000    0    15.999   -3.391057   -1.744992    5.231423
   4 H     1.0000    0     1.008   -4.418652   -2.569555    6.483537
   5 H     1.0000    0     1.008   -1.661976   -2.462313    5.415502
   6 O     8.0000    0    15.999    1.744992   -3.391057   -5.231423
   7 H     1.0000    0     1.008    2.569555   -4.418652   -6.483537
   8 H     1.0000    0     1.008    2.462313   -1.661976   -5.415502
   9 O     8.0000    0    15.999   -3.311046   -1.401289   -5.473176
  10 H     1.0000    0     1.008   -3.848333   -1.739493   -3.749292
  11 H     1.0000    0     1.008   -1.740835   -2.347304   -5.639377
  12 O     8.0000    0    15.999    1.673390   -3.284042    0.099645
  13 H     1.0000    0     1.008    2.426578   -1.586595    0.032371
  14 H     1.0000    0     1.008    1.950802   -3.949868   -1.590942
  15 O     8.0000    0    15.999   -3.284042   -1.673390   -0.099645
  16 H     1.0000    0     1.008   -3.949868   -1.950802    1.590942
  17 H     1.0000    0     1.008   -1.586595   -2.426578   -0.032371
  18 O     8.0000    0    15.999    1.401289   -3.311046    5.473176
  19 H     1.0000    0     1.008    1.739493   -3.848333    3.749292
  20 H     1.0000    0     1.008    2.347304   -1.740835    5.639377
  21 O     8.0000    0    15.999   -1.744992    3.391057   -5.231423
  22 H     1.0000    0     1.008   -2.569555    4.418652   -6.483537
  23 H     1.0000    0     1.008   -2.462313    1.661976   -5.415502
  24 O     8.0000    0    15.999   -1.401289    3.311046    5.473176
  25 H     1.0000    0     1.008   -1.739493    3.848333    3.749292
  26 H     1.0000    0     1.008   -2.347304    1.740835    5.639377

--------------------------------
INTERNAL COORDINATES (ANGSTROEM)
--------------------------------
 O      0   0   0     0.000000000000     0.00000000     0.00000000
 H      1   0   0     0.961828878803     0.00000000     0.00000000
 H      1   2   0     0.995381322057   106.21731035     0.00000000
 O      3   1   2     3.480861789658   117.35405144   223.81249033
 H      4   3   1     0.961828878803   134.84484566    98.22461471
 H      4   3   1     0.995381322057    62.29205096    12.66575463
 O      6   4   3     5.935920367146   102.58474291   273.48279218
 H      7   6   4     0.961828878803   146.97742434   224.01286022
 H      7   6   4     0.995381322057    97.62005672    87.72090689
 O      7   6   4     2.878117964938    74.30903121   359.04191204
 H     10   7   6     0.972136791249    99.37069922   345.64431536
 H     10   7   6     0.974050112161    12.30570018   233.12878636
 O      7   6   4     2.821902722526    17.32744736   169.52589616
 H     13   7   6     0.983350632989    88.66470709   258.45499027
 H     13   7   6     0.972645187106    21.75017499   124.29821266
 O     11  10   7     1.954571525578   151.55104644    46.66533865
 H     16  11  10     0.972645187106   148.29772527   173.62852352
 H     16  11  10     0.983350632989    99.67573411   310.71905253
 O      6   4   3     1.682356278379   171.61043709   328.33166207
 H     19   6   4     0.972136791249   103.79460456   289.35412162
 H     19   6   4     0.974050112161   105.61118924    38.30604821
 O     10   7   6     2.671037050155    93.25587544    89.13707796
 H     22  10   7     0.961828878803   111.28648995   133.34764634
 H     22  10   7     0.995381322057     5.27275451   149.57993166
 O      3   1   2     1.682356278379   171.61043709   195.73896161
 H     25   3   1     0.972136791249   103.79460456   289.35412162
 H     25   3   1     0.974050112161   105.61118924    38.30604821

---------------------------
INTERNAL COORDINATES (A.U.)
---------------------------
 O      0   0   0     0.000000000000     0.00000000     0.00000000
 H      1   0   0     1.817593168635     0.00000000     0.00000000
 H      1   2   0     1.880998097508   106.21731035     0.00000000
 O      3   1   2     6.577875492484   117.35405144   223.81249033
 H      4   3   1     1.817593168635   134.84484566    98.22461471
 H      4   3   1     1.880998097508    62.29205096    12.66575463
 O      6   4   3    11.217263846671   102.58474291   273.48279218
 H      7   6   4     1.817593168635   146.97742434   224.01286022
 H      7   6   4     1.880998097508    97.62005672    87.72090689
 O      7   6   4     5.438854734852    74.30903121   359.04191204
 H     10   7   6     1.837072300170    99.37069922   345.64431536
 H     10   7   6     1.840687952699    12.30570018   233.12878636
 O      7   6   4     5.332623322141    17.32744736   169.52589616
 H     13   7   6     1.858263389967    88.66470709   258.45499027
 H     13   7   6     1.838033029106    21.75017499   124.29821266
 O     11  10   7     3.693604892503   151.55104644    46.66533865
 H     16  11  10     1.838033029106   148.29772527   173.62852352
 H     16  11  10     1.858263389967    99.67573411   310.71905253
 O      6   4   3     3.179192625819   171.61043709   328.33166207
 H     19   6   4     1.837072300170   103.79460456   289.35412162
 H     19   6   4     1.840687952699   105.61118924    38.30604821
 O     10   7   6     5.047528518350    93.25587544    89.13707796
 H     22  10   7     1.817593168635   111.28648995   133.34764634
 H     22  10   7     1.880998097508     5.27275451   149.57993166
 O      3   1   2     3.179192625819   171.61043709   195.73896161
 H     25   3   1     1.837072300170   103.79460456   289.35412162
 H     25   3   1     1.840687952699   105.61118924    38.30604821

---------------------
BASIS SET INFORMATION
---------------------
There are 2 groups of distinct atoms

 Group   1 Type O   : 11s6p2d1f contracted to 5s3p2d1f pattern {62111/411/11/1}
 Group   2 Type H   : 5s1p contracted to 3s1p pattern {311/1}

Atom   0O    basis set group =>   1
Atom   1H    basis set group =>   2
Atom   2H    basis set group =>   2
Atom   3O    basis set group =>   1
Atom   4H    basis set group =>   2
Atom   5H    basis set group =>   2
Atom   6O    basis set group =>   1
Atom   7H    basis set group =>   2
Atom   8H    basis set group =>   2
Atom   9O    basis set group =>   1
Atom  10H    basis set group =>   2
Atom  11H    basis set group =>   2
Atom  12O    basis set group =>   1
Atom  13H    basis set group =>   2
Atom  14H    basis set group =>   2
Atom  15O    basis set group =>   1
Atom  16H    basis set group =>   2
Atom  17H    basis set group =>   2
Atom  18O    basis set group =>   1
Atom  19H    basis set group =>   2
Atom  20H    basis set group =>   2
Atom  21O    basis set group =>   1
Atom  22H    basis set group =>   2
Atom  23H    basis set group =>   2
Atom  24O    basis set group =>   1
Atom  25H    basis set group =>   2
Atom  26H    basis set group =>   2


           ************************************************************
           *        Program running with 6 parallel MPI-processes     *
           *              working on a common directory               *
           ************************************************************
------------------------------------------------------------------------------
                           ORCA GTO INTEGRAL CALCULATION
------------------------------------------------------------------------------

                         BASIS SET STATISTICS AND STARTUP INFO

 # of primitive gaussian shells          ...  288
 # of primitive gaussian functions       ...  558
 # of contracted shells                  ...  171
 # of contracted basis functions         ...  387
 Highest angular momentum                ...    3
 Maximum contraction depth               ...    6
 Integral package used                   ... LIBINT
 Integral threshhold            Thresh   ...  2.500e-11
 Primitive cut-off              TCut     ...  2.500e-12


------------------------------ INTEGRAL EVALUATION ----------------------------


 * One electron integrals 
 Pre-screening matrix                    ... done
 Shell pair data                         ... done (   0.003 sec)



           ************************************************************
           *        Program running with 6 parallel MPI-processes     *
           *              working on a common directory               *
           ************************************************************
-------------------------------------------------------------------------------
                                 ORCA SCF
-------------------------------------------------------------------------------

------------
SCF SETTINGS
------------
Hamiltonian:
 Ab initio Hamiltonian  Method          .... Hartree-Fock(GTOs)


General Settings:
 Integral files         IntName         .... 12h2o.su.etal.mol0,1,2,3,5,7,9,10,11-orca.engrad-mp2.def2tzvp.frozencore
 Hartree-Fock type      HFTyp           .... RHF
 Total Charge           Charge          ....    0
 Multiplicity           Mult            ....    1
 Number of Electrons    NEL             ....   90
 Basis Dimension        Dim             ....  387
 Nuclear Repulsion      ENuc            ....    559.9831251468 Eh

Convergence Acceleration:
 DIIS                   CNVDIIS         .... on
   Start iteration      DIISMaxIt       ....    12
   Startup error        DIISStart       ....  0.200000
   # of expansion vecs  DIISMaxEq       ....     5
   Bias factor          DIISBfac        ....   1.050
   Max. coefficient     DIISMaxC        ....  10.000
 Newton-Raphson         CNVNR           .... off
 SOSCF                  CNVSOSCF        .... on
   Start iteration      SOSCFMaxIt      ....   150
   Startup grad/error   SOSCFStart      ....  0.003300
 Level Shifting         CNVShift        .... on
   Level shift para.    LevelShift      ....    0.2500
   Turn off err/grad.   ShiftErr        ....    0.0010
 Zerner damping         CNVZerner       .... off
 Static damping         CNVDamp         .... on
   Fraction old density DampFac         ....    0.7000
   Max. Damping (<1)    DampMax         ....    0.9800
   Min. Damping (>=0)   DampMin         ....    0.0000
   Turn off err/grad.   DampErr         ....    0.1000
 Fernandez-Rico         CNVRico         .... off

SCF Procedure:
 Maximum # iterations   MaxIter         ....   125
 SCF integral mode      SCFMode         .... Direct
   Integral package                     .... LIBINT
 Reset frequency        DirectResetFreq ....    20
 Integral Threshold     Thresh          ....  2.500e-11 Eh
 Primitive CutOff       TCut            ....  2.500e-12 Eh

Convergence Tolerance:
 Convergence Check Mode ConvCheckMode   .... Total+1el-Energy
 Convergence forced     ConvForced      .... 1
 Energy Change          TolE            ....  1.000e-08 Eh
 1-El. energy change                    ....  1.000e-05 Eh
 Orbital Gradient       TolG            ....  1.000e-05
 Orbital Rotation angle TolX            ....  1.000e-05
 DIIS Error             TolErr          ....  5.000e-07


Diagonalization of the overlap matrix:
Smallest eigenvalue                        ... 3.630e-03
Time for diagonalization                   ...    0.021 sec
Threshold for overlap eigenvalues          ... 1.000e-08
Number of eigenvalues below threshold      ... 0
Time for construction of square roots      ...    0.011 sec
Total time needed                          ...    0.033 sec

-------------------
DFT GRID GENERATION
-------------------

General Integration Accuracy     IntAcc      ...  4.340
Radial Grid Type                 RadialGrid  ... Gauss-Chebyshev
Angular Grid (max. acc.)         AngularGrid ... Lebedev-110
Angular grid pruning method      GridPruning ... 3 (G Style)
Weight generation scheme         WeightScheme... Becke
Basis function cutoff            BFCut       ...    1.0000e-11
Integration weight cutoff        WCut        ...    1.0000e-14
Grids for H and He will be reduced by one unit

# of grid points (after initial pruning)     ...  29736 (   0.0 sec)
# of grid points (after weights+screening)   ...  27612 (   0.0 sec)
nearest neighbour list constructed           ...    0.0 sec
Grid point re-assignment to atoms done       ...    0.0 sec
Grid point division into batches done        ...    0.0 sec
Reduced shell lists constructed in    0.1 sec

Total number of grid points                  ...    27612
Total number of batches                      ...      446
Average number of points per batch           ...       61
Average number of grid points per atom       ...     1023
Average number of shells per batch           ...    72.83 (42.59%)
Average number of basis functions per batch  ...   143.99 (37.21%)
Average number of large shells per batch     ...    46.91 (64.41%)
Average number of large basis fcns per batch ...    91.22 (63.36%)
Maximum spatial batch extension              ...  13.73, 15.72, 14.52 au
Average spatial batch extension              ...   0.59,  0.67,  0.59 au

Time for grid setup =    0.118 sec

------------------------------
INITIAL GUESS: MODEL POTENTIAL
------------------------------
Loading Hartree-Fock densities                     ... done
Calculating cut-offs                               ... done
Setting up the integral package                    ... done
Initializing the effective Hamiltonian             ... done
Starting the Coulomb interaction                   ... done (   0.1 sec)
Reading the grid                                   ... done
Mapping shells                                     ... done
Starting the XC term evaluation                    ... done (   0.0 sec)
Transforming the Hamiltonian                       ... done (   0.0 sec)
Diagonalizing the Hamiltonian                      ... done (   0.0 sec)
Back transforming the eigenvectors                 ... done (   0.0 sec)
Now organizing SCF variables                       ... done
                      ------------------
                      INITIAL GUESS DONE (   0.4 sec)
                      ------------------
--------------
SCF ITERATIONS
--------------
ITER       Energy         Delta-E        Max-DP      RMS-DP      [F,P]     Damp
               ***  Starting incremental Fock matrix formation  ***
  0   -683.8301629618   0.000000000000 0.04407987  0.00077629  0.3496399 0.7000
  1   -684.1248275012  -0.294664539420 0.02935266  0.00053897  0.2167636 0.7000
                               ***Turning on DIIS***
  2   -684.2820383739  -0.157210872717 0.01643920  0.00030389  0.1634360 0.7000
  3   -685.7673714962  -1.485333122290 0.00752289  0.00014184  0.1218268 0.7000
  4   -685.4693645956   0.298006900611 0.01698889  0.00032894  0.0861660 0.0000
  5   -684.6413791998   0.827985395804 0.00224342  0.00005197  0.0052231 0.0000
                      *** Initiating the SOSCF procedure ***
                           *** Shutting down DIIS ***
                      *** Re-Reading the Fockian *** 
                      *** Removing any level shift *** 
ITER      Energy       Delta-E        Grad      Rot      Max-DP    RMS-DP
  6   -684.59960730   0.0417718997  0.000803  0.000803  0.001371  0.000032
               *** Restarting incremental Fock matrix formation ***
  7   -684.58685328   0.0127540200  0.000285  0.000398  0.000647  0.000014
  8   -684.58686592  -0.0000126428  0.000155  0.000338  0.000494  0.000012
  9   -684.58686900  -0.0000030750  0.000116  0.000047  0.000104  0.000002
 10   -684.58686925  -0.0000002494  0.000022  0.000009  0.000022  0.000000
                  ***Gradient check signals convergence***
              ***Rediagonalizing the Fockian in SOSCF/NRSCF***

               *****************************************************
               *                     SUCCESS                       *
               *           SCF CONVERGED AFTER  11 CYCLES          *
               *****************************************************


----------------
TOTAL SCF ENERGY
----------------

Total Energy       :         -684.58686925 Eh          -18628.55577 eV

Components:
Nuclear Repulsion  :          559.98312515 Eh           15237.91552 eV
Electronic Energy  :        -1244.56999440 Eh          -33866.47129 eV
One Electron Energy:        -2062.36571685 Eh          -56119.82423 eV
Two Electron Energy:          817.79572245 Eh           22253.35295 eV

Virial components:
Potential Energy   :        -1368.34047745 Eh          -37234.43735 eV
Kinetic Energy     :          683.75360820 Eh           18605.88158 eV
Virial Ratio       :            2.00121866


---------------
SCF CONVERGENCE
---------------

  Last Energy change         ...   -7.4867e-09  Tolerance :   1.0000e-08
  Last MAX-Density change    ...    5.8138e-06  Tolerance :   1.0000e-07
  Last RMS-Density change    ...    1.1193e-07  Tolerance :   5.0000e-09
  Last Orbital Gradient      ...    2.2242e-06  Tolerance :   1.0000e-05
  Last Orbital Rotation      ...    2.2059e-06  Tolerance :   1.0000e-05

             **** THE GBW FILE WAS UPDATED (12h2o.su.etal.mol0,1,2,3,5,7,9,10,11-orca.engrad-mp2.def2tzvp.frozencore.gbw) ****
             **** DENSITY FILE WAS UPDATED (12h2o.su.etal.mol0,1,2,3,5,7,9,10,11-orca.engrad-mp2.def2tzvp.frozencore.scfp) ****
             **** ENERGY FILE WAS UPDATED (12h2o.su.etal.mol0,1,2,3,5,7,9,10,11-orca.engrad-mp2.def2tzvp.frozencore.en.tmp) ****
             **** THE GBW FILE WAS UPDATED (12h2o.su.etal.mol0,1,2,3,5,7,9,10,11-orca.engrad-mp2.def2tzvp.frozencore.gbw) ****
             **** DENSITY FILE WAS UPDATED (12h2o.su.etal.mol0,1,2,3,5,7,9,10,11-orca.engrad-mp2.def2tzvp.frozencore.scfp) ****
----------------
ORBITAL ENERGIES
----------------

  NO   OCC          E(Eh)            E(eV) 
   0   2.0000     -20.627010      -561.2895 
   1   2.0000     -20.595800      -560.4402 
   2   2.0000     -20.565179      -559.6070 
   3   2.0000     -20.561714      -559.5127 
   4   2.0000     -20.553286      -559.2833 
   5   2.0000     -20.548677      -559.1579 
   6   2.0000     -20.538164      -558.8719 
   7   2.0000     -20.524605      -558.5029 
   8   2.0000     -20.506095      -557.9992 
   9   2.0000      -1.407946       -38.3122 
  10   2.0000      -1.381721       -37.5985 
  11   2.0000      -1.362177       -37.0667 
  12   2.0000      -1.351464       -36.7752 
  13   2.0000      -1.339319       -36.4447 
  14   2.0000      -1.332267       -36.2528 
  15   2.0000      -1.326623       -36.0992 
  16   2.0000      -1.308923       -35.6176 
  17   2.0000      -1.287309       -35.0295 
  18   2.0000      -0.773006       -21.0346 
  19   2.0000      -0.746339       -20.3089 
  20   2.0000      -0.728422       -19.8214 
  21   2.0000      -0.718142       -19.5416 
  22   2.0000      -0.713803       -19.4236 
  23   2.0000      -0.705959       -19.2101 
  24   2.0000      -0.701940       -19.1007 
  25   2.0000      -0.690357       -18.7856 
  26   2.0000      -0.673458       -18.3257 
  27   2.0000      -0.652496       -17.7553 
  28   2.0000      -0.630437       -17.1551 
  29   2.0000      -0.611774       -16.6472 
  30   2.0000      -0.600292       -16.3348 
  31   2.0000      -0.588144       -16.0042 
  32   2.0000      -0.583815       -15.8864 
  33   2.0000      -0.567699       -15.4479 
  34   2.0000      -0.558557       -15.1991 
  35   2.0000      -0.548353       -14.9215 
  36   2.0000      -0.530289       -14.4299 
  37   2.0000      -0.523654       -14.2493 
  38   2.0000      -0.507418       -13.8075 
  39   2.0000      -0.505183       -13.7467 
  40   2.0000      -0.501053       -13.6343 
  41   2.0000      -0.497350       -13.5336 
  42   2.0000      -0.480110       -13.0644 
  43   2.0000      -0.474095       -12.9008 
  44   2.0000      -0.456933       -12.4338 
  45   0.0000       0.085704         2.3321 
  46   0.0000       0.121997         3.3197 
  47   0.0000       0.148868         4.0509 
  48   0.0000       0.156821         4.2673 
  49   0.0000       0.171777         4.6743 
  50   0.0000       0.178359         4.8534 
  51   0.0000       0.187924         5.1137 
  52   0.0000       0.219977         5.9859 
  53   0.0000       0.232549         6.3280 
  54   0.0000       0.250164         6.8073 
  55   0.0000       0.266775         7.2593 
  56   0.0000       0.285503         7.7689 
  57   0.0000       0.312407         8.5010 
  58   0.0000       0.323931         8.8146 
  59   0.0000       0.326426         8.8825 
  60   0.0000       0.342525         9.3206 
  61   0.0000       0.355774         9.6811 
  62   0.0000       0.357526         9.7288 
  63   0.0000       0.411343        11.1932 
  64   0.0000       0.442724        12.0471 
  65   0.0000       0.486488        13.2380 
  66   0.0000       0.490888        13.3577 
  67   0.0000       0.503035        13.6883 
  68   0.0000       0.507417        13.8075 
  69   0.0000       0.518797        14.1172 
  70   0.0000       0.531616        14.4660 
  71   0.0000       0.537691        14.6313 
  72   0.0000       0.542494        14.7620 
  73   0.0000       0.547211        14.8904 
  74   0.0000       0.563110        15.3230 
  75   0.0000       0.565263        15.3816 
  76   0.0000       0.574026        15.6200 
  77   0.0000       0.577437        15.7128 
  78   0.0000       0.604364        16.4456 
  79   0.0000       0.607328        16.5262 
  80   0.0000       0.612231        16.6597 
  81   0.0000       0.622891        16.9497 
  82   0.0000       0.637407        17.3447 
  83   0.0000       0.644323        17.5329 
  84   0.0000       0.649810        17.6822 
  85   0.0000       0.665978        18.1222 
  86   0.0000       0.688485        18.7346 
  87   0.0000       0.703568        19.1451 
  88   0.0000       0.708827        19.2882 
  89   0.0000       0.718828        19.5603 
  90   0.0000       0.725200        19.7337 
  91   0.0000       0.732487        19.9320 
  92   0.0000       0.751217        20.4416 
  93   0.0000       0.758468        20.6390 
  94   0.0000       0.765910        20.8415 
  95   0.0000       0.775562        21.1041 
  96   0.0000       0.786565        21.4035 
  97   0.0000       0.797926        21.7127 
  98   0.0000       0.810675        22.0596 
  99   0.0000       0.811734        22.0884 
 100   0.0000       0.821092        22.3431 
 101   0.0000       0.835526        22.7358 
 102   0.0000       0.862069        23.4581 
 103   0.0000       0.866091        23.5675 
 104   0.0000       0.877988        23.8913 
 105   0.0000       0.909137        24.7389 
 106   0.0000       0.915761        24.9191 
 107   0.0000       0.954782        25.9809 
 108   0.0000       0.972621        26.4664 
 109   0.0000       0.995596        27.0916 
 110   0.0000       1.005812        27.3695 
 111   0.0000       1.033103        28.1122 
 112   0.0000       1.050509        28.5858 
 113   0.0000       1.067013        29.0349 
 114   0.0000       1.094907        29.7939 
 115   0.0000       1.165247        31.7080 
 116   0.0000       1.169423        31.8216 
 117   0.0000       1.342891        36.5419 
 118   0.0000       1.360995        37.0346 
 119   0.0000       1.367267        37.2052 
 120   0.0000       1.382843        37.6291 
 121   0.0000       1.397082        38.0165 
 122   0.0000       1.408668        38.3318 
 123   0.0000       1.411343        38.4046 
 124   0.0000       1.428393        38.8685 
 125   0.0000       1.432546        38.9816 
 126   0.0000       1.443969        39.2924 
 127   0.0000       1.469958        39.9996 
 128   0.0000       1.474926        40.1348 
 129   0.0000       1.482594        40.3434 
 130   0.0000       1.507286        41.0153 
 131   0.0000       1.511778        41.1376 
 132   0.0000       1.515758        41.2459 
 133   0.0000       1.525119        41.5006 
 134   0.0000       1.560308        42.4581 
 135   0.0000       1.561996        42.5041 
 136   0.0000       1.581676        43.0396 
 137   0.0000       1.586418        43.1686 
 138   0.0000       1.593771        43.3687 
 139   0.0000       1.617990        44.0278 
 140   0.0000       1.626278        44.2533 
 141   0.0000       1.641215        44.6597 
 142   0.0000       1.649915        44.8965 
 143   0.0000       1.682940        45.7951 
 144   0.0000       1.780380        48.4466 
 145   0.0000       1.821739        49.5720 
 146   0.0000       1.831690        49.8428 
 147   0.0000       1.855591        50.4932 
 148   0.0000       1.877464        51.0884 
 149   0.0000       1.881513        51.1986 
 150   0.0000       1.890678        51.4480 
 151   0.0000       1.924631        52.3719 
 152   0.0000       1.933904        52.6242 
 153   0.0000       1.937913        52.7333 
 154   0.0000       1.952932        53.1420 
 155   0.0000       1.966650        53.5153 
 156   0.0000       1.994275        54.2670 
 157   0.0000       2.006001        54.5861 
 158   0.0000       2.013092        54.7790 
 159   0.0000       2.022683        55.0400 
 160   0.0000       2.038453        55.4691 
 161   0.0000       2.059697        56.0472 
 162   0.0000       2.069971        56.3268 
 163   0.0000       2.083687        56.7000 
 164   0.0000       2.093822        56.9758 
 165   0.0000       2.137991        58.1777 
 166   0.0000       2.148811        58.4721 
 167   0.0000       2.150641        58.5219 
 168   0.0000       2.176490        59.2253 
 169   0.0000       2.192712        59.6667 
 170   0.0000       2.213417        60.2302 
 171   0.0000       2.238482        60.9122 
 172   0.0000       2.243776        61.0563 
 173   0.0000       2.263362        61.5892 
 174   0.0000       2.293118        62.3989 
 175   0.0000       2.298206        62.5374 
 176   0.0000       2.308269        62.8112 
 177   0.0000       2.321638        63.1750 
 178   0.0000       2.335734        63.5585 
 179   0.0000       2.351271        63.9813 
 180   0.0000       2.360179        64.2237 
 181   0.0000       2.372926        64.5706 
 182   0.0000       2.376483        64.6674 
 183   0.0000       2.395254        65.1782 
 184   0.0000       2.404381        65.4265 
 185   0.0000       2.410634        65.5967 
 186   0.0000       2.414848        65.7114 
 187   0.0000       2.435154        66.2639 
 188   0.0000       2.464424        67.0604 
 189   0.0000       2.470123        67.2155 
 190   0.0000       2.498500        67.9876 
 191   0.0000       2.524605        68.6980 
 192   0.0000       2.526383        68.7464 
 193   0.0000       2.542974        69.1979 
 194   0.0000       2.558074        69.6087 
 195   0.0000       2.578439        70.1629 
 196   0.0000       2.590826        70.4999 
 197   0.0000       2.603775        70.8523 
 198   0.0000       2.605395        70.8964 
 199   0.0000       2.627459        71.4968 
 200   0.0000       2.632341        71.6296 
 201   0.0000       2.635675        71.7204 
 202   0.0000       2.641339        71.8745 
 203   0.0000       2.659939        72.3806 
 204   0.0000       2.667626        72.5898 
 205   0.0000       2.674543        72.7780 
 206   0.0000       2.683316        73.0167 
 207   0.0000       2.690857        73.2219 
 208   0.0000       2.711120        73.7733 
 209   0.0000       2.725939        74.1766 
 210   0.0000       2.736715        74.4698 
 211   0.0000       2.755424        74.9789 
 212   0.0000       2.788566        75.8807 
 213   0.0000       2.805568        76.3434 
 214   0.0000       2.811416        76.5025 
 215   0.0000       2.834799        77.1388 
 216   0.0000       2.874644        78.2230 
 217   0.0000       2.900160        78.9174 
 218   0.0000       2.923717        79.5584 
 219   0.0000       2.949694        80.2652 
 220   0.0000       2.960201        80.5512 
 221   0.0000       2.967338        80.7454 
 222   0.0000       2.984584        81.2147 
 223   0.0000       2.998177        81.5846 
 224   0.0000       3.011820        81.9558 
 225   0.0000       3.016134        82.0732 
 226   0.0000       3.028285        82.4038 
 227   0.0000       3.033210        82.5378 
 228   0.0000       3.054774        83.1246 
 229   0.0000       3.070338        83.5481 
 230   0.0000       3.088507        84.0425 
 231   0.0000       3.118634        84.8624 
 232   0.0000       3.122341        84.9632 
 233   0.0000       3.124689        85.0271 
 234   0.0000       3.144559        85.5678 
 235   0.0000       3.152636        85.7876 
 236   0.0000       3.163259        86.0766 
 237   0.0000       3.193565        86.9013 
 238   0.0000       3.215007        87.4848 
 239   0.0000       3.242278        88.2269 
 240   0.0000       3.255979        88.5997 
 241   0.0000       3.300083        89.7998 
 242   0.0000       3.312672        90.1424 
 243   0.0000       3.314303        90.1868 
 244   0.0000       3.333187        90.7006 
 245   0.0000       3.344134        90.9985 
 246   0.0000       3.389615        92.2361 
 247   0.0000       3.416826        92.9766 
 248   0.0000       3.479746        94.6887 
 249   0.0000       3.513887        95.6177 
 250   0.0000       3.551726        96.6474 
 251   0.0000       3.553003        96.6821 
 252   0.0000       3.960836       107.7798 
 253   0.0000       4.038204       109.8851 
 254   0.0000       4.041755       109.9817 
 255   0.0000       4.081024       111.0503 
 256   0.0000       4.104795       111.6971 
 257   0.0000       4.118562       112.0718 
 258   0.0000       4.146088       112.8208 
 259   0.0000       4.161581       113.2424 
 260   0.0000       4.183941       113.8508 
 261   0.0000       4.257751       115.8593 
 262   0.0000       4.284687       116.5923 
 263   0.0000       4.316431       117.4561 
 264   0.0000       4.333391       117.9176 
 265   0.0000       4.343717       118.1986 
 266   0.0000       4.382043       119.2415 
 267   0.0000       4.390375       119.4682 
 268   0.0000       4.396774       119.6423 
 269   0.0000       4.438028       120.7649 
 270   0.0000       5.486679       149.3001 
 271   0.0000       5.510364       149.9446 
 272   0.0000       5.537811       150.6915 
 273   0.0000       5.543513       150.8467 
 274   0.0000       5.546355       150.9240 
 275   0.0000       5.553956       151.1308 
 276   0.0000       5.562822       151.3721 
 277   0.0000       5.579643       151.8298 
 278   0.0000       5.581509       151.8806 
 279   0.0000       5.598890       152.3535 
 280   0.0000       5.638400       153.4287 
 281   0.0000       5.643390       153.5645 
 282   0.0000       5.653126       153.8294 
 283   0.0000       5.687116       154.7543 
 284   0.0000       5.688102       154.7811 
 285   0.0000       5.691694       154.8789 
 286   0.0000       5.696308       155.0044 
 287   0.0000       5.714079       155.4880 
 288   0.0000       5.750220       156.4714 
 289   0.0000       5.785442       157.4299 
 290   0.0000       5.790382       157.5643 
 291   0.0000       5.810260       158.1052 
 292   0.0000       5.816759       158.2821 
 293   0.0000       5.823014       158.4523 
 294   0.0000       5.828808       158.6099 
 295   0.0000       5.839456       158.8997 
 296   0.0000       5.846406       159.0888 
 297   0.0000       5.854379       159.3057 
 298   0.0000       5.856054       159.3513 
 299   0.0000       5.859839       159.4543 
 300   0.0000       5.863612       159.5570 
 301   0.0000       5.866831       159.6446 
 302   0.0000       5.870486       159.7441 
 303   0.0000       5.878922       159.9736 
 304   0.0000       5.888761       160.2413 
 305   0.0000       5.891254       160.3092 
 306   0.0000       5.894438       160.3958 
 307   0.0000       5.899390       160.5306 
 308   0.0000       5.908115       160.7680 
 309   0.0000       5.914052       160.9295 
 310   0.0000       5.925834       161.2501 
 311   0.0000       5.935886       161.5237 
 312   0.0000       5.937846       161.5770 
 313   0.0000       5.940862       161.6591 
 314   0.0000       5.982694       162.7974 
 315   0.0000       6.369169       173.3139 
 316   0.0000       6.434584       175.0939 
 317   0.0000       6.476234       176.2273 
 318   0.0000       6.482264       176.3914 
 319   0.0000       6.485454       176.4782 
 320   0.0000       6.490836       176.6246 
 321   0.0000       6.500359       176.8838 
 322   0.0000       6.514154       177.2591 
 323   0.0000       6.528539       177.6506 
 324   0.0000       6.644991       180.8194 
 325   0.0000       6.668766       181.4663 
 326   0.0000       6.677407       181.7015 
 327   0.0000       6.719885       182.8574 
 328   0.0000       6.728024       183.0788 
 329   0.0000       6.734524       183.2557 
 330   0.0000       6.752920       183.7563 
 331   0.0000       6.776464       184.3970 
 332   0.0000       6.791064       184.7942 
 333   0.0000       6.826891       185.7692 
 334   0.0000       6.839303       186.1069 
 335   0.0000       6.846097       186.2918 
 336   0.0000       6.850610       186.4146 
 337   0.0000       6.857534       186.6030 
 338   0.0000       6.861445       186.7094 
 339   0.0000       6.872114       186.9997 
 340   0.0000       6.901140       187.7896 
 341   0.0000       6.902595       187.8292 
 342   0.0000       6.912568       188.1005 
 343   0.0000       6.920332       188.3118 
 344   0.0000       6.924440       188.4236 
 345   0.0000       6.934174       188.6885 
 346   0.0000       6.935608       188.7275 
 347   0.0000       6.938837       188.8154 
 348   0.0000       6.950639       189.1365 
 349   0.0000       6.958636       189.3541 
 350   0.0000       6.975208       189.8051 
 351   0.0000       6.984790       190.0658 
 352   0.0000       6.990158       190.2119 
 353   0.0000       7.001016       190.5073 
 354   0.0000       7.012564       190.8216 
 355   0.0000       7.039992       191.5679 
 356   0.0000       7.047315       191.7672 
 357   0.0000       7.100278       193.2084 
 358   0.0000       7.118728       193.7104 
 359   0.0000       7.134911       194.1508 
 360   0.0000       7.330446       199.4716 
 361   0.0000       7.370081       200.5501 
 362   0.0000       7.390430       201.1038 
 363   0.0000       7.442065       202.5089 
 364   0.0000       7.452985       202.8060 
 365   0.0000       7.467351       203.1970 
 366   0.0000       7.478910       203.5115 
 367   0.0000       7.489599       203.8023 
 368   0.0000       7.501161       204.1170 
 369   0.0000       7.530208       204.9074 
 370   0.0000       7.544567       205.2981 
 371   0.0000       7.559533       205.7053 
 372   0.0000       7.568895       205.9601 
 373   0.0000       7.585172       206.4030 
 374   0.0000       7.592193       206.5941 
 375   0.0000       7.599657       206.7972 
 376   0.0000       7.603998       206.9153 
 377   0.0000       7.658364       208.3947 
 378   0.0000      44.884664      1221.3738 
 379   0.0000      44.982868      1224.0461 
 380   0.0000      44.985325      1224.1129 
 381   0.0000      44.999088      1224.4874 
 382   0.0000      45.004877      1224.6450 
 383   0.0000      45.022856      1225.1342 
 384   0.0000      45.050565      1225.8882 
 385   0.0000      45.083275      1226.7783 
 386   0.0000      45.149238      1228.5732 

                    ********************************
                    * MULLIKEN POPULATION ANALYSIS *
                    ********************************

-----------------------
MULLIKEN ATOMIC CHARGES
-----------------------
   0 O :   -0.781951
   1 H :    0.351324
   2 H :    0.409616
   3 O :   -0.795103
   4 H :    0.358200
   5 H :    0.415728
   6 O :   -0.753109
   7 H :    0.379494
   8 H :    0.390757
   9 O :   -0.756711
  10 H :    0.407555
  11 H :    0.370601
  12 O :   -0.764196
  13 H :    0.376429
  14 H :    0.405314
  15 O :   -0.781040
  16 H :    0.388530
  17 H :    0.370055
  18 O :   -0.767351
  19 H :    0.398857
  20 H :    0.393206
  21 O :   -0.770648
  22 H :    0.329558
  23 H :    0.399939
  24 O :   -0.748698
  25 H :    0.372633
  26 H :    0.401012
Sum of atomic charges:    0.0000000

--------------------------------
MULLIKEN REDUCED ORBITAL CHARGES
--------------------------------
  0 O s       :     3.805813  s :     3.805813
      pz      :     1.733157  p :     4.952183
      px      :     1.437016
      py      :     1.782011
      dz2     :     0.003961  d :     0.022538
      dxz     :     0.004818
      dyz     :     0.005118
      dx2y2   :     0.002262
      dxy     :     0.006378
      f0      :     0.000089  f :     0.001417
      f+1     :     0.000331
      f-1     :     0.000176
      f+2     :     0.000061
      f-2     :     0.000355
      f+3     :     0.000081
      f-3     :     0.000325
  1 H s       :     0.603030  s :     0.603030
      pz      :     0.017147  p :     0.045646
      px      :     0.013660
      py      :     0.014839
  2 H s       :     0.534028  s :     0.534028
      pz      :     0.010366  p :     0.056356
      px      :     0.032863
      py      :     0.013127
  3 O s       :     3.808036  s :     3.808036
      pz      :     1.724821  p :     4.963794
      px      :     1.446461
      py      :     1.792512
      dz2     :     0.003647  d :     0.021898
      dxz     :     0.004463
      dyz     :     0.005017
      dx2y2   :     0.002169
      dxy     :     0.006602
      f0      :     0.000081  f :     0.001375
      f+1     :     0.000315
      f-1     :     0.000168
      f+2     :     0.000060
      f-2     :     0.000345
      f+3     :     0.000081
      f-3     :     0.000326
  4 H s       :     0.596473  s :     0.596473
      pz      :     0.016918  p :     0.045327
      px      :     0.013734
      py      :     0.014675
  5 H s       :     0.528444  s :     0.528444
      pz      :     0.009772  p :     0.055828
      px      :     0.033067
      py      :     0.012989
  6 O s       :     3.807761  s :     3.807761
      pz      :     1.732458  p :     4.920151
      px      :     1.798556
      py      :     1.389136
      dz2     :     0.003895  d :     0.023728
      dxz     :     0.005395
      dyz     :     0.004381
      dx2y2   :     0.002519
      dxy     :     0.007538
      f0      :     0.000084  f :     0.001469
      f+1     :     0.000177
      f-1     :     0.000333
      f+2     :     0.000063
      f-2     :     0.000347
      f+3     :     0.000373
      f-3     :     0.000093
  7 H s       :     0.575675  s :     0.575675
      pz      :     0.016987  p :     0.044831
      px      :     0.014577
      py      :     0.013266
  8 H s       :     0.568897  s :     0.568897
      pz      :     0.010294  p :     0.040346
      px      :     0.011894
      py      :     0.018159
  9 O s       :     3.792454  s :     3.792454
      pz      :     1.582113  p :     4.938841
      px      :     1.572308
      py      :     1.784419
      dz2     :     0.011497  d :     0.024062
      dxz     :     0.001145
      dyz     :     0.002282
      dx2y2   :     0.002389
      dxy     :     0.006749
      f0      :     0.000225  f :     0.001354
      f+1     :     0.000377
      f-1     :     0.000150
      f+2     :     0.000051
      f-2     :     0.000055
      f+3     :     0.000050
      f-3     :     0.000446
 10 H s       :     0.544649  s :     0.544649
      pz      :     0.025223  p :     0.047796
      px      :     0.010891
      py      :     0.011682
 11 H s       :     0.579657  s :     0.579657
      pz      :     0.010283  p :     0.049742
      px      :     0.023409
      py      :     0.016050
 12 O s       :     3.802125  s :     3.802125
      pz      :     1.609085  p :     4.937096
      px      :     1.853567
      py      :     1.474445
      dz2     :     0.010417  d :     0.023584
      dxz     :     0.002084
      dyz     :     0.002533
      dx2y2   :     0.003469
      dxy     :     0.005080
      f0      :     0.000169  f :     0.001391
      f+1     :     0.000113
      f-1     :     0.000439
      f+2     :     0.000069
      f-2     :     0.000036
      f+3     :     0.000455
      f-3     :     0.000110
 13 H s       :     0.581835  s :     0.581835
      pz      :     0.009202  p :     0.041735
      px      :     0.013870
      py      :     0.018663
 14 H s       :     0.546251  s :     0.546251
      pz      :     0.024952  p :     0.048435
      px      :     0.012548
      py      :     0.010935
 15 O s       :     3.805322  s :     3.805322
      pz      :     1.587149  p :     4.952043
      px      :     1.487189
      py      :     1.877705
      dz2     :     0.009614  d :     0.022268
      dxz     :     0.002411
      dyz     :     0.002277
      dx2y2   :     0.002851
      dxy     :     0.005115
      f0      :     0.000185  f :     0.001407
      f+1     :     0.000421
      f-1     :     0.000118
      f+2     :     0.000078
      f-2     :     0.000036
      f+3     :     0.000118
      f-3     :     0.000451
 16 H s       :     0.561969  s :     0.561969
      pz      :     0.024587  p :     0.049501
      px      :     0.011591
      py      :     0.013323
 17 H s       :     0.576257  s :     0.576257
      pz      :     0.009452  p :     0.053688
      px      :     0.028175
      py      :     0.016061
 18 O s       :     3.792214  s :     3.792214
      pz      :     1.567897  p :     4.949932
      px      :     1.785644
      py      :     1.596390
      dz2     :     0.011737  d :     0.023868
      dxz     :     0.002193
      dyz     :     0.001222
      dx2y2   :     0.002250
      dxy     :     0.006466
      f0      :     0.000230  f :     0.001337
      f+1     :     0.000147
      f-1     :     0.000377
      f+2     :     0.000050
      f-2     :     0.000054
      f+3     :     0.000434
      f-3     :     0.000044
 19 H s       :     0.553424  s :     0.553424
      pz      :     0.024473  p :     0.047719
      px      :     0.012120
      py      :     0.011126
 20 H s       :     0.557176  s :     0.557176
      pz      :     0.009632  p :     0.049618
      px      :     0.015494
      py      :     0.024492
 21 O s       :     3.807890  s :     3.807890
      pz      :     1.718740  p :     4.937690
      px      :     1.802075
      py      :     1.416874
      dz2     :     0.004091  d :     0.023608
      dxz     :     0.005515
      dyz     :     0.004811
      dx2y2   :     0.002280
      dxy     :     0.006910
      f0      :     0.000088  f :     0.001461
      f+1     :     0.000184
      f-1     :     0.000327
      f+2     :     0.000069
      f-2     :     0.000359
      f+3     :     0.000347
      f-3     :     0.000087
 22 H s       :     0.624384  s :     0.624384
      pz      :     0.017147  p :     0.046058
      px      :     0.015113
      py      :     0.013799
 23 H s       :     0.543099  s :     0.543099
      pz      :     0.010595  p :     0.056962
      px      :     0.013853
      py      :     0.032514
 24 O s       :     3.795822  s :     3.795822
      pz      :     1.531821  p :     4.926896
      px      :     1.790837
      py      :     1.604239
      dz2     :     0.012262  d :     0.024594
      dxz     :     0.002268
      dyz     :     0.001234
      dx2y2   :     0.002281
      dxy     :     0.006549
      f0      :     0.000250  f :     0.001386
      f+1     :     0.000155
      f-1     :     0.000388
      f+2     :     0.000052
      f-2     :     0.000056
      f+3     :     0.000440
      f-3     :     0.000046
 25 H s       :     0.583944  s :     0.583944
      pz      :     0.019402  p :     0.043423
      px      :     0.012517
      py      :     0.011504
 26 H s       :     0.549773  s :     0.549773
      pz      :     0.009372  p :     0.049215
      px      :     0.015384
      py      :     0.024459


                     *******************************
                     * LOEWDIN POPULATION ANALYSIS *
                     *******************************

----------------------
LOEWDIN ATOMIC CHARGES
----------------------
   0 O :   -0.351284
   1 H :    0.155693
   2 H :    0.155836
   3 O :   -0.327215
   4 H :    0.157710
   5 H :    0.157316
   6 O :   -0.298376
   7 H :    0.170373
   8 H :    0.196904
   9 O :   -0.301100
  10 H :    0.164277
  11 H :    0.149689
  12 O :   -0.296966
  13 H :    0.182060
  14 H :    0.162262
  15 O :   -0.354418
  16 H :    0.154357
  17 H :    0.146017
  18 O :   -0.300535
  19 H :    0.159740
  20 H :    0.157959
  21 O :   -0.380351
  22 H :    0.145758
  23 H :    0.152153
  24 O :   -0.294556
  25 H :    0.175150
  26 H :    0.161548

-------------------------------
LOEWDIN REDUCED ORBITAL CHARGES
-------------------------------
  0 O s       :     3.460019  s :     3.460019
      pz      :     1.710601  p :     4.860867
      px      :     1.404595
      py      :     1.745670
      dz2     :     0.004257  d :     0.028444
      dxz     :     0.006983
      dyz     :     0.005245
      dx2y2   :     0.003686
      dxy     :     0.008274
      f0      :     0.000073  f :     0.001954
      f+1     :     0.000435
      f-1     :     0.000260
      f+2     :     0.000031
      f-2     :     0.000618
      f+3     :     0.000083
      f-3     :     0.000453
  1 H s       :     0.679427  s :     0.679427
      pz      :     0.065830  p :     0.164879
      px      :     0.046115
      py      :     0.052934
  2 H s       :     0.646486  s :     0.646486
      pz      :     0.033243  p :     0.197677
      px      :     0.116836
      py      :     0.047598
  3 O s       :     3.454898  s :     3.454898
      pz      :     1.683215  p :     4.841976
      px      :     1.409125
      py      :     1.749636
      dz2     :     0.004681  d :     0.028400
      dxz     :     0.006736
      dyz     :     0.005170
      dx2y2   :     0.003553
      dxy     :     0.008260
      f0      :     0.000086  f :     0.001941
      f+1     :     0.000426
      f-1     :     0.000256
      f+2     :     0.000032
      f-2     :     0.000608
      f+3     :     0.000083
      f-3     :     0.000450
  4 H s       :     0.676776  s :     0.676776
      pz      :     0.066171  p :     0.165515
      px      :     0.046311
      py      :     0.053032
  5 H s       :     0.642975  s :     0.642975
      pz      :     0.033160  p :     0.199708
      px      :     0.118904
      py      :     0.047645
  6 O s       :     3.461075  s :     3.461075
      pz      :     1.686929  p :     4.804365
      px      :     1.749046
      py      :     1.368390
      dz2     :     0.005272  d :     0.030895
      dxz     :     0.005227
      dyz     :     0.006512
      dx2y2   :     0.004123
      dxy     :     0.009761
      f0      :     0.000087  f :     0.002042
      f+1     :     0.000269
      f-1     :     0.000442
      f+2     :     0.000033
      f-2     :     0.000593
      f+3     :     0.000530
      f-3     :     0.000089
  7 H s       :     0.665421  s :     0.665421
      pz      :     0.066680  p :     0.164206
      px      :     0.052805
      py      :     0.044721
  8 H s       :     0.653633  s :     0.653633
      pz      :     0.033121  p :     0.149462
      px      :     0.043474
      py      :     0.072867
  9 O s       :     3.447213  s :     3.447213
      pz      :     1.549050  p :     4.821723
      px      :     1.544221
      py      :     1.728452
      dz2     :     0.014528  d :     0.030136
      dxz     :     0.001673
      dyz     :     0.001728
      dx2y2   :     0.003543
      dxy     :     0.008665
      f0      :     0.000399  f :     0.002028
      f+1     :     0.000542
      f-1     :     0.000324
      f+2     :     0.000020
      f-2     :     0.000047
      f+3     :     0.000026
      f-3     :     0.000670
 10 H s       :     0.662079  s :     0.662079
      pz      :     0.095832  p :     0.173644
      px      :     0.036562
      py      :     0.041250
 11 H s       :     0.676987  s :     0.676987
      pz      :     0.031659  p :     0.173324
      px      :     0.083832
      py      :     0.057833
 12 O s       :     3.456218  s :     3.456218
      pz      :     1.561376  p :     4.808002
      px      :     1.789345
      py      :     1.457281
      dz2     :     0.014194  d :     0.030740
      dxz     :     0.001265
      dyz     :     0.003615
      dx2y2   :     0.005186
      dxy     :     0.006479
      f0      :     0.000338  f :     0.002006
      f+1     :     0.000201
      f-1     :     0.000699
      f+2     :     0.000037
      f-2     :     0.000042
      f+3     :     0.000617
      f-3     :     0.000073
 13 H s       :     0.662823  s :     0.662823
      pz      :     0.030350  p :     0.155117
      px      :     0.049230
      py      :     0.075537
 14 H s       :     0.664914  s :     0.664914
      pz      :     0.094422  p :     0.172824
      px      :     0.042576
      py      :     0.035826
 15 O s       :     3.455878  s :     3.455878
      pz      :     1.553053  p :     4.868244
      px      :     1.476934
      py      :     1.838258
      dz2     :     0.013181  d :     0.028358
      dxz     :     0.003645
      dyz     :     0.001500
      dx2y2   :     0.003817
      dxy     :     0.006215
      f0      :     0.000358  f :     0.001938
      f+1     :     0.000684
      f-1     :     0.000181
      f+2     :     0.000042
      f-2     :     0.000041
      f+3     :     0.000067
      f-3     :     0.000565
 16 H s       :     0.672371  s :     0.672371
      pz      :     0.093379  p :     0.173272
      px      :     0.036908
      py      :     0.042985
 17 H s       :     0.669349  s :     0.669349
      pz      :     0.030737  p :     0.184634
      px      :     0.101285
      py      :     0.052612
 18 O s       :     3.445614  s :     3.445614
      pz      :     1.540048  p :     4.823478
      px      :     1.727087
      py      :     1.556342
      dz2     :     0.014810  d :     0.029455
      dxz     :     0.001674
      dyz     :     0.001857
      dx2y2   :     0.003289
      dxy     :     0.007826
      f0      :     0.000421  f :     0.001989
      f+1     :     0.000317
      f-1     :     0.000539
      f+2     :     0.000019
      f-2     :     0.000049
      f+3     :     0.000621
      f-3     :     0.000025
 19 H s       :     0.668308  s :     0.668308
      pz      :     0.093099  p :     0.171953
      px      :     0.041700
      py      :     0.037154
 20 H s       :     0.665301  s :     0.665301
      pz      :     0.030724  p :     0.176740
      px      :     0.057997
      py      :     0.088019
 21 O s       :     3.467860  s :     3.467860
      pz      :     1.704775  p :     4.881072
      px      :     1.780374
      py      :     1.395922
      dz2     :     0.004259  d :     0.029418
      dxz     :     0.005782
      dyz     :     0.007339
      dx2y2   :     0.003281
      dxy     :     0.008757
      f0      :     0.000074  f :     0.002001
      f+1     :     0.000265
      f-1     :     0.000438
      f+2     :     0.000034
      f-2     :     0.000636
      f+3     :     0.000470
      f-3     :     0.000084
 22 H s       :     0.689869  s :     0.689869
      pz      :     0.065547  p :     0.164372
      px      :     0.053193
      py      :     0.045632
 23 H s       :     0.651583  s :     0.651583
      pz      :     0.033398  p :     0.196264
      px      :     0.047675
      py      :     0.115191
 24 O s       :     3.451361  s :     3.451361
      pz      :     1.520691  p :     4.810330
      px      :     1.730997
      py      :     1.558641
      dz2     :     0.015837  d :     0.030796
      dxz     :     0.001799
      dyz     :     0.002014
      dx2y2   :     0.003297
      dxy     :     0.007849
      f0      :     0.000457  f :     0.002069
      f+1     :     0.000328
      f-1     :     0.000567
      f+2     :     0.000021
      f-2     :     0.000051
      f+3     :     0.000620
      f-3     :     0.000025
 25 H s       :     0.665372  s :     0.665372
      pz      :     0.081242  p :     0.159478
      px      :     0.041622
      py      :     0.036613
 26 H s       :     0.662768  s :     0.662768
      pz      :     0.029523  p :     0.175684
      px      :     0.058113
      py      :     0.088049


                      *****************************
                      * MAYER POPULATION ANALYSIS *
                      *****************************

  NA   - Mulliken gross atomic population
  ZA   - Total nuclear charge
  QA   - Mulliken gross atomic charge
  VA   - Mayer's total valence
  BVA  - Mayer's bonded valence
  FA   - Mayer's free valence

  ATOM       NA         ZA         QA         VA         BVA        FA
  0 O      8.7820     8.0000    -0.7820     1.6846     1.6846     0.0000
  1 H      0.6487     1.0000     0.3513     0.8933     0.8933    -0.0000
  2 H      0.5904     1.0000     0.4096     0.8710     0.8710     0.0000
  3 O      8.7951     8.0000    -0.7951     1.6695     1.6695     0.0000
  4 H      0.6418     1.0000     0.3582     0.8888     0.8888     0.0000
  5 H      0.5843     1.0000     0.4157     0.8671     0.8671    -0.0000
  6 O      8.7531     8.0000    -0.7531     1.7461     1.7461     0.0000
  7 H      0.6205     1.0000     0.3795     0.8719     0.8719    -0.0000
  8 H      0.6092     1.0000     0.3908     0.8632     0.8632    -0.0000
  9 O      8.7567     8.0000    -0.7567     1.7293     1.7293     0.0000
 10 H      0.5924     1.0000     0.4076     0.8641     0.8641     0.0000
 11 H      0.6294     1.0000     0.3706     0.8894     0.8894    -0.0000
 12 O      8.7642     8.0000    -0.7642     1.7258     1.7258     0.0000
 13 H      0.6236     1.0000     0.3764     0.8752     0.8752    -0.0000
 14 H      0.5947     1.0000     0.4053     0.8650     0.8650    -0.0000
 15 O      8.7810     8.0000    -0.7810     1.6877     1.6877     0.0000
 16 H      0.6115     1.0000     0.3885     0.8815     0.8815     0.0000
 17 H      0.6299     1.0000     0.3701     0.8967     0.8967     0.0000
 18 O      8.7674     8.0000    -0.7674     1.7204     1.7204     0.0000
 19 H      0.6011     1.0000     0.3989     0.8624     0.8624    -0.0000
 20 H      0.6068     1.0000     0.3932     0.8848     0.8848     0.0000
 21 O      8.7706     8.0000    -0.7706     1.6826     1.6826     0.0000
 22 H      0.6704     1.0000     0.3296     0.9071     0.9071     0.0000
 23 H      0.6001     1.0000     0.3999     0.8804     0.8804    -0.0000
 24 O      8.7487     8.0000    -0.7487     1.7393     1.7393     0.0000
 25 H      0.6274     1.0000     0.3726     0.8759     0.8759     0.0000
 26 H      0.5990     1.0000     0.4010     0.8749     0.8749     0.0000

  Mayer bond orders larger than 0.100000
B(  0-O ,  1-H ) :   0.8851 B(  0-O ,  2-H ) :   0.7822 B(  3-O ,  4-H ) :   0.8788 
B(  3-O ,  5-H ) :   0.7642 B(  6-O ,  7-H ) :   0.8634 B(  6-O ,  8-H ) :   0.8486 
B(  9-O , 10-H ) :   0.8243 B(  9-O , 11-H ) :   0.8616 B( 12-O , 13-H ) :   0.8613 
B( 12-O , 14-H ) :   0.8288 B( 15-O , 16-H ) :   0.8446 B( 15-O , 17-H ) :   0.8364 
B( 18-O , 19-H ) :   0.8417 B( 18-O , 20-H ) :   0.8239 B( 21-O , 22-H ) :   0.9012 
B( 21-O , 23-H ) :   0.8004 B( 24-O , 25-H ) :   0.8687 B( 24-O , 26-H ) :   0.8224 


-------
TIMINGS
-------

Total SCF time: 0 days 0 hours 0 min 35 sec 

Total time                  ....      35.880 sec
Sum of individual times     ....      35.525 sec  ( 99.0%)

Fock matrix formation       ....      34.739 sec  ( 96.8%)
Diagonalization             ....       0.207 sec  (  0.6%)
Density matrix formation    ....       0.018 sec  (  0.1%)
Population analysis         ....       0.041 sec  (  0.1%)
Initial guess               ....       0.235 sec  (  0.7%)
Orbital Transformation      ....       0.000 sec  (  0.0%)
Orbital Orthonormalization  ....       0.000 sec  (  0.0%)
DIIS solution               ....       0.077 sec  (  0.2%)
SOSCF solution              ....       0.089 sec  (  0.2%)


           ************************************************************
           *        Program running with 6 parallel MPI-processes     *
           *              working on a common directory               *
           ************************************************************

------------------------------------------------------------------------------
                                ORCA  MP2 
------------------------------------------------------------------------------

Freezing NCore=18 chemical core electrons
MP2 will be done in the AO integral direct mode
The Q1-step will be done using symmetric double matrices
Dimension of the basis                    ...  387
Memory devoted for MP2                    ... 8000 MB   
Memory needed for all in one shot         ... 1331 MB
Number of MOs that can be treated together...   35      
MP2 density construction                  ... relaxed
The MP2 gradient is requested => amplitudes will be stored on disk
Total number of MOs              ...   36
Number of MOs treated per batch  ...    6 
Number of batches necessary      ...    1 
OPERATORS   0/  0 PASS   0
-----------------------------------------------
 MP2 CORRELATION ENERGY   :     -2.334487671 Eh
-----------------------------------------------


---------------------
MP2 DENSITY FORMATION
---------------------

Completing the external part of the density      ... done
Storing the unrelaxed density                    ... done

Calculating G(D)                                 ... done
Completing the Lagrangian                        ... done
Solving the Z-vector equations                   ... 

------------------------------------------------------------------------------
                           ORCA CP-SCF CALCULATION
------------------------------------------------------------------------------

Input orbitals are from        ... 12h2o.su.etal.mol0,1,2,3,5,7,9,10,11-orca.engrad-mp2.def2tzvp.frozencore.gbw
Input Perturbation             ... 12h2o.su.etal.mol0,1,2,3,5,7,9,10,11-orca.engrad-mp2.def2tzvp.frozencore.pin.tmp
Wavefunction output            ... 12h2o.su.etal.mol0,1,2,3,5,7,9,10,11-orca.engrad-mp2.def2tzvp.frozencore.pout.tmp
Perturbation mode              ... Real perturbation (singlet)
Solver                         ... POPLE
Max. number of iterations      ... 128
Convergence tolerance          ... 1.000e-08
Integral handling              ... Direct
Number of perturbations        ... 1
Number of operators            ... 1
Orbital ranges used for CP-SCF:
 Operator 0:  Orbitals   0... 44  to  45...386
Variables per vector in CP-SCF ... 15390
Number of vectors sought       ... 1
     CP-SCF ITERATION   0: 
     CP-SCF ITERATION   1:      0.001138771076
     CP-SCF ITERATION   2:      0.000031742482
     CP-SCF ITERATION   3:      0.000001348646
     CP-SCF ITERATION   4:      0.000000150295
     CP-SCF ITERATION   5:      0.000000010685
     CP-SCF ITERATION   6:      0.000000000656
                                                 ... done
Finalizing the relaxed density                   ... done
Transforming P to the AO basis                   ... done
Storing the relaxed density                      ... done

------------------------------------
ENERGY WEIGHTED DENSITY FINALIZATION
------------------------------------

Gathering the parts of the W-matrix              ...                                                      done
Forming the Z-density                            ... done
Transforming Z to the AO basis                   ... done
Calculating G(Z)                                 ... done
Finalizing the W-matrix                          ...                                                      done
Transforming W to the AO basis and storing       ... done

                *********************************************
                * UNRELAXED MP2 DENSITY POPULATION ANALYSIS *
                *********************************************

------------------------------------------------------------------------------
                           ORCA POPULATION ANALYSIS
------------------------------------------------------------------------------
Input electron density              ... 12h2o.su.etal.mol0,1,2,3,5,7,9,10,11-orca.engrad-mp2.def2tzvp.frozencore.pmp2ur
BaseName (.gbw .S,...)              ... 12h2o.su.etal.mol0,1,2,3,5,7,9,10,11-orca.engrad-mp2.def2tzvp.frozencore

                    ********************************
                    * MULLIKEN POPULATION ANALYSIS *
                    ********************************

-----------------------
MULLIKEN ATOMIC CHARGES
-----------------------
   0 O :   -0.775593
   1 H :    0.349037
   2 H :    0.404847
   3 O :   -0.788334
   4 H :    0.355849
   5 H :    0.410626
   6 O :   -0.747258
   7 H :    0.377293
   8 H :    0.387829
   9 O :   -0.749654
  10 H :    0.404374
  11 H :    0.367392
  12 O :   -0.757632
  13 H :    0.373621
  14 H :    0.402390
  15 O :   -0.774530
  16 H :    0.385441
  17 H :    0.365654
  18 O :   -0.759937
  19 H :    0.395934
  20 H :    0.389534
  21 O :   -0.765114
  22 H :    0.327278
  23 H :    0.395242
  24 O :   -0.741895
  25 H :    0.370161
  26 H :    0.397446
Sum of atomic charges:    0.0000000

--------------------------------
MULLIKEN REDUCED ORBITAL CHARGES
--------------------------------
  0 O s       :     3.800831  s :     3.800831
      pz      :     1.722500  p :     4.920672
      px      :     1.428225
      py      :     1.769947
      dz2     :     0.009485  d :     0.050089
      dxz     :     0.010237
      dyz     :     0.010581
      dx2y2   :     0.007906
      dxy     :     0.011881
      f0      :     0.000459  f :     0.004001
      f+1     :     0.000697
      f-1     :     0.000541
      f+2     :     0.000432
      f-2     :     0.000721
      f+3     :     0.000457
      f-3     :     0.000694
  1 H s       :     0.603677  s :     0.603677
      pz      :     0.017632  p :     0.047285
      px      :     0.014111
      py      :     0.015543
  2 H s       :     0.537174  s :     0.537174
      pz      :     0.011177  p :     0.057979
      px      :     0.032976
      py      :     0.013826
  3 O s       :     3.803073  s :     3.803073
      pz      :     1.713684  p :     4.931410
      px      :     1.437394
      py      :     1.780332
      dz2     :     0.009342  d :     0.049878
      dxz     :     0.010002
      dyz     :     0.010561
      dx2y2   :     0.007852
      dxy     :     0.012120
      f0      :     0.000455  f :     0.003974
      f+1     :     0.000683
      f-1     :     0.000536
      f+2     :     0.000433
      f-2     :     0.000713
      f+3     :     0.000458
      f-3     :     0.000696
  4 H s       :     0.597216  s :     0.597216
      pz      :     0.017392  p :     0.046935
      px      :     0.014179
      py      :     0.015364
  5 H s       :     0.531947  s :     0.531947
      pz      :     0.010568  p :     0.057426
      px      :     0.033179
      py      :     0.013679
  6 O s       :     3.802920  s :     3.802920
      pz      :     1.721338  p :     4.889240
      px      :     1.786719
      py      :     1.381182
      dz2     :     0.009469  d :     0.051059
      dxz     :     0.010912
      dyz     :     0.009792
      dx2y2   :     0.008010
      dxy     :     0.012875
      f0      :     0.000457  f :     0.004039
      f+1     :     0.000545
      f-1     :     0.000695
      f+2     :     0.000432
      f-2     :     0.000712
      f+3     :     0.000733
      f-3     :     0.000465
  7 H s       :     0.576383  s :     0.576383
      pz      :     0.017430  p :     0.046325
      px      :     0.015257
      py      :     0.013638
  8 H s       :     0.570372  s :     0.570372
      pz      :     0.011097  p :     0.041799
      px      :     0.012630
      py      :     0.018072
  9 O s       :     3.787286  s :     3.787286
      pz      :     1.572262  p :     4.906666
      px      :     1.562611
      py      :     1.771793
      dz2     :     0.016793  d :     0.051736
      dxz     :     0.006671
      dyz     :     0.007941
      dx2y2   :     0.008123
      dxy     :     0.012208
      f0      :     0.000611  f :     0.003966
      f+1     :     0.000748
      f-1     :     0.000530
      f+2     :     0.000416
      f-2     :     0.000424
      f+3     :     0.000427
      f-3     :     0.000809
 10 H s       :     0.546400  s :     0.546400
      pz      :     0.025246  p :     0.049226
      px      :     0.011523
      py      :     0.012457
 11 H s       :     0.581246  s :     0.581246
      pz      :     0.011089  p :     0.051362
      px      :     0.023633
      py      :     0.016640
 12 O s       :     3.797088  s :     3.797088
      pz      :     1.598946  p :     4.905189
      px      :     1.840766
      py      :     1.465478
      dz2     :     0.015890  d :     0.051368
      dxz     :     0.007838
      dyz     :     0.007993
      dx2y2   :     0.009062
      dxy     :     0.010585
      f0      :     0.000559  f :     0.003988
      f+1     :     0.000493
      f-1     :     0.000808
      f+2     :     0.000436
      f-2     :     0.000404
      f+3     :     0.000810
      f-3     :     0.000478
 13 H s       :     0.583117  s :     0.583117
      pz      :     0.010002  p :     0.043261
      px      :     0.014586
      py      :     0.018673
 14 H s       :     0.547721  s :     0.547721
      pz      :     0.025059  p :     0.049889
      px      :     0.013352
      py      :     0.011478
 15 O s       :     3.800360  s :     3.800360
      pz      :     1.577005  p :     4.920178
      px      :     1.477672
      py      :     1.865502
      dz2     :     0.015110  d :     0.049994
      dxz     :     0.007939
      dyz     :     0.007968
      dx2y2   :     0.008418
      dxy     :     0.010560
      f0      :     0.000572  f :     0.003997
      f+1     :     0.000794
      f-1     :     0.000493
      f+2     :     0.000443
      f-2     :     0.000404
      f+3     :     0.000485
      f-3     :     0.000807
 16 H s       :     0.563540  s :     0.563540
      pz      :     0.024682  p :     0.051019
      px      :     0.012179
      py      :     0.014158
 17 H s       :     0.578931  s :     0.578931
      pz      :     0.010288  p :     0.055415
      px      :     0.028325
      py      :     0.016801
 18 O s       :     3.787009  s :     3.787009
      pz      :     1.558177  p :     4.917350
      px      :     1.772763
      py      :     1.586411
      dz2     :     0.017026  d :     0.051627
      dxz     :     0.007866
      dyz     :     0.006752
      dx2y2   :     0.008003
      dxy     :     0.011980
      f0      :     0.000616  f :     0.003951
      f+1     :     0.000527
      f-1     :     0.000749
      f+2     :     0.000415
      f-2     :     0.000423
      f+3     :     0.000798
      f-3     :     0.000422
 19 H s       :     0.554838  s :     0.554838
      pz      :     0.024534  p :     0.049228
      px      :     0.012915
      py      :     0.011779
 20 H s       :     0.559366  s :     0.559366
      pz      :     0.010393  p :     0.051100
      px      :     0.016035
      py      :     0.024672
 21 O s       :     3.802935  s :     3.802935
      pz      :     1.708336  p :     4.907475
      px      :     1.790778
      py      :     1.408361
      dz2     :     0.009568  d :     0.050676
      dxz     :     0.010848
      dyz     :     0.010184
      dx2y2   :     0.007792
      dxy     :     0.012284
      f0      :     0.000456  f :     0.004029
      f+1     :     0.000546
      f-1     :     0.000692
      f+2     :     0.000437
      f-2     :     0.000724
      f+3     :     0.000713
      f-3     :     0.000461
 22 H s       :     0.624919  s :     0.624919
      pz      :     0.017668  p :     0.047803
      px      :     0.015859
      py      :     0.014277
 23 H s       :     0.546138  s :     0.546138
      pz      :     0.011425  p :     0.058620
      px      :     0.014575
      py      :     0.032620
 24 O s       :     3.790635  s :     3.790635
      pz      :     1.522575  p :     4.895244
      px      :     1.778162
      py      :     1.594507
      dz2     :     0.017411  d :     0.052030
      dxz     :     0.007867
      dyz     :     0.006698
      dx2y2   :     0.008006
      dxy     :     0.012048
      f0      :     0.000630  f :     0.003986
      f+1     :     0.000531
      f-1     :     0.000756
      f+2     :     0.000415
      f-2     :     0.000424
      f+3     :     0.000805
      f-3     :     0.000424
 25 H s       :     0.584866  s :     0.584866
      pz      :     0.019464  p :     0.044973
      px      :     0.013321
      py      :     0.012188
 26 H s       :     0.551874  s :     0.551874
      pz      :     0.010113  p :     0.050680
      px      :     0.015925
      py      :     0.024642


                     *******************************
                     * LOEWDIN POPULATION ANALYSIS *
                     *******************************

----------------------
LOEWDIN ATOMIC CHARGES
----------------------
   0 O :   -0.347828
   1 H :    0.154420
   2 H :    0.153214
   3 O :   -0.323043
   4 H :    0.156362
   5 H :    0.154555
   6 O :   -0.293914
   7 H :    0.169251
   8 H :    0.195120
   9 O :   -0.296939
  10 H :    0.162282
  11 H :    0.147483
  12 O :   -0.292170
  13 H :    0.180294
  14 H :    0.160267
  15 O :   -0.350850
  16 H :    0.152251
  17 H :    0.143372
  18 O :   -0.296186
  19 H :    0.157778
  20 H :    0.155670
  21 O :   -0.378040
  22 H :    0.144436
  23 H :    0.149567
  24 O :   -0.290409
  25 H :    0.173740
  26 H :    0.159316

-------------------------------
LOEWDIN REDUCED ORBITAL CHARGES
-------------------------------
  0 O s       :     3.456372  s :     3.456372
      pz      :     1.699982  p :     4.829650
      px      :     1.396161
      py      :     1.733507
      dz2     :     0.009898  d :     0.057072
      dxz     :     0.012626
      dyz     :     0.011025
      dx2y2   :     0.009416
      dxy     :     0.014108
      f0      :     0.000453  f :     0.004734
      f+1     :     0.000850
      f-1     :     0.000645
      f+2     :     0.000410
      f-2     :     0.001028
      f+3     :     0.000474
      f-3     :     0.000874
  1 H s       :     0.677533  s :     0.677533
      pz      :     0.067076  p :     0.168047
      px      :     0.047060
      py      :     0.053912
  2 H s       :     0.646769  s :     0.646769
      pz      :     0.034060  p :     0.200016
      px      :     0.117523
      py      :     0.048434
  3 O s       :     3.451268  s :     3.451268
      pz      :     1.671632  p :     4.809515
[...]
                     *******************************

----------------------
LOEWDIN ATOMIC CHARGES
----------------------
   0 O :   -0.344183
   1 H :    0.156447
   2 H :    0.145357
   3 O :   -0.315706
   4 H :    0.158275
   5 H :    0.146245
   6 O :   -0.287911
   7 H :    0.171036
   8 H :    0.195934
   9 O :   -0.289348
  10 H :    0.158171
  11 H :    0.143627
  12 O :   -0.283703
  13 H :    0.181211
  14 H :    0.156205
  15 O :   -0.347267
  16 H :    0.147944
  17 H :    0.137270
  18 O :   -0.287494
  19 H :    0.154607
  20 H :    0.150426
  21 O :   -0.380359
  22 H :    0.146279
  23 H :    0.141618
  24 O :   -0.283817
  25 H :    0.175275
  26 H :    0.153861

-------------------------------
LOEWDIN REDUCED ORBITAL CHARGES
-------------------------------
  0 O s       :     3.457630  s :     3.457630
      pz      :     1.699580  p :     4.825307
      px      :     1.400248
      py      :     1.725478
      dz2     :     0.009875  d :     0.056475
      dxz     :     0.012275
      dyz     :     0.010953
      dx2y2   :     0.009452
      dxy     :     0.013920
      f0      :     0.000455  f :     0.004771
      f+1     :     0.000861
      f-1     :     0.000646
      f+2     :     0.000410
      f-2     :     0.001030
      f+3     :     0.000479
      f-3     :     0.000890
  1 H s       :     0.675527  s :     0.675527
      pz      :     0.067071  p :     0.168026
      px      :     0.046720
      py      :     0.054235
  2 H s       :     0.654398  s :     0.654398
      pz      :     0.034664  p :     0.200246
      px      :     0.116765
      py      :     0.048817
  3 O s       :     3.452766  s :     3.452766
      pz      :     1.666640  p :     4.801019
      px      :     1.404412
      py      :     1.729968
      dz2     :     0.010606  d :     0.057142
      dxz     :     0.012155
      dyz     :     0.011028
      dx2y2   :     0.009396
      dxy     :     0.013958
      f0      :     0.000475  f :     0.004778
      f+1     :     0.000855
      f-1     :     0.000646
      f+2     :     0.000412
      f-2     :     0.001023
      f+3     :     0.000479
      f-3     :     0.000888
  4 H s       :     0.673118  s :     0.673118
      pz      :     0.067388  p :     0.168607
      px      :     0.046875
      py      :     0.054344
  5 H s       :     0.651575  s :     0.651575
      pz      :     0.034523  p :     0.202179
      px      :     0.118826
      py      :     0.048830
  6 O s       :     3.458835  s :     3.458835
      pz      :     1.670211  p :     4.765988
      px      :     1.730499
      py      :     1.365277
      dz2     :     0.010917  d :     0.058264
      dxz     :     0.011011
      dyz     :     0.011776
      dx2y2   :     0.009529
      dxy     :     0.015031
      f0      :     0.000474  f :     0.004823
      f+1     :     0.000656
      f-1     :     0.000858
      f+2     :     0.000409
      f-2     :     0.001001
      f+3     :     0.000948
      f-3     :     0.000477
  7 H s       :     0.662258  s :     0.662258
      pz      :     0.067700  p :     0.166706
      px      :     0.054263
      py      :     0.044743
  8 H s       :     0.651916  s :     0.651916
      pz      :     0.034559  p :     0.152149
      px      :     0.045090
      py      :     0.072500
  9 O s       :     3.443847  s :     3.443847
      pz      :     1.541064  p :     4.782352
      px      :     1.535581
      py      :     1.705707
      dz2     :     0.020067  d :     0.058283
      dxz     :     0.007057
      dyz     :     0.007359
      dx2y2   :     0.009331
      dxy     :     0.014469
      f0      :     0.000830  f :     0.004866
      f+1     :     0.000976
      f-1     :     0.000728
      f+2     :     0.000391
      f-2     :     0.000424
      f+3     :     0.000409
      f-3     :     0.001107
 10 H s       :     0.665357  s :     0.665357
      pz      :     0.096241  p :     0.176472
      px      :     0.037670
      py      :     0.042561
 11 H s       :     0.679290  s :     0.679290
      pz      :     0.033060  p :     0.177083
      px      :     0.084729
      py      :     0.059294
 12 O s       :     3.453466  s :     3.453466
      pz      :     1.549265  p :     4.766569
      px      :     1.766828
      py      :     1.450475
      dz2     :     0.019943  d :     0.058844
      dxz     :     0.007026
      dyz     :     0.008942
      dx2y2   :     0.010845
      dxy     :     0.012087
      f0      :     0.000763  f :     0.004825
      f+1     :     0.000597
      f-1     :     0.001146
      f+2     :     0.000413
      f-2     :     0.000415
      f+3     :     0.001035
      f-3     :     0.000455
 13 H s       :     0.660633  s :     0.660633
      pz      :     0.031702  p :     0.158157
      px      :     0.050716
      py      :     0.075739
 14 H s       :     0.668045  s :     0.668045
      pz      :     0.095097  p :     0.175749
      px      :     0.044130
      py      :     0.036522
 15 O s       :     3.452876  s :     3.452876
      pz      :     1.540220  p :     4.833000
      px      :     1.469185
      py      :     1.823596
      dz2     :     0.018968  d :     0.056627
      dxz     :     0.009038
      dyz     :     0.007189
      dx2y2   :     0.009530
      dxy     :     0.011902
      f0      :     0.000783  f :     0.004764
      f+1     :     0.001139
      f-1     :     0.000573
      f+2     :     0.000417
      f-2     :     0.000415
      f+3     :     0.000447
      f-3     :     0.000990
 16 H s       :     0.675501  s :     0.675501
      pz      :     0.094094  p :     0.176555
      px      :     0.037830
      py      :     0.044631
 17 H s       :     0.674325  s :     0.674325
      pz      :     0.032138  p :     0.188405
      px      :     0.102020
      py      :     0.054247
 18 O s       :     3.442103  s :     3.442103
      pz      :     1.531816  p :     4.782865
      px      :     1.703112
      py      :     1.547937
      dz2     :     0.020328  d :     0.057701
      dxz     :     0.007319
      dyz     :     0.007248
      dx2y2   :     0.009090
      dxy     :     0.013715
      f0      :     0.000851  f :     0.004826
      f+1     :     0.000721
      f-1     :     0.000973
      f+2     :     0.000390
      f-2     :     0.000426
      f+3     :     0.001056
      f-3     :     0.000409
 19 H s       :     0.670386  s :     0.670386
      pz      :     0.093595  p :     0.175007
      px      :     0.043014
      py      :     0.038398
 20 H s       :     0.669543  s :     0.669543
      pz      :     0.031925  p :     0.180032
      px      :     0.059163
      py      :     0.088943
 21 O s       :     3.465850  s :     3.465850
      pz      :     1.694042  p :     4.852913
      px      :     1.767779
      py      :     1.391092
      dz2     :     0.009775  d :     0.056794
      dxz     :     0.011349
      dyz     :     0.012557
      dx2y2   :     0.008884
      dxy     :     0.014229
      f0      :     0.000454  f :     0.004802
      f+1     :     0.000648
      f-1     :     0.000862
      f+2     :     0.000411
      f-2     :     0.001046
      f+3     :     0.000905
      f-3     :     0.000476
 22 H s       :     0.685654  s :     0.685654
      pz      :     0.067042  p :     0.168067
      px      :     0.054756
      py      :     0.046269
 23 H s       :     0.659612  s :     0.659612
      pz      :     0.034931  p :     0.198770
      px      :     0.049052
      py      :     0.114787
 24 O s       :     3.448245  s :     3.448245
      pz      :     1.513500  p :     4.772201
      px      :     1.707691
      py      :     1.551010
      dz2     :     0.021060  d :     0.058484
      dxz     :     0.007352
      dyz     :     0.007290
      dx2y2   :     0.009074
      dxy     :     0.013708
      f0      :     0.000878  f :     0.004887
      f+1     :     0.000729
      f-1     :     0.000997
      f+2     :     0.000391
      f-2     :     0.000427
      f+3     :     0.001056
      f-3     :     0.000410
 25 H s       :     0.662389  s :     0.662389
      pz      :     0.081745  p :     0.162336
      px      :     0.042935
      py      :     0.037656
 26 H s       :     0.667390  s :     0.667390
      pz      :     0.030619  p :     0.178749
      px      :     0.059336
      py      :     0.088793


                      *****************************
                      * MAYER POPULATION ANALYSIS *
                      *****************************

  NA   - Mulliken gross atomic population
  ZA   - Total nuclear charge
  QA   - Mulliken gross atomic charge
  VA   - Mayer's total valence
  BVA  - Mayer's bonded valence
  FA   - Mayer's free valence

  ATOM       NA         ZA         QA         VA         BVA        FA
  0 O      8.7482     8.0000    -0.7482     2.0295     1.6403     0.3892
  1 H      0.6574     1.0000     0.3426     0.9034     0.8566     0.0467
  2 H      0.6189     1.0000     0.3811     0.9076     0.8633     0.0443
  3 O      8.7569     8.0000    -0.7569     2.0311     1.6401     0.3909
  4 H      0.6512     1.0000     0.3488     0.8997     0.8532     0.0465
  5 H      0.6157     1.0000     0.3843     0.9065     0.8621     0.0444
  6 O      8.7244     8.0000    -0.7244     2.0986     1.7124     0.3862
  7 H      0.6295     1.0000     0.3705     0.8826     0.8386     0.0440
  8 H      0.6197     1.0000     0.3803     0.8776     0.8314     0.0462
  9 O      8.7171     8.0000    -0.7171     2.0850     1.7007     0.3843
 10 H      0.6109     1.0000     0.3891     0.8909     0.8483     0.0426
 11 H      0.6476     1.0000     0.3524     0.9166     0.8708     0.0458
 12 O      8.7273     8.0000    -0.7273     2.0930     1.7057     0.3873
 13 H      0.6341     1.0000     0.3659     0.8896     0.8428     0.0468
 14 H      0.6132     1.0000     0.3868     0.8917     0.8493     0.0424
 15 O      8.7449     8.0000    -0.7449     2.0338     1.6437     0.3901
 16 H      0.6315     1.0000     0.3685     0.9100     0.8659     0.0441
 17 H      0.6557     1.0000     0.3443     0.9325     0.8851     0.0473
 18 O      8.7250     8.0000    -0.7250     2.0786     1.6933     0.3853
 19 H      0.6165     1.0000     0.3835     0.8843     0.8408     0.0435
 20 H      0.6297     1.0000     0.3703     0.9188     0.8749     0.0440
 21 O      8.7459     8.0000    -0.7459     2.0046     1.6166     0.3880
 22 H      0.6787     1.0000     0.3213     0.9168     0.8684     0.0484
 23 H      0.6296     1.0000     0.3704     0.9191     0.8742     0.0448
 24 O      8.7134     8.0000    -0.7134     2.0857     1.7025     0.3832
 25 H      0.6359     1.0000     0.3641     0.8866     0.8410     0.0456
 26 H      0.6212     1.0000     0.3788     0.9083     0.8651     0.0432

  Mayer bond orders larger than 0.100000
B(  0-O ,  1-H ) :   0.8477 B(  0-O ,  2-H ) :   0.7461 B(  2-H , 24-O ) :   0.1113 
B(  3-O ,  4-H ) :   0.8414 B(  3-O ,  5-H ) :   0.7266 B(  5-H , 18-O ) :   0.1234 
B(  6-O ,  7-H ) :   0.8288 B(  6-O ,  8-H ) :   0.8121 B(  9-O , 10-H ) :   0.7926 
B(  9-O , 11-H ) :   0.8258 B(  9-O , 23-H ) :   0.1047 B( 12-O , 13-H ) :   0.8239 
B( 12-O , 14-H ) :   0.7968 B( 15-O , 16-H ) :   0.8119 B( 15-O , 17-H ) :   0.7949 
B( 18-O , 19-H ) :   0.8087 B( 18-O , 20-H ) :   0.7889 B( 21-O , 22-H ) :   0.8626 
B( 21-O , 23-H ) :   0.7671 B( 24-O , 25-H ) :   0.8323 B( 24-O , 26-H ) :   0.7888 



----------------------------------
MP2 DERIVATIVE INTEGRAL GENERATION
----------------------------------


Input Wavefunction Amplitudes       ... 12h2o.su.etal.mol0,1,2,3,5,7,9,10,11-orca.engrad-mp2.def2tzvp.frozencore.mp2tsaa.tmp
Input Correlated Electron Density   ... 12h2o.su.etal.mol0,1,2,3,5,7,9,10,11-orca.engrad-mp2.def2tzvp.frozencore.pmp2re
Input Energy Weighted Density       ... 12h2o.su.etal.mol0,1,2,3,5,7,9,10,11-orca.engrad-mp2.def2tzvp.frozencore.wmp2.tmp
Input SCF Electron Density          ... 12h2o.su.etal.mol0,1,2,3,5,7,9,10,11-orca.engrad-mp2.def2tzvp.frozencore.scfp

One-Electron Terms    ...
                        ... One-Electron Terms done
Prescreening matrices              ... done

Batch handling in the gradient evaluation:
Memory available                      ... 8000.0 MB
Memory per occupied orbital in Q2     ...   41.1 MB
Memory per occupied orbital in Q3     ...    0.1 MB
Total memory requirement per |i>      ...   41.3 MB
Max. Number of orbitals possible      ...    193
Number of orbitals treated per batch  ...     36
Number of batches to be done          ...      1
Batch   0: i=    9 ...    44

---------------------------------------
MP2 TOTAL ENERGY:     -686.921356926 Eh
---------------------------------------

The final MP2 gradient
  0:   0.00631089   0.00349659  -0.00012211
  1:   0.00041666  -0.00057062   0.00012944
  2:  -0.00849468   0.00066433  -0.00053199
  3:  -0.00177677  -0.00208749  -0.00148590
  4:   0.00006788   0.00081881  -0.00121760
  5:   0.00243198   0.00057900  -0.00128646
  6:  -0.01020439  -0.02487933  -0.00180638
  7:  -0.00227154   0.00020034   0.00316261
  8:   0.00959617   0.02368370   0.00102237
  9:  -0.00365873   0.00761930   0.00278431
 10:   0.00062999  -0.00185190  -0.00420171
 11:   0.00739798  -0.00124829  -0.00074656
 12:  -0.01131575  -0.01470642   0.00207783
 13:   0.00573343   0.01382588  -0.00260309
 14:   0.00050564  -0.00014714   0.00007924
 15:  -0.00493423   0.00628438   0.00139018
 16:  -0.00183397  -0.00240788   0.00254629
 17:   0.01122873  -0.00493249  -0.00215461
 18:   0.00132724   0.00119803   0.00272111
 19:  -0.00043970   0.00055071  -0.00238339
 20:  -0.00284774  -0.00312927  -0.00025200
 21:  -0.00071673   0.00723124   0.00132065
 22:   0.00036813   0.00208197  -0.00062347
 23:  -0.00240658  -0.01376258  -0.00087321
 24:   0.00108728  -0.00260245   0.00840061
 25:   0.00095824   0.00126356  -0.00640102
 26:   0.00284054   0.00282803   0.00105485

-----------------------------------
NORM OF THE MP2 GRADIENT:  0.054258
-----------------------------------

-------------------------   --------------------
FINAL SINGLE POINT ENERGY      -686.921356925759
-------------------------   --------------------


                            ***************************************
                            *     ORCA property calculations      *
                            ***************************************

                                    ---------------------
                                    Active property flags
                                    ---------------------
   (+) Dipole Moment


------------------------------------------------------------------------------
                       ORCA ELECTRIC PROPERTIES CALCULATION
------------------------------------------------------------------------------

Dipole Moment Calculation                       ... on
Quadrupole Moment Calculation                   ... off
Polarizability Calculation                      ... off
GBWName                                         ... 12h2o.su.etal.mol0,1,2,3,5,7,9,10,11-orca.engrad-mp2.def2tzvp.frozencore.gbw
Electron density file                           ... 12h2o.su.etal.mol0,1,2,3,5,7,9,10,11-orca.engrad-mp2.def2tzvp.frozencore.scfp
The origin for moment calculation is the CENTER OF MASS  = (-0.527613, -0.714502  0.598446)

-------------
DIPOLE MOMENT
-------------
                                X             Y             Z
Electronic contribution:      0.05960      -0.36772       0.14238
Nuclear contribution   :      1.36331      -0.56521      -0.68611
                        -----------------------------------------
Total Dipole Moment    :      1.42290      -0.93293      -0.54373
                        -----------------------------------------
Magnitude (a.u.)       :      1.78624
Magnitude (Debye)      :      4.54026



--------------------
Rotational spectrum 
--------------------
 
Rotational constants in cm-1:     0.029092     0.013457     0.012405 
Rotational constants in MHz :   872.144936   403.438441   371.898661 

 Dipole components along the rotational axes: 
x,y,z [a.u.] :    -0.418889    -1.567963    -0.746109 
x,y,z [Debye]:    -1.064731    -3.985445    -1.896458 

 

                         *** MP2 UNRELAXED DENSITY ***

------------------------------------------------------------------------------
                       ORCA ELECTRIC PROPERTIES CALCULATION
------------------------------------------------------------------------------

Dipole Moment Calculation                       ... on
Quadrupole Moment Calculation                   ... off
Polarizability Calculation                      ... off
GBWName                                         ... 12h2o.su.etal.mol0,1,2,3,5,7,9,10,11-orca.engrad-mp2.def2tzvp.frozencore.gbw
Electron density file                           ... 12h2o.su.etal.mol0,1,2,3,5,7,9,10,11-orca.engrad-mp2.def2tzvp.frozencore.pmp2ur
The origin for moment calculation is the CENTER OF MASS  = (-0.527613, -0.714502  0.598446)

-------------
DIPOLE MOMENT
-------------
                                X             Y             Z
Electronic contribution:      0.04797      -0.36635       0.15013
Nuclear contribution   :      1.36331      -0.56521      -0.68611
                        -----------------------------------------
Total Dipole Moment    :      1.41128      -0.93155      -0.53598
                        -----------------------------------------
Magnitude (a.u.)       :      1.77391
Magnitude (Debye)      :      4.50893



--------------------
Rotational spectrum 
--------------------
 
Rotational constants in cm-1:     0.029092     0.013457     0.012405 
Rotational constants in MHz :   872.144936   403.438441   371.898661 

 Dipole components along the rotational axes: 
x,y,z [a.u.] :    -0.412672    -1.560332    -0.736096 
x,y,z [Debye]:    -1.048930    -3.966049    -1.871007 

 

                           *** MP2 RELAXED DENSITY ***

------------------------------------------------------------------------------
                       ORCA ELECTRIC PROPERTIES CALCULATION
------------------------------------------------------------------------------

Dipole Moment Calculation                       ... on
Quadrupole Moment Calculation                   ... off
Polarizability Calculation                      ... off
GBWName                                         ... 12h2o.su.etal.mol0,1,2,3,5,7,9,10,11-orca.engrad-mp2.def2tzvp.frozencore.gbw
Electron density file                           ... 12h2o.su.etal.mol0,1,2,3,5,7,9,10,11-orca.engrad-mp2.def2tzvp.frozencore.pmp2re
The origin for moment calculation is the CENTER OF MASS  = (-0.527613, -0.714502  0.598446)

-------------
DIPOLE MOMENT
-------------
                                X             Y             Z
Electronic contribution:      0.05139      -0.36149       0.16291
Nuclear contribution   :      1.36331      -0.56521      -0.68611
                        -----------------------------------------
Total Dipole Moment    :      1.41470      -0.92670      -0.52320
                        -----------------------------------------
Magnitude (a.u.)       :      1.77027
Magnitude (Debye)      :      4.49968



--------------------
Rotational spectrum 
--------------------
 
Rotational constants in cm-1:     0.029092     0.013457     0.012405 
Rotational constants in MHz :   872.144936   403.438441   371.898661 

 Dipole components along the rotational axes: 
x,y,z [a.u.] :    -0.399220    -1.558036    -0.739605 
x,y,z [Debye]:    -1.014736    -3.960212    -1.879925 

 

Timings for individual modules:

Sum of individual times         ...      267.560 sec (=   4.459 min)
GTO integral calculation        ...        1.014 sec (=   0.017 min)   0.4 %
SCF iterations                  ...       36.543 sec (=   0.609 min)  13.7 %
MP2 module                      ...      230.004 sec (=   3.833 min)  86.0 %
                             ****ORCA TERMINATED NORMALLY****
TOTAL RUN TIME: 0 days 0 hours 4 minutes 28 seconds 541 msec
