
                                 *****************
                                 * O   R   C   A *
                                 *****************

           --- An Ab Initio, DFT and Semiempirical electronic structure package ---

                  #######################################################
                  #                        -***-                        #
                  #          Department of theory and spectroscopy      #
                  #               Directorship: Frank Neese             #
                  #        Max Planck Institute fuer Kohlenforschung    #
                  #                Kaiser Wilhelm Platz 1               #
                  #                 D-45470 Muelheim/Ruhr               #
                  #                      Germany                        #
                  #                                                     #
                  #                  All rights reserved                #
                  #                        -***-                        #
                  #######################################################


                         Program Version 4.2.0 -  RELEASE  -


 With contributions from (in alphabetic order):
   Daniel Aravena         : Magnetic Suceptibility
   Michael Atanasov       : Ab Initio Ligand Field Theory (pilot matlab implementation)
   Alexander A. Auer      : GIAO ZORA, VPT2
   Ute Becker             : Parallelization
   Giovanni Bistoni       : ED, misc. LED, open-shell LED, HFLED
   Martin Brehm           : Molecular dynamics
   Dmytro Bykov           : SCF Hessian
   Vijay G. Chilkuri      : MRCI spin determinant printing, contributions to CSF-ICE
   Dipayan Datta          : RHF DLPNO-CCSD density
   Achintya Kumar Dutta   : EOM-CC, STEOM-CC
   Dmitry Ganyushin       : Spin-Orbit,Spin-Spin,Magnetic field MRCI
   Miquel Garcia          : C-PCM Hessian, Gaussian charge scheme
   Yang Guo               : DLPNO-NEVPT2, CIM, IAO-localization
   Andreas Hansen         : Spin unrestricted coupled pair/coupled cluster methods
   Benjamin Helmich-Paris : CASSCF linear response (MC-RPA)
   Lee Huntington         : MR-EOM, pCC
   Robert Izsak           : Overlap fitted RIJCOSX, COSX-SCS-MP3, EOM
   Christian Kollmar      : KDIIS, OOCD, Brueckner-CCSD(T), CCSD density
   Simone Kossmann        : Meta GGA functionals, TD-DFT gradient, OOMP2, MP2 Hessian
   Martin Krupicka        : AUTO-CI
   Lucas Lang             : DCDCAS
   Dagmar Lenk            : GEPOL surface, SMD
   Dimitrios Liakos       : Extrapolation schemes; Compound Job, initial MDCI parallelization
   Dimitrios Manganas     : Further ROCIS development; embedding schemes
   Dimitrios Pantazis     : SARC Basis sets
   Taras Petrenko         : DFT Hessian,TD-DFT gradient, ASA, ECA, R-Raman, ABS, FL, XAS/XES, NRVS
   Peter Pinski           : DLPNO-MP2, DLPNO-MP2 Gradient
   Christoph Reimann      : Effective Core Potentials
   Marius Retegan         : Local ZFS, SOC
   Christoph Riplinger    : Optimizer, TS searches, QM/MM, DLPNO-CCSD(T), (RO)-DLPNO pert. Triples
   Tobias Risthaus        : Range-separated hybrids, TD-DFT gradient, RPA, STAB
   Michael Roemelt        : Original ROCIS implementation
   Masaaki Saitow         : Open-shell DLPNO-CCSD energy and density
   Barbara Sandhoefer     : DKH picture change effects
   Avijit Sen             : IP-ROCIS
   Kantharuban Sivalingam : CASSCF convergence, NEVPT2, FIC-MRCI
   Bernardo de Souza      : ESD, SOC TD-DFT
   Georgi Stoychev        : AutoAux, RI-MP2 NMR
   Willem Van den Heuvel  : Paramagnetic NMR
   Boris Wezisla          : Elementary symmetry handling
   Frank Wennmohs         : Technical directorship


 We gratefully acknowledge several colleagues who have allowed us to
 interface, adapt or use parts of their codes:
   Stefan Grimme, W. Hujo, H. Kruse,             : VdW corrections, initial TS optimization,
                  C. Bannwarth                     DFT functionals, gCP, sTDA/sTD-DF
   Ed Valeev, F. Pavosevic, A. Kumar             : LibInt (2-el integral package), F12 methods
   Garnet Chan, S. Sharma, J. Yang, R. Olivares  : DMRG
   Ulf Ekstrom                                   : XCFun DFT Library
   Mihaly Kallay                                 : mrcc  (arbitrary order and MRCC methods)
   Andreas Klamt, Michael Diedenhofen            : otool_cosmo (COSMO solvation model)
   Jiri Pittner, Ondrej Demel                    : Mk-CCSD
   Frank Weinhold                                : gennbo (NPA and NBO analysis)
   Christopher J. Cramer and Donald G. Truhlar   : smd solvation model
   Lars Goerigk                                  : TD-DFT with DH, B97 family of functionals
   V. Asgeirsson, H. Jonsson                     : NEB implementation
   FAccTs GmbH                                   : IRC, NEB, NEB-TS, Multilevel, MM, QM/MM, CI optimization
   S Lehtola, MJT Oliveira, MAL Marques          : LibXC Library


 Your calculation uses the libint2 library for the computation of 2-el integrals
 For citations please refer to: http://libint.valeyev.net

 Your ORCA version has been built with support for libXC version: 4.2.3
 For citations please refer to: https://tddft.org/programs/libxc/

 This ORCA versions uses:
   CBLAS   interface :  Fast vector & matrix operations
   LAPACKE interface :  Fast linear algebra routines
   SCALAPACK package :  Parallel linear algebra routines


----- Orbital basis set information -----
Your calculation utilizes the basis: def2-TZVP
   F. Weigend and R. Ahlrichs, Phys. Chem. Chem. Phys. 7, 3297 (2005).

================================================================================
                                        WARNINGS
                       Please study these warnings very carefully!
================================================================================


WARNING: The frozen-core approximation for MP2-gradient calculations is turned on by default.

INFO   : the flag for use of LIBINT has been found!

================================================================================
                                       INPUT FILE
================================================================================
NAME = 12h2o.su.etal.mol1,5,6,8,9,10,11-orca.engrad-mp2.def2tzvp.frozencore.inp
|  1> # 12h2o.su.etal.mol1,5,6,8,9,10,11
|  2> ! MP2 def2-TZVP EnGrad TightSCF
|  3> 
|  4> %pal
|  5>     nprocs 6
|  6> end
|  7> 
|  8> %maxcore 8000
|  9> 
| 10> %scf
| 11>     ConvForced true
| 12> end
| 13> 
| 14> *xyz 0 1
| 15> O  -1.794470000  -0.923410000   2.768350000
| 16> H  -2.338250000  -1.359750000   3.430940000
| 17> H  -0.879480000  -1.303000000   2.865760000
| 18> O   0.885520000  -1.737840000   0.052730000
| 19> H   1.284090000  -0.839590000   0.017130000
| 20> H   1.032320000  -2.090180000  -0.841890000
| 21> O   1.737840000   0.885520000  -0.052730000
| 22> H   2.090180000   1.032320000   0.841890000
| 23> H   0.839590000   1.284090000  -0.017130000
| 24> O   1.752130000   0.741530000  -2.896280000
| 25> H   2.036450000   0.920500000  -1.984040000
| 26> H   0.921210000   1.242140000  -2.984230000
| 27> O   0.741530000  -1.752130000   2.896280000
| 28> H   0.920500000  -2.036450000   1.984040000
| 29> H   1.242140000  -0.921210000   2.984230000
| 30> O  -0.923410000   1.794470000  -2.768350000
| 31> H  -1.359750000   2.338250000  -3.430940000
| 32> H  -1.303000000   0.879480000  -2.865760000
| 33> O  -0.741530000   1.752130000   2.896280000
| 34> H  -0.920500000   2.036450000   1.984040000
| 35> H  -1.242140000   0.921210000   2.984230000
| 36> *
| 37> 
| 38>                          ****END OF INPUT****
================================================================================

                     *******************************
                     * Energy+Gradient Calculation *
                     *******************************

---------------------------------
CARTESIAN COORDINATES (ANGSTROEM)
---------------------------------
  O     -1.794470   -0.923410    2.768350
  H     -2.338250   -1.359750    3.430940
  H     -0.879480   -1.303000    2.865760
  O      0.885520   -1.737840    0.052730
  H      1.284090   -0.839590    0.017130
  H      1.032320   -2.090180   -0.841890
  O      1.737840    0.885520   -0.052730
  H      2.090180    1.032320    0.841890
  H      0.839590    1.284090   -0.017130
  O      1.752130    0.741530   -2.896280
  H      2.036450    0.920500   -1.984040
  H      0.921210    1.242140   -2.984230
  O      0.741530   -1.752130    2.896280
  H      0.920500   -2.036450    1.984040
  H      1.242140   -0.921210    2.984230
  O     -0.923410    1.794470   -2.768350
  H     -1.359750    2.338250   -3.430940
  H     -1.303000    0.879480   -2.865760
  O     -0.741530    1.752130    2.896280
  H     -0.920500    2.036450    1.984040
  H     -1.242140    0.921210    2.984230

----------------------------
CARTESIAN COORDINATES (A.U.)
----------------------------
  NO LB      ZA    FRAG     MASS         X           Y           Z
   0 O     8.0000    0    15.999   -3.391057   -1.744992    5.231423
   1 H     1.0000    0     1.008   -4.418652   -2.569555    6.483537
   2 H     1.0000    0     1.008   -1.661976   -2.462313    5.415502
   3 O     8.0000    0    15.999    1.673390   -3.284042    0.099645
   4 H     1.0000    0     1.008    2.426578   -1.586595    0.032371
   5 H     1.0000    0     1.008    1.950802   -3.949868   -1.590942
   6 O     8.0000    0    15.999    3.284042    1.673390   -0.099645
   7 H     1.0000    0     1.008    3.949868    1.950802    1.590942
   8 H     1.0000    0     1.008    1.586595    2.426578   -0.032371
   9 O     8.0000    0    15.999    3.311046    1.401289   -5.473176
  10 H     1.0000    0     1.008    3.848333    1.739493   -3.749292
  11 H     1.0000    0     1.008    1.740835    2.347304   -5.639377
  12 O     8.0000    0    15.999    1.401289   -3.311046    5.473176
  13 H     1.0000    0     1.008    1.739493   -3.848333    3.749292
  14 H     1.0000    0     1.008    2.347304   -1.740835    5.639377
  15 O     8.0000    0    15.999   -1.744992    3.391057   -5.231423
  16 H     1.0000    0     1.008   -2.569555    4.418652   -6.483537
  17 H     1.0000    0     1.008   -2.462313    1.661976   -5.415502
  18 O     8.0000    0    15.999   -1.401289    3.311046    5.473176
  19 H     1.0000    0     1.008   -1.739493    3.848333    3.749292
  20 H     1.0000    0     1.008   -2.347304    1.740835    5.639377

--------------------------------
INTERNAL COORDINATES (ANGSTROEM)
--------------------------------
 O      0   0   0     0.000000000000     0.00000000     0.00000000
 H      1   0   0     0.961828878803     0.00000000     0.00000000
 H      1   2   0     0.995381322057   106.21731035     0.00000000
 O      3   1   2     3.349245975813   116.85538783   143.82107740
 H      4   3   1     0.983350632989    97.20424340    87.67157074
 H      4   3   1     0.972645187106   154.03893681   304.15813038
 O      5   4   3     1.785153773264   170.81379649   301.36914736
 H      7   5   4     0.972645187106   101.65007623   109.44492584
 H      7   5   4     0.983350632989    99.09581498     3.33484705
 O      7   5   4     2.847229166523    89.51229470   269.85728871
 H     10   7   5     0.972136791249    19.08819947   230.61896091
 H     10   7   5     0.974050112161    93.43428486   106.52268102
 O      3   1   2     1.682356278379   171.61043709   195.73896161
 H     13   3   1     0.972136791249   103.79460456   289.35412162
 H     13   3   1     0.974050112161   105.61118924    38.30604821
 O     12  10   7     1.937600461318   161.54375213   306.34627465
 H     16  12  10     0.961828878803   121.08403650   202.75419110
 H     16  12  10     0.995381322057    95.17003195   315.21089530
 O      1   2   3     2.878117964938   126.72240291   256.40918860
 H     19   1   2     0.972136791249    99.37069922   223.07499144
 H     19   1   2     0.974050112161    12.30570018   335.59052045

---------------------------
INTERNAL COORDINATES (A.U.)
---------------------------
 O      0   0   0     0.000000000000     0.00000000     0.00000000
 H      1   0   0     1.817593168635     0.00000000     0.00000000
 H      1   2   0     1.880998097508   106.21731035     0.00000000
 O      3   1   2     6.329157649425   116.85538783   143.82107740
 H      4   3   1     1.858263389967    97.20424340    87.67157074
 H      4   3   1     1.838033029106   154.03893681   304.15813038
 O      5   4   3     3.373451738406   170.81379649   301.36914736
 H      7   5   4     1.838033029106   101.65007623   109.44492584
 H      7   5   4     1.858263389967    99.09581498     3.33484705
 O      7   5   4     5.380483365242    89.51229470   269.85728871
 H     10   7   5     1.837072300170    19.08819947   230.61896091
 H     10   7   5     1.840687952699    93.43428486   106.52268102
 O      3   1   2     3.179192625819   171.61043709   195.73896161
 H     13   3   1     1.837072300170   103.79460456   289.35412162
 H     13   3   1     1.840687952699   105.61118924    38.30604821
 O     12  10   7     3.661534228851   161.54375213   306.34627465
 H     16  12  10     1.817593168635   121.08403650   202.75419110
 H     16  12  10     1.880998097508    95.17003195   315.21089530
 O      1   2   3     5.438854734852   126.72240291   256.40918860
 H     19   1   2     1.837072300170    99.37069922   223.07499144
 H     19   1   2     1.840687952699    12.30570018   335.59052045

---------------------
BASIS SET INFORMATION
---------------------
There are 2 groups of distinct atoms

 Group   1 Type O   : 11s6p2d1f contracted to 5s3p2d1f pattern {62111/411/11/1}
 Group   2 Type H   : 5s1p contracted to 3s1p pattern {311/1}

Atom   0O    basis set group =>   1
Atom   1H    basis set group =>   2
Atom   2H    basis set group =>   2
Atom   3O    basis set group =>   1
Atom   4H    basis set group =>   2
Atom   5H    basis set group =>   2
Atom   6O    basis set group =>   1
Atom   7H    basis set group =>   2
Atom   8H    basis set group =>   2
Atom   9O    basis set group =>   1
Atom  10H    basis set group =>   2
Atom  11H    basis set group =>   2
Atom  12O    basis set group =>   1
Atom  13H    basis set group =>   2
Atom  14H    basis set group =>   2
Atom  15O    basis set group =>   1
Atom  16H    basis set group =>   2
Atom  17H    basis set group =>   2
Atom  18O    basis set group =>   1
Atom  19H    basis set group =>   2
Atom  20H    basis set group =>   2


           ************************************************************
           *        Program running with 6 parallel MPI-processes     *
           *              working on a common directory               *
           ************************************************************
------------------------------------------------------------------------------
                           ORCA GTO INTEGRAL CALCULATION
------------------------------------------------------------------------------

                         BASIS SET STATISTICS AND STARTUP INFO

 # of primitive gaussian shells          ...  224
 # of primitive gaussian functions       ...  434
 # of contracted shells                  ...  133
 # of contracted basis functions         ...  301
 Highest angular momentum                ...    3
 Maximum contraction depth               ...    6
 Integral package used                   ... LIBINT
 Integral threshhold            Thresh   ...  2.500e-11
 Primitive cut-off              TCut     ...  2.500e-12


------------------------------ INTEGRAL EVALUATION ----------------------------


 * One electron integrals 
 Pre-screening matrix                    ... done
 Shell pair data                         ... done (   0.002 sec)



           ************************************************************
           *        Program running with 6 parallel MPI-processes     *
           *              working on a common directory               *
           ************************************************************
-------------------------------------------------------------------------------
                                 ORCA SCF
-------------------------------------------------------------------------------

------------
SCF SETTINGS
------------
Hamiltonian:
 Ab initio Hamiltonian  Method          .... Hartree-Fock(GTOs)


General Settings:
 Integral files         IntName         .... 12h2o.su.etal.mol1,5,6,8,9,10,11-orca.engrad-mp2.def2tzvp.frozencore
 Hartree-Fock type      HFTyp           .... RHF
 Total Charge           Charge          ....    0
 Multiplicity           Mult            ....    1
 Number of Electrons    NEL             ....   70
 Basis Dimension        Dim             ....  301
 Nuclear Repulsion      ENuc            ....    341.7937352482 Eh

Convergence Acceleration:
 DIIS                   CNVDIIS         .... on
   Start iteration      DIISMaxIt       ....    12
   Startup error        DIISStart       ....  0.200000
   # of expansion vecs  DIISMaxEq       ....     5
   Bias factor          DIISBfac        ....   1.050
   Max. coefficient     DIISMaxC        ....  10.000
 Newton-Raphson         CNVNR           .... off
 SOSCF                  CNVSOSCF        .... on
   Start iteration      SOSCFMaxIt      ....   150
   Startup grad/error   SOSCFStart      ....  0.003300
 Level Shifting         CNVShift        .... on
   Level shift para.    LevelShift      ....    0.2500
   Turn off err/grad.   ShiftErr        ....    0.0010
 Zerner damping         CNVZerner       .... off
 Static damping         CNVDamp         .... on
   Fraction old density DampFac         ....    0.7000
   Max. Damping (<1)    DampMax         ....    0.9800
   Min. Damping (>=0)   DampMin         ....    0.0000
   Turn off err/grad.   DampErr         ....    0.1000
 Fernandez-Rico         CNVRico         .... off

SCF Procedure:
 Maximum # iterations   MaxIter         ....   125
 SCF integral mode      SCFMode         .... Direct
   Integral package                     .... LIBINT
 Reset frequency        DirectResetFreq ....    20
 Integral Threshold     Thresh          ....  2.500e-11 Eh
 Primitive CutOff       TCut            ....  2.500e-12 Eh

Convergence Tolerance:
 Convergence Check Mode ConvCheckMode   .... Total+1el-Energy
 Convergence forced     ConvForced      .... 1
 Energy Change          TolE            ....  1.000e-08 Eh
 1-El. energy change                    ....  1.000e-05 Eh
 Orbital Gradient       TolG            ....  1.000e-05
 Orbital Rotation angle TolX            ....  1.000e-05
 DIIS Error             TolErr          ....  5.000e-07


Diagonalization of the overlap matrix:
Smallest eigenvalue                        ... 4.116e-03
Time for diagonalization                   ...    0.250 sec
Threshold for overlap eigenvalues          ... 1.000e-08
Number of eigenvalues below threshold      ... 0
Time for construction of square roots      ...    0.062 sec
Total time needed                          ...    0.312 sec

-------------------
DFT GRID GENERATION
-------------------

General Integration Accuracy     IntAcc      ...  4.340
Radial Grid Type                 RadialGrid  ... Gauss-Chebyshev
Angular Grid (max. acc.)         AngularGrid ... Lebedev-110
Angular grid pruning method      GridPruning ... 3 (G Style)
Weight generation scheme         WeightScheme... Becke
Basis function cutoff            BFCut       ...    1.0000e-11
Integration weight cutoff        WCut        ...    1.0000e-14
Grids for H and He will be reduced by one unit

# of grid points (after initial pruning)     ...  23128 (   0.0 sec)
# of grid points (after weights+screening)   ...  21775 (   0.0 sec)
nearest neighbour list constructed           ...    0.0 sec
Grid point re-assignment to atoms done       ...    0.0 sec
Grid point division into batches done        ...    0.0 sec
Reduced shell lists constructed in    0.0 sec

Total number of grid points                  ...    21775
Total number of batches                      ...      352
Average number of points per batch           ...       61
Average number of grid points per atom       ...     1037
Average number of shells per batch           ...    62.98 (47.36%)
Average number of basis functions per batch  ...   128.05 (42.54%)
Average number of large shells per batch     ...    43.12 (68.46%)
Average number of large basis fcns per batch ...    86.38 (67.46%)
Maximum spatial batch extension              ...  12.83, 14.11, 13.49 au
Average spatial batch extension              ...   0.53,  0.54,  0.52 au

Time for grid setup =    0.103 sec

------------------------------
INITIAL GUESS: MODEL POTENTIAL
------------------------------
Loading Hartree-Fock densities                     ... done
Calculating cut-offs                               ... done
Setting up the integral package                    ... done
Initializing the effective Hamiltonian             ... done
Starting the Coulomb interaction                   ... done (   0.0 sec)
Reading the grid                                   ... done
Mapping shells                                     ... done
Starting the XC term evaluation                    ... done (   0.1 sec)
Transforming the Hamiltonian                       ... done (   0.0 sec)
Diagonalizing the Hamiltonian                      ... done (   0.1 sec)
Back transforming the eigenvectors                 ... done (   0.0 sec)
Now organizing SCF variables                       ... done
                      ------------------
                      INITIAL GUESS DONE (   0.4 sec)
                      ------------------
--------------
SCF ITERATIONS
--------------
ITER       Energy         Delta-E        Max-DP      RMS-DP      [F,P]     Damp
               ***  Starting incremental Fock matrix formation  ***
  0   -531.8125993365   0.000000000000 0.04378136  0.00089742  0.3492972 0.7000
  1   -532.0578606265  -0.245261289971 0.02899514  0.00062110  0.2169654 0.7000
                               ***Turning on DIIS***
  2   -532.1875930015  -0.129732375042 0.01679071  0.00034647  0.1635449 0.7000
  3   -533.3515451920  -1.163952190487 0.00760502  0.00015802  0.1217947 0.7000
  4   -533.1138495216   0.237695670453 0.01679706  0.00036525  0.0861857 0.0000
  5   -532.4846894715   0.629160050112 0.00217135  0.00005820  0.0059252 0.0000
                      *** Initiating the SOSCF procedure ***
                           *** Shutting down DIIS ***
                      *** Re-Reading the Fockian *** 
                      *** Removing any level shift *** 
ITER      Energy       Delta-E        Grad      Rot      Max-DP    RMS-DP
  6   -532.44826378   0.0364256931  0.000936  0.000936  0.001330  0.000036
               *** Restarting incremental Fock matrix formation ***
  7   -532.43785817   0.0104056110  0.000302  0.000418  0.000599  0.000016
  8   -532.43786824  -0.0000100709  0.000125  0.000336  0.000461  0.000013
  9   -532.43787063  -0.0000023932  0.000052  0.000048  0.000094  0.000002
 10   -532.43787082  -0.0000001903  0.000011  0.000010  0.000018  0.000000
                  ***Gradient check signals convergence***
              ***Rediagonalizing the Fockian in SOSCF/NRSCF***

               *****************************************************
               *                     SUCCESS                       *
               *           SCF CONVERGED AFTER  11 CYCLES          *
               *****************************************************


----------------
TOTAL SCF ENERGY
----------------

Total Energy       :         -532.43787083 Eh          -14488.37104 eV

Components:
Nuclear Repulsion  :          341.79373525 Eh            9300.68037 eV
Electronic Energy  :         -874.23160608 Eh          -23789.05141 eV
One Electron Energy:        -1416.16525360 Eh          -38535.81567 eV
Two Electron Energy:          541.93364753 Eh           14746.76426 eV

Virial components:
Potential Energy   :        -1064.14548170 Eh          -28956.87070 eV
Kinetic Energy     :          531.70761087 Eh           14468.49966 eV
Virial Ratio       :            2.00137342


---------------
SCF CONVERGENCE
---------------

  Last Energy change         ...   -5.3215e-09  Tolerance :   1.0000e-08
  Last MAX-Density change    ...    4.5031e-06  Tolerance :   1.0000e-07
  Last RMS-Density change    ...    1.1452e-07  Tolerance :   5.0000e-09
  Last Orbital Gradient      ...    1.9094e-06  Tolerance :   1.0000e-05
  Last Orbital Rotation      ...    2.2592e-06  Tolerance :   1.0000e-05

             **** THE GBW FILE WAS UPDATED (12h2o.su.etal.mol1,5,6,8,9,10,11-orca.engrad-mp2.def2tzvp.frozencore.gbw) ****
             **** DENSITY FILE WAS UPDATED (12h2o.su.etal.mol1,5,6,8,9,10,11-orca.engrad-mp2.def2tzvp.frozencore.scfp) ****
             **** ENERGY FILE WAS UPDATED (12h2o.su.etal.mol1,5,6,8,9,10,11-orca.engrad-mp2.def2tzvp.frozencore.en.tmp) ****
             **** THE GBW FILE WAS UPDATED (12h2o.su.etal.mol1,5,6,8,9,10,11-orca.engrad-mp2.def2tzvp.frozencore.gbw) ****
             **** DENSITY FILE WAS UPDATED (12h2o.su.etal.mol1,5,6,8,9,10,11-orca.engrad-mp2.def2tzvp.frozencore.scfp) ****
----------------
ORBITAL ENERGIES
----------------

  NO   OCC          E(Eh)            E(eV) 
   0   2.0000     -20.621279      -561.1335 
   1   2.0000     -20.600354      -560.5641 
   2   2.0000     -20.573079      -559.8219 
   3   2.0000     -20.561012      -559.4936 
   4   2.0000     -20.542986      -559.0031 
   5   2.0000     -20.538593      -558.8835 
   6   2.0000     -20.524773      -558.5075 
   7   2.0000      -1.404271       -38.2122 
   8   2.0000      -1.377972       -37.4965 
   9   2.0000      -1.363973       -37.1156 
  10   2.0000      -1.342457       -36.5301 
  11   2.0000      -1.329004       -36.1640 
  12   2.0000      -1.317544       -35.8522 
  13   2.0000      -1.310017       -35.6474 
  14   2.0000      -0.762037       -20.7361 
  15   2.0000      -0.745178       -20.2773 
  16   2.0000      -0.726594       -19.7716 
  17   2.0000      -0.715617       -19.4729 
  18   2.0000      -0.707248       -19.2452 
  19   2.0000      -0.691399       -18.8139 
  20   2.0000      -0.690226       -18.7820 
  21   2.0000      -0.643504       -17.5106 
  22   2.0000      -0.618196       -16.8220 
  23   2.0000      -0.611394       -16.6369 
  24   2.0000      -0.593514       -16.1503 
  25   2.0000      -0.575253       -15.6534 
  26   2.0000      -0.558622       -15.2009 
  27   2.0000      -0.553280       -15.0555 
  28   2.0000      -0.546999       -14.8846 
  29   2.0000      -0.529863       -14.4183 
  30   2.0000      -0.513076       -13.9615 
  31   2.0000      -0.506968       -13.7953 
  32   2.0000      -0.492412       -13.3992 
  33   2.0000      -0.486070       -13.2266 
  34   2.0000      -0.474315       -12.9068 
  35   0.0000       0.078260         2.1296 
  36   0.0000       0.107767         2.9325 
  37   0.0000       0.140520         3.8237 
  38   0.0000       0.152952         4.1620 
  39   0.0000       0.155807         4.2397 
  40   0.0000       0.185201         5.0396 
  41   0.0000       0.193285         5.2596 
  42   0.0000       0.228911         6.2290 
  43   0.0000       0.244617         6.6564 
  44   0.0000       0.269502         7.3335 
  45   0.0000       0.299809         8.1582 
  46   0.0000       0.306531         8.3411 
  47   0.0000       0.325784         8.8650 
  48   0.0000       0.344623         9.3777 
  49   0.0000       0.429755        11.6942 
  50   0.0000       0.449769        12.2388 
  51   0.0000       0.479398        13.0451 
  52   0.0000       0.488582        13.2950 
  53   0.0000       0.507015        13.7966 
  54   0.0000       0.516237        14.0475 
  55   0.0000       0.529570        14.4103 
  56   0.0000       0.535112        14.5611 
  57   0.0000       0.548726        14.9316 
  58   0.0000       0.559272        15.2186 
  59   0.0000       0.571302        15.5459 
  60   0.0000       0.580560        15.7978 
  61   0.0000       0.593630        16.1535 
  62   0.0000       0.601397        16.3648 
  63   0.0000       0.605989        16.4898 
  64   0.0000       0.612380        16.6637 
  65   0.0000       0.622816        16.9477 
  66   0.0000       0.637684        17.3523 
  67   0.0000       0.641906        17.4672 
  68   0.0000       0.667194        18.1553 
  69   0.0000       0.674595        18.3567 
  70   0.0000       0.684973        18.6391 
  71   0.0000       0.709115        19.2960 
  72   0.0000       0.724700        19.7201 
  73   0.0000       0.734704        19.9923 
  74   0.0000       0.750768        20.4294 
  75   0.0000       0.762336        20.7442 
  76   0.0000       0.771821        21.0023 
  77   0.0000       0.782502        21.2930 
  78   0.0000       0.793210        21.5843 
  79   0.0000       0.809234        22.0204 
  80   0.0000       0.838005        22.8033 
  81   0.0000       0.846952        23.0467 
  82   0.0000       0.863471        23.4963 
  83   0.0000       0.917200        24.9583 
  84   0.0000       0.927461        25.2375 
  85   0.0000       0.945772        25.7358 
  86   0.0000       0.959587        26.1117 
  87   0.0000       0.984221        26.7820 
  88   0.0000       1.038087        28.2478 
  89   0.0000       1.043345        28.3909 
  90   0.0000       1.064449        28.9651 
  91   0.0000       1.345879        36.6232 
  92   0.0000       1.367446        37.2101 
  93   0.0000       1.374117        37.3916 
  94   0.0000       1.389925        37.8218 
  95   0.0000       1.394486        37.9459 
  96   0.0000       1.409167        38.3454 
  97   0.0000       1.425185        38.7812 
  98   0.0000       1.435650        39.0660 
  99   0.0000       1.447112        39.3779 
 100   0.0000       1.457880        39.6709 
 101   0.0000       1.478006        40.2186 
 102   0.0000       1.494245        40.6605 
 103   0.0000       1.508882        41.0588 
 104   0.0000       1.514419        41.2094 
 105   0.0000       1.550781        42.1989 
 106   0.0000       1.563551        42.5464 
 107   0.0000       1.567148        42.6443 
 108   0.0000       1.586997        43.1844 
 109   0.0000       1.619720        44.0748 
 110   0.0000       1.630676        44.3729 
 111   0.0000       1.641870        44.6776 
 112   0.0000       1.775735        48.3202 
 113   0.0000       1.800702        48.9996 
 114   0.0000       1.823937        49.6318 
 115   0.0000       1.841168        50.1007 
 116   0.0000       1.851737        50.3883 
 117   0.0000       1.856819        50.5266 
 118   0.0000       1.863537        50.7094 
 119   0.0000       1.902609        51.7726 
 120   0.0000       1.930136        52.5217 
 121   0.0000       1.943004        52.8718 
 122   0.0000       1.963879        53.4399 
 123   0.0000       1.974780        53.7365 
 124   0.0000       1.990105        54.1535 
 125   0.0000       2.025125        55.1064 
 126   0.0000       2.040275        55.5187 
 127   0.0000       2.061841        56.1056 
 128   0.0000       2.085166        56.7402 
 129   0.0000       2.094726        57.0004 
 130   0.0000       2.129955        57.9590 
 131   0.0000       2.159243        58.7560 
 132   0.0000       2.174955        59.1835 
 133   0.0000       2.256128        61.3924 
 134   0.0000       2.269217        61.7485 
 135   0.0000       2.288871        62.2834 
 136   0.0000       2.299591        62.5751 
 137   0.0000       2.301212        62.6192 
 138   0.0000       2.310791        62.8798 
 139   0.0000       2.323435        63.2239 
 140   0.0000       2.328328        63.3570 
 141   0.0000       2.339112        63.6505 
 142   0.0000       2.347854        63.8884 
 143   0.0000       2.371894        64.5425 
 144   0.0000       2.379748        64.7562 
 145   0.0000       2.382040        64.8186 
 146   0.0000       2.405097        65.4460 
 147   0.0000       2.432491        66.1915 
 148   0.0000       2.442458        66.4626 
 149   0.0000       2.483354        67.5755 
 150   0.0000       2.513250        68.3890 
 151   0.0000       2.520673        68.5910 
 152   0.0000       2.533976        68.9530 
 153   0.0000       2.549703        69.3810 
 154   0.0000       2.582450        70.2720 
 155   0.0000       2.606223        70.9189 
 156   0.0000       2.608325        70.9761 
 157   0.0000       2.618050        71.2408 
 158   0.0000       2.633476        71.6605 
 159   0.0000       2.646498        72.0149 
 160   0.0000       2.655617        72.2630 
 161   0.0000       2.671663        72.6996 
 162   0.0000       2.689618        73.1882 
 163   0.0000       2.702009        73.5254 
 164   0.0000       2.717482        73.9465 
 165   0.0000       2.743271        74.6482 
 166   0.0000       2.755892        74.9916 
 167   0.0000       2.812163        76.5229 
 168   0.0000       2.876025        78.2606 
 169   0.0000       2.896116        78.8073 
 170   0.0000       2.907896        79.1279 
 171   0.0000       2.934743        79.8584 
 172   0.0000       2.956203        80.4424 
 173   0.0000       2.970200        80.8233 
 174   0.0000       2.978454        81.0479 
 175   0.0000       2.986454        81.2655 
 176   0.0000       2.996939        81.5509 
 177   0.0000       3.006061        81.7991 
 178   0.0000       3.015772        82.0633 
 179   0.0000       3.032572        82.5205 
 180   0.0000       3.066380        83.4404 
 181   0.0000       3.080723        83.8307 
 182   0.0000       3.098252        84.3077 
 183   0.0000       3.106521        84.5327 
 184   0.0000       3.139355        85.4262 
 185   0.0000       3.161370        86.0252 
 186   0.0000       3.172746        86.3348 
 187   0.0000       3.217174        87.5437 
 188   0.0000       3.235779        88.0500 
 189   0.0000       3.248955        88.4086 
 190   0.0000       3.258442        88.6667 
 191   0.0000       3.303117        89.8824 
 192   0.0000       3.336015        90.7776 
 193   0.0000       3.343391        90.9783 
 194   0.0000       3.436816        93.5205 
 195   0.0000       3.515737        95.6681 
 196   0.0000       3.959924       107.7550 
 197   0.0000       4.002770       108.9209 
 198   0.0000       4.036589       109.8412 
 199   0.0000       4.051375       110.2435 
 200   0.0000       4.074923       110.8843 
 201   0.0000       4.102753       111.6416 
 202   0.0000       4.130348       112.3925 
 203   0.0000       4.252468       115.7155 
 204   0.0000       4.278381       116.4207 
 205   0.0000       4.305354       117.1547 
 206   0.0000       4.333303       117.9152 
 207   0.0000       4.343786       118.2004 
 208   0.0000       4.356528       118.5472 
 209   0.0000       4.397815       119.6706 
 210   0.0000       5.487736       149.3289 
 211   0.0000       5.510981       149.9614 
 212   0.0000       5.531642       150.5236 
 213   0.0000       5.545256       150.8941 
 214   0.0000       5.563160       151.3813 
 215   0.0000       5.564614       151.4208 
 216   0.0000       5.579380       151.8226 
 217   0.0000       5.607951       152.6001 
 218   0.0000       5.614712       152.7841 
 219   0.0000       5.653718       153.8455 
 220   0.0000       5.660555       154.0315 
 221   0.0000       5.669294       154.2693 
 222   0.0000       5.681378       154.5982 
 223   0.0000       5.685675       154.7151 
 224   0.0000       5.763548       156.8341 
 225   0.0000       5.775668       157.1639 
 226   0.0000       5.791653       157.5989 
 227   0.0000       5.812461       158.1651 
 228   0.0000       5.814694       158.2259 
 229   0.0000       5.819481       158.3561 
 230   0.0000       5.829492       158.6286 
 231   0.0000       5.835599       158.7947 
 232   0.0000       5.836966       158.8319 
 233   0.0000       5.852305       159.2493 
 234   0.0000       5.861218       159.4919 
 235   0.0000       5.869414       159.7149 
 236   0.0000       5.874530       159.8541 
 237   0.0000       5.880578       160.0187 
 238   0.0000       5.891913       160.3271 
 239   0.0000       5.894239       160.3904 
 240   0.0000       5.899843       160.5429 
 241   0.0000       5.912780       160.8949 
 242   0.0000       5.913673       160.9192 
 243   0.0000       5.934029       161.4732 
 244   0.0000       5.950024       161.9084 
 245   0.0000       6.393605       173.9788 
 246   0.0000       6.413827       174.5291 
 247   0.0000       6.461085       175.8151 
 248   0.0000       6.479798       176.3243 
 249   0.0000       6.494457       176.7232 
 250   0.0000       6.507768       177.0854 
 251   0.0000       6.517977       177.3632 
 252   0.0000       6.639479       180.6694 
 253   0.0000       6.659674       181.2189 
 254   0.0000       6.682764       181.8473 
 255   0.0000       6.702253       182.3776 
 256   0.0000       6.717911       182.8037 
 257   0.0000       6.747459       183.6077 
 258   0.0000       6.755376       183.8231 
 259   0.0000       6.820193       185.5869 
 260   0.0000       6.832753       185.9287 
 261   0.0000       6.836709       186.0363 
 262   0.0000       6.841904       186.1777 
 263   0.0000       6.851883       186.4492 
 264   0.0000       6.869803       186.9368 
 265   0.0000       6.879423       187.1986 
 266   0.0000       6.880314       187.2229 
 267   0.0000       6.897790       187.6984 
 268   0.0000       6.902484       187.8261 
 269   0.0000       6.905850       187.9177 
 270   0.0000       6.918433       188.2601 
 271   0.0000       6.933172       188.6612 
 272   0.0000       6.952722       189.1932 
 273   0.0000       6.959191       189.3692 
 274   0.0000       6.982025       189.9906 
 275   0.0000       6.987166       190.1305 
 276   0.0000       6.990554       190.2226 
 277   0.0000       7.001993       190.5339 
 278   0.0000       7.019387       191.0072 
 279   0.0000       7.090863       192.9522 
 280   0.0000       7.330140       199.4632 
 281   0.0000       7.339802       199.7262 
 282   0.0000       7.379343       200.8021 
 283   0.0000       7.425058       202.0461 
 284   0.0000       7.433684       202.2808 
 285   0.0000       7.437640       202.3885 
 286   0.0000       7.457810       202.9373 
 287   0.0000       7.495576       203.9650 
 288   0.0000       7.501061       204.1143 
 289   0.0000       7.534899       205.0350 
 290   0.0000       7.564059       205.8285 
 291   0.0000       7.570642       206.0076 
 292   0.0000       7.580859       206.2856 
 293   0.0000       7.609811       207.0735 
 294   0.0000      44.840115      1220.1616 
 295   0.0000      44.923508      1222.4308 
 296   0.0000      44.951383      1223.1893 
 297   0.0000      44.976925      1223.8844 
 298   0.0000      44.990734      1224.2601 
 299   0.0000      45.006139      1224.6793 
 300   0.0000      45.022395      1225.1217 

                    ********************************
                    * MULLIKEN POPULATION ANALYSIS *
                    ********************************

-----------------------
MULLIKEN ATOMIC CHARGES
-----------------------
   0 O :   -0.773669
   1 H :    0.345824
   2 H :    0.412051
   3 O :   -0.759763
   4 H :    0.379680
   5 H :    0.363050
   6 O :   -0.738646
   7 H :    0.377313
   8 H :    0.381858
   9 O :   -0.749736
  10 H :    0.375769
  11 H :    0.364841
  12 O :   -0.731550
  13 H :    0.409801
  14 H :    0.348477
  15 O :   -0.727794
  16 H :    0.367702
  17 H :    0.373704
  18 O :   -0.735912
  19 H :    0.325897
  20 H :    0.391105
Sum of atomic charges:   -0.0000000

--------------------------------
MULLIKEN REDUCED ORBITAL CHARGES
--------------------------------
  0 O s       :     3.807217  s :     3.807217
      pz      :     1.731196  p :     4.942112
      px      :     1.431204
      py      :     1.779712
      dz2     :     0.004084  d :     0.022915
      dxz     :     0.004908
      dyz     :     0.005232
      dx2y2   :     0.002292
      dxy     :     0.006399
      f0      :     0.000089  f :     0.001425
      f+1     :     0.000334
      f-1     :     0.000176
      f+2     :     0.000061
      f-2     :     0.000355
      f+3     :     0.000082
      f-3     :     0.000328
  1 H s       :     0.608421  s :     0.608421
      pz      :     0.017192  p :     0.045754
      px      :     0.013663
      py      :     0.014899
  2 H s       :     0.531797  s :     0.531797
      pz      :     0.010510  p :     0.056152
      px      :     0.032466
      py      :     0.013176
  3 O s       :     3.807134  s :     3.807134
      pz      :     1.547717  p :     4.928182
      px      :     1.880531
      py      :     1.499934
      dz2     :     0.010137  d :     0.022984
      dxz     :     0.002306
      dyz     :     0.002477
      dx2y2   :     0.002888
      dxy     :     0.005175
      f0      :     0.000207  f :     0.001463
      f+1     :     0.000125
      f-1     :     0.000437
      f+2     :     0.000079
      f-2     :     0.000038
      f+3     :     0.000456
      f-3     :     0.000120
  4 H s       :     0.566768  s :     0.566768
      pz      :     0.009182  p :     0.053552
      px      :     0.015867
      py      :     0.028503
  5 H s       :     0.592197  s :     0.592197
      pz      :     0.018687  p :     0.044754
      px      :     0.013970
      py      :     0.012097
  6 O s       :     3.805454  s :     3.805454
      pz      :     1.571200  p :     4.906866
      px      :     1.483567
      py      :     1.852099
      dz2     :     0.011362  d :     0.024895
      dxz     :     0.002738
      dyz     :     0.002199
      dx2y2   :     0.003555
      dxy     :     0.005041
      f0      :     0.000184  f :     0.001431
      f+1     :     0.000456
      f-1     :     0.000117
      f+2     :     0.000069
      f-2     :     0.000038
      f+3     :     0.000109
      f-3     :     0.000457
  7 H s       :     0.578948  s :     0.578948
      pz      :     0.019167  p :     0.043740
      px      :     0.011397
      py      :     0.013176
  8 H s       :     0.576655  s :     0.576655
      pz      :     0.009008  p :     0.041486
      px      :     0.018759
      py      :     0.013719
  9 O s       :     3.806149  s :     3.806149
      pz      :     1.538795  p :     4.917198
      px      :     1.558881
      py      :     1.819521
      dz2     :     0.011583  d :     0.024941
      dxz     :     0.001259
      dyz     :     0.002935
      dx2y2   :     0.002051
      dxy     :     0.007112
      f0      :     0.000256  f :     0.001449
      f+1     :     0.000371
      f-1     :     0.000162
      f+2     :     0.000056
      f-2     :     0.000055
      f+3     :     0.000065
      f-3     :     0.000485
 10 H s       :     0.575634  s :     0.575634
      pz      :     0.023445  p :     0.048597
      px      :     0.011807
      py      :     0.013346
 11 H s       :     0.584504  s :     0.584504
      pz      :     0.010342  p :     0.050656
      px      :     0.023640
      py      :     0.016674
 12 O s       :     3.797639  s :     3.797639
      pz      :     1.582498  p :     4.907560
      px      :     1.783752
      py      :     1.541310
      dz2     :     0.011851  d :     0.024954
      dxz     :     0.002361
      dyz     :     0.001165
      dx2y2   :     0.002468
      dxy     :     0.007109
      f0      :     0.000224  f :     0.001397
      f+1     :     0.000156
      f-1     :     0.000382
      f+2     :     0.000051
      f-2     :     0.000055
      f+3     :     0.000477
      f-3     :     0.000052
 13 H s       :     0.542485  s :     0.542485
      pz      :     0.025225  p :     0.047714
      px      :     0.011588
      py      :     0.010901
 14 H s       :     0.607548  s :     0.607548
      pz      :     0.010751  p :     0.043976
      px      :     0.014969
      py      :     0.018255
 15 O s       :     3.808226  s :     3.808226
      pz      :     1.737144  p :     4.893546
      px      :     1.784522
      py      :     1.371880
      dz2     :     0.004299  d :     0.024507
      dxz     :     0.005525
      dyz     :     0.004865
      dx2y2   :     0.002608
      dxy     :     0.007210
      f0      :     0.000093  f :     0.001515
      f+1     :     0.000186
      f-1     :     0.000350
      f+2     :     0.000063
      f-2     :     0.000359
      f+3     :     0.000371
      f-3     :     0.000092
 16 H s       :     0.587001  s :     0.587001
      pz      :     0.017165  p :     0.045297
      px      :     0.014789
      py      :     0.013343
 17 H s       :     0.585127  s :     0.585127
      pz      :     0.011008  p :     0.041170
      px      :     0.012212
      py      :     0.017950
 18 O s       :     3.810087  s :     3.810087
      pz      :     1.483543  p :     4.899244
      px      :     1.825751
      py      :     1.589950
      dz2     :     0.012004  d :     0.025110
      dxz     :     0.002889
      dyz     :     0.001300
      dx2y2   :     0.001953
      dxy     :     0.006964
      f0      :     0.000273  f :     0.001471
      f+1     :     0.000167
      f-1     :     0.000379
      f+2     :     0.000055
      f-2     :     0.000055
      f+3     :     0.000480
      f-3     :     0.000061
 19 H s       :     0.628966  s :     0.628966
      pz      :     0.018512  p :     0.045138
      px      :     0.014086
      py      :     0.012540
 20 H s       :     0.558860  s :     0.558860
      pz      :     0.009498  p :     0.050035
      px      :     0.016057
      py      :     0.024479


                     *******************************
                     * LOEWDIN POPULATION ANALYSIS *
                     *******************************

----------------------
LOEWDIN ATOMIC CHARGES
----------------------
   0 O :   -0.347474
   1 H :    0.153262
   2 H :    0.156322
   3 O :   -0.344630
   4 H :    0.151111
   5 H :    0.170032
   6 O :   -0.284275
   7 H :    0.175537
   8 H :    0.184471
   9 O :   -0.355128
  10 H :    0.151070
  11 H :    0.148173
  12 O :   -0.286017
  13 H :    0.166966
  14 H :    0.165247
  15 O :   -0.319643
  16 H :    0.165729
  17 H :    0.190027
  18 O :   -0.350946
  19 H :    0.152566
  20 H :    0.157600

-------------------------------
LOEWDIN REDUCED ORBITAL CHARGES
-------------------------------
  0 O s       :     3.461039  s :     3.461039
      pz      :     1.709434  p :     4.855479
      px      :     1.401224
      py      :     1.744822
      dz2     :     0.004376  d :     0.028987
      dxz     :     0.007143
      dyz     :     0.005396
      dx2y2   :     0.003692
      dxy     :     0.008379
      f0      :     0.000075  f :     0.001970
      f+1     :     0.000437
      f-1     :     0.000263
      f+2     :     0.000032
      f-2     :     0.000623
      f+3     :     0.000083
      f-3     :     0.000456
  1 H s       :     0.681910  s :     0.681910
      pz      :     0.065880  p :     0.164828
      px      :     0.045964
      py      :     0.052984
  2 H s       :     0.647633  s :     0.647633
      pz      :     0.033374  p :     0.196045
      px      :     0.115276
      py      :     0.047395
  3 O s       :     3.461322  s :     3.461322
      pz      :     1.529956  p :     4.851646
      px      :     1.840553
      py      :     1.481137
      dz2     :     0.014181  d :     0.029635
      dxz     :     0.001591
      dyz     :     0.003957
      dx2y2   :     0.003750
      dxy     :     0.006156
      f0      :     0.000396  f :     0.002027
      f+1     :     0.000187
      f-1     :     0.000727
      f+2     :     0.000046
      f-2     :     0.000044
      f+3     :     0.000560
      f-3     :     0.000066
  4 H s       :     0.664598  s :     0.664598
      pz      :     0.029305  p :     0.184291
      px      :     0.052575
      py      :     0.102411
  5 H s       :     0.671144  s :     0.671144
      pz      :     0.079492  p :     0.158824
      px      :     0.042961
      py      :     0.036371
  6 O s       :     3.461607  s :     3.461607
      pz      :     1.538634  p :     4.787860
      px      :     1.460020
      py      :     1.789207
      dz2     :     0.015780  d :     0.032723
      dxz     :     0.004005
      dyz     :     0.001388
      dx2y2   :     0.005200
      dxy     :     0.006350
      f0      :     0.000370  f :     0.002085
      f+1     :     0.000744
      f-1     :     0.000205
      f+2     :     0.000041
      f-2     :     0.000044
      f+3     :     0.000072
      f-3     :     0.000608
  7 H s       :     0.665340  s :     0.665340
      pz      :     0.080887  p :     0.159123
      px      :     0.035509
      py      :     0.042727
  8 H s       :     0.661112  s :     0.661112
      pz      :     0.029125  p :     0.154418
      px      :     0.076158
      py      :     0.049135
  9 O s       :     3.461200  s :     3.461200
      pz      :     1.526707  p :     4.861264
      px      :     1.542503
      py      :     1.792054
      dz2     :     0.015265  d :     0.030612
      dxz     :     0.001979
      dyz     :     0.002298
      dx2y2   :     0.002126
      dxy     :     0.008944
      f0      :     0.000460  f :     0.002052
      f+1     :     0.000549
      f-1     :     0.000307
      f+2     :     0.000023
      f-2     :     0.000047
      f+3     :     0.000002
      f-3     :     0.000663
 10 H s       :     0.679228  s :     0.679228
      pz      :     0.090150  p :     0.169702
      px      :     0.036997
      py      :     0.042555
 11 H s       :     0.678544  s :     0.678544
      pz      :     0.031040  p :     0.173283
      px      :     0.084477
      py      :     0.057766
 12 O s       :     3.452734  s :     3.452734
      pz      :     1.548750  p :     4.799328
      px      :     1.724152
      py      :     1.526425
      dz2     :     0.015154  d :     0.031846
      dxz     :     0.001783
      dyz     :     0.001663
      dx2y2   :     0.003771
      dxy     :     0.009475
      f0      :     0.000396  f :     0.002109
      f+1     :     0.000334
      f-1     :     0.000558
      f+2     :     0.000020
      f-2     :     0.000045
      f+3     :     0.000729
      f-3     :     0.000026
 13 H s       :     0.660658  s :     0.660658
      pz      :     0.095638  p :     0.172376
      px      :     0.040991
      py      :     0.035747
 14 H s       :     0.676532  s :     0.676532
      pz      :     0.031518  p :     0.158221
      px      :     0.054898
      py      :     0.071805
 15 O s       :     3.468107  s :     3.468107
      pz      :     1.712751  p :     4.817911
      px      :     1.744315
      py      :     1.360845
      dz2     :     0.005012  d :     0.031541
      dxz     :     0.005409
      dyz     :     0.006939
      dx2y2   :     0.004389
      dxy     :     0.009791
      f0      :     0.000078  f :     0.002084
      f+1     :     0.000274
      f-1     :     0.000460
      f+2     :     0.000033
      f-2     :     0.000609
      f+3     :     0.000539
      f-3     :     0.000091
 16 H s       :     0.670736  s :     0.670736
      pz      :     0.066387  p :     0.163535
      px      :     0.052723
      py      :     0.044425
 17 H s       :     0.661729  s :     0.661729
      pz      :     0.033307  p :     0.148244
      px      :     0.043504
      py      :     0.071433
 18 O s       :     3.467047  s :     3.467047
      pz      :     1.499064  p :     4.850440
      px      :     1.795158
      py      :     1.556218
      dz2     :     0.016488  d :     0.031353
      dxz     :     0.002392
      dyz     :     0.002316
      dx2y2   :     0.001938
      dxy     :     0.008219
      f0      :     0.000517  f :     0.002107
      f+1     :     0.000313
      f-1     :     0.000580
      f+2     :     0.000025
      f-2     :     0.000051
      f+3     :     0.000620
      f-3     :     0.000002
 19 H s       :     0.689105  s :     0.689105
      pz      :     0.078664  p :     0.158329
      px      :     0.042917
      py      :     0.036748
 20 H s       :     0.667051  s :     0.667051
      pz      :     0.029075  p :     0.175349
      px      :     0.058059
      py      :     0.088215


                      *****************************
                      * MAYER POPULATION ANALYSIS *
                      *****************************

  NA   - Mulliken gross atomic population
  ZA   - Total nuclear charge
  QA   - Mulliken gross atomic charge
  VA   - Mayer's total valence
  BVA  - Mayer's bonded valence
  FA   - Mayer's free valence

  ATOM       NA         ZA         QA         VA         BVA        FA
  0 O      8.7737     8.0000    -0.7737     1.6961     1.6961    -0.0000
  1 H      0.6542     1.0000     0.3458     0.8969     0.8969    -0.0000
  2 H      0.5879     1.0000     0.4121     0.8632     0.8632    -0.0000
  3 O      8.7598     8.0000    -0.7598     1.7129     1.7129    -0.0000
  4 H      0.6203     1.0000     0.3797     0.8911     0.8911    -0.0000
  5 H      0.6370     1.0000     0.3630     0.8873     0.8873    -0.0000
  6 O      8.7386     8.0000    -0.7386     1.7594     1.7594    -0.0000
  7 H      0.6227     1.0000     0.3773     0.8756     0.8756    -0.0000
  8 H      0.6181     1.0000     0.3819     0.8744     0.8744    -0.0000
  9 O      8.7497     8.0000    -0.7497     1.7349     1.7349     0.0000
 10 H      0.6242     1.0000     0.3758     0.8779     0.8779     0.0000
 11 H      0.6352     1.0000     0.3648     0.8983     0.8983     0.0000
 12 O      8.7316     8.0000    -0.7316     1.7515     1.7515    -0.0000
 13 H      0.5902     1.0000     0.4098     0.8606     0.8606    -0.0000
 14 H      0.6515     1.0000     0.3485     0.8973     0.8973     0.0000
 15 O      8.7278     8.0000    -0.7278     1.7622     1.7622    -0.0000
 16 H      0.6323     1.0000     0.3677     0.8805     0.8805    -0.0000
 17 H      0.6263     1.0000     0.3737     0.8736     0.8736    -0.0000
 18 O      8.7359     8.0000    -0.7359     1.7343     1.7343    -0.0000
 19 H      0.6741     1.0000     0.3259     0.9080     0.9080    -0.0000
 20 H      0.6089     1.0000     0.3911     0.8871     0.8871    -0.0000

  Mayer bond orders larger than 0.100000
B(  0-O ,  1-H ) :   0.8883 B(  0-O ,  2-H ) :   0.7903 B(  3-O ,  4-H ) :   0.8284 
B(  3-O ,  5-H ) :   0.8772 B(  6-O ,  7-H ) :   0.8637 B(  6-O ,  8-H ) :   0.8550 
B(  9-O , 10-H ) :   0.8673 B(  9-O , 11-H ) :   0.8624 B( 12-O , 13-H ) :   0.8227 
B( 12-O , 14-H ) :   0.8842 B( 15-O , 16-H ) :   0.8731 B( 15-O , 17-H ) :   0.8648 
B( 18-O , 19-H ) :   0.9029 B( 18-O , 20-H ) :   0.8277 

-------
TIMINGS
-------

Total SCF time: 0 days 0 hours 0 min 22 sec 

Total time                  ....      22.647 sec
Sum of individual times     ....      21.901 sec  ( 96.7%)

Fock matrix formation       ....      20.408 sec  ( 90.1%)
Diagonalization             ....       0.402 sec  (  1.8%)
Density matrix formation    ....       0.210 sec  (  0.9%)
Population analysis         ....       0.028 sec  (  0.1%)
Initial guess               ....       0.304 sec  (  1.3%)
Orbital Transformation      ....       0.000 sec  (  0.0%)
Orbital Orthonormalization  ....       0.000 sec  (  0.0%)
DIIS solution               ....       0.175 sec  (  0.8%)
SOSCF solution              ....       0.270 sec  (  1.2%)


           ************************************************************
           *        Program running with 6 parallel MPI-processes     *
           *              working on a common directory               *
           ************************************************************

------------------------------------------------------------------------------
                                ORCA  MP2 
------------------------------------------------------------------------------

Freezing NCore=14 chemical core electrons
MP2 will be done in the AO integral direct mode
The Q1-step will be done using symmetric double matrices
Dimension of the basis                    ...  301
Memory devoted for MP2                    ... 8000 MB   
Memory needed for all in one shot         ...  523 MB
Number of MOs that can be treated together...   75      
MP2 density construction                  ... relaxed
The MP2 gradient is requested => amplitudes will be stored on disk
Total number of MOs              ...   28
Number of MOs treated per batch  ...    5 
Number of batches necessary      ...    1 
OPERATORS   0/  0 PASS   0
-----------------------------------------------
 MP2 CORRELATION ENERGY   :     -1.807303681 Eh
-----------------------------------------------


---------------------
MP2 DENSITY FORMATION
---------------------

Completing the external part of the density      ... done
Storing the unrelaxed density                    ... done

Calculating G(D)                                 ... done
Completing the Lagrangian                        ... done
Solving the Z-vector equations                   ... 

------------------------------------------------------------------------------
                           ORCA CP-SCF CALCULATION
------------------------------------------------------------------------------

Input orbitals are from        ... 12h2o.su.etal.mol1,5,6,8,9,10,11-orca.engrad-mp2.def2tzvp.frozencore.gbw
Input Perturbation             ... 12h2o.su.etal.mol1,5,6,8,9,10,11-orca.engrad-mp2.def2tzvp.frozencore.pin.tmp
Wavefunction output            ... 12h2o.su.etal.mol1,5,6,8,9,10,11-orca.engrad-mp2.def2tzvp.frozencore.pout.tmp
Perturbation mode              ... Real perturbation (singlet)
Solver                         ... POPLE
Max. number of iterations      ... 128
Convergence tolerance          ... 1.000e-08
Integral handling              ... Direct
Number of perturbations        ... 1
Number of operators            ... 1
Orbital ranges used for CP-SCF:
 Operator 0:  Orbitals   0... 34  to  35...300
Variables per vector in CP-SCF ... 9310
Number of vectors sought       ... 1
     CP-SCF ITERATION   0: 
     CP-SCF ITERATION   1:      0.000884689866
     CP-SCF ITERATION   2:      0.000021740080
     CP-SCF ITERATION   3:      0.000000730202
     CP-SCF ITERATION   4:      0.000000088707
     CP-SCF ITERATION   5:      0.000000008531
                                                 ... done
Finalizing the relaxed density                   ... done
Transforming P to the AO basis                   ... done
Storing the relaxed density                      ... done

------------------------------------
ENERGY WEIGHTED DENSITY FINALIZATION
------------------------------------

Gathering the parts of the W-matrix              ...                                                      done
Forming the Z-density                            ... done
Transforming Z to the AO basis                   ... done
Calculating G(Z)                                 ... done
Finalizing the W-matrix                          ...                                                      done
Transforming W to the AO basis and storing       ... done

                *********************************************
                * UNRELAXED MP2 DENSITY POPULATION ANALYSIS *
                *********************************************

------------------------------------------------------------------------------
                           ORCA POPULATION ANALYSIS
------------------------------------------------------------------------------
Input electron density              ... 12h2o.su.etal.mol1,5,6,8,9,10,11-orca.engrad-mp2.def2tzvp.frozencore.pmp2ur
BaseName (.gbw .S,...)              ... 12h2o.su.etal.mol1,5,6,8,9,10,11-orca.engrad-mp2.def2tzvp.frozencore

                    ********************************
                    * MULLIKEN POPULATION ANALYSIS *
                    ********************************

-----------------------
MULLIKEN ATOMIC CHARGES
-----------------------
   0 O :   -0.767430
   1 H :    0.343522
   2 H :    0.407497
   3 O :   -0.753892
   4 H :    0.375387
   5 H :    0.360675
   6 O :   -0.732468
   7 H :    0.374855
   8 H :    0.378933
   9 O :   -0.743983
  10 H :    0.372966
  11 H :    0.361588
  12 O :   -0.724889
  13 H :    0.406789
  14 H :    0.345834
  15 O :   -0.722414
  16 H :    0.365522
  17 H :    0.370972
  18 O :   -0.730398
  19 H :    0.323460
  20 H :    0.387472
Sum of atomic charges:   -0.0000000

--------------------------------
MULLIKEN REDUCED ORBITAL CHARGES
--------------------------------
  0 O s       :     3.802233  s :     3.802233
      pz      :     1.720584  p :     4.910808
      px      :     1.422523
      py      :     1.767702
      dz2     :     0.009591  d :     0.050382
      dxz     :     0.010315
      dyz     :     0.010671
      dx2y2   :     0.007924
      dxy     :     0.011880
      f0      :     0.000459  f :     0.004007
      f+1     :     0.000699
      f-1     :     0.000541
      f+2     :     0.000432
      f-2     :     0.000721
      f+3     :     0.000458
      f-3     :     0.000696
  1 H s       :     0.609062  s :     0.609062
      pz      :     0.017688  p :     0.047416
      px      :     0.014118
      py      :     0.015610
  2 H s       :     0.534717  s :     0.534717
      pz      :     0.011330  p :     0.057786
      px      :     0.032579
      py      :     0.013877
  3 O s       :     3.802140  s :     3.802140
      pz      :     1.538213  p :     4.897379
      px      :     1.868546
      py      :     1.490620
      dz2     :     0.015465  d :     0.050334
      dxz     :     0.007911
      dyz     :     0.007931
      dx2y2   :     0.008426
      dxy     :     0.010601
      f0      :     0.000589  f :     0.004038
      f+1     :     0.000497
      f-1     :     0.000805
      f+2     :     0.000442
      f-2     :     0.000405
      f+3     :     0.000813
      f-3     :     0.000487
  4 H s       :     0.569384  s :     0.569384
      pz      :     0.009986  p :     0.055229
      px      :     0.016593
      py      :     0.028650
  5 H s       :     0.592987  s :     0.592987
      pz      :     0.018805  p :     0.046338
      px      :     0.014818
      py      :     0.012715
  6 O s       :     3.800359  s :     3.800359
      pz      :     1.561653  p :     4.875821
      px      :     1.474774
      py      :     1.839393
      dz2     :     0.016647  d :     0.052275
      dxz     :     0.008118
      dyz     :     0.007867
      dx2y2   :     0.009114
      dxy     :     0.010528
      f0      :     0.000569  f :     0.004012
      f+1     :     0.000821
      f-1     :     0.000493
      f+2     :     0.000434
      f-2     :     0.000404
      f+3     :     0.000478
      f-3     :     0.000813
  7 H s       :     0.579882  s :     0.579882
      pz      :     0.019297  p :     0.045263
      px      :     0.011969
      py      :     0.013997
  8 H s       :     0.578092  s :     0.578092
      pz      :     0.009788  p :     0.042975
      px      :     0.018767
      py      :     0.014420
  9 O s       :     3.801342  s :     3.801342
      pz      :     1.529422  p :     4.886736
      px      :     1.549394
      py      :     1.807920
      dz2     :     0.016740  d :     0.051882
      dxz     :     0.006704
      dyz     :     0.008432
      dx2y2   :     0.007613
      dxy     :     0.012393
      f0      :     0.000636  f :     0.004023
      f+1     :     0.000739
      f-1     :     0.000535
      f+2     :     0.000416
      f-2     :     0.000421
      f+3     :     0.000434
      f-3     :     0.000841
 10 H s       :     0.576802  s :     0.576802
      pz      :     0.023532  p :     0.050232
      px      :     0.012494
      py      :     0.014206
 11 H s       :     0.586122  s :     0.586122
      pz      :     0.011148  p :     0.052290
      px      :     0.023844
      py      :     0.017298
 12 O s       :     3.792481  s :     3.792481
      pz      :     1.572730  p :     4.876133
      px      :     1.771407
      py      :     1.531997
      dz2     :     0.017078  d :     0.052281
      dxz     :     0.007978
      dyz     :     0.006620
      dx2y2   :     0.008105
      dxy     :     0.012501
      f0      :     0.000609  f :     0.003993
      f+1     :     0.000535
      f-1     :     0.000751
      f+2     :     0.000414
      f-2     :     0.000423
      f+3     :     0.000835
      f-3     :     0.000426
 13 H s       :     0.544086  s :     0.544086
      pz      :     0.025248  p :     0.049125
      px      :     0.012360
      py      :     0.011517
 14 H s       :     0.608568  s :     0.608568
      pz      :     0.011556  p :     0.045599
      px      :     0.015611
      py      :     0.018432
 15 O s       :     3.803369  s :     3.803369
      pz      :     1.726525  p :     4.863624
      px      :     1.772818
      py      :     1.364282
      dz2     :     0.009694  d :     0.051352
      dxz     :     0.010932
      dyz     :     0.010153
      dx2y2   :     0.008054
      dxy     :     0.012519
      f0      :     0.000462  f :     0.004069
      f+1     :     0.000551
      f-1     :     0.000710
      f+2     :     0.000431
      f-2     :     0.000722
      f+3     :     0.000730
      f-3     :     0.000463
 16 H s       :     0.587631  s :     0.587631
      pz      :     0.017639  p :     0.046847
      px      :     0.015485
      py      :     0.013723
 17 H s       :     0.586328  s :     0.586328
      pz      :     0.011842  p :     0.042700
      px      :     0.012960
      py      :     0.017898
 18 O s       :     3.805222  s :     3.805222
      pz      :     1.474785  p :     4.869317
      px      :     1.814093
      py      :     1.580440
      dz2     :     0.017003  d :     0.051826
      dxz     :     0.008338
      dyz     :     0.006695
      dx2y2   :     0.007506
      dxy     :     0.012284
      f0      :     0.000647  f :     0.004033
      f+1     :     0.000536
      f-1     :     0.000744
      f+2     :     0.000414
      f-2     :     0.000420
      f+3     :     0.000838
      f-3     :     0.000432
 19 H s       :     0.629649  s :     0.629649
      pz      :     0.018633  p :     0.046892
      px      :     0.014976
      py      :     0.013283
 20 H s       :     0.560987  s :     0.560987
      pz      :     0.010247  p :     0.051541
      px      :     0.016643
      py      :     0.024650


                     *******************************
                     * LOEWDIN POPULATION ANALYSIS *
                     *******************************

----------------------
LOEWDIN ATOMIC CHARGES
----------------------
   0 O :   -0.344055
   1 H :    0.151964
   2 H :    0.153756
   3 O :   -0.341355
   4 H :    0.148533
   5 H :    0.168607
   6 O :   -0.279540
   7 H :    0.174049
   8 H :    0.182644
   9 O :   -0.352145
  10 H :    0.149204
  11 H :    0.146057
  12 O :   -0.281694
  13 H :    0.165111
  14 H :    0.163569
  15 O :   -0.315985
  16 H :    0.164634
  17 H :    0.188354
  18 O :   -0.348097
  19 H :    0.150977
  20 H :    0.155413

-------------------------------
LOEWDIN REDUCED ORBITAL CHARGES
-------------------------------
  0 O s       :     3.457378  s :     3.457378
      pz      :     1.698864  p :     4.824395
      px      :     1.392825
      py      :     1.732706
      dz2     :     0.010000  d :     0.057534
      dxz     :     0.012772
      dyz     :     0.011160
      dx2y2   :     0.009406
      dxy     :     0.014197
      f0      :     0.000455  f :     0.004748
      f+1     :     0.000851
      f-1     :     0.000648
      f+2     :     0.000410
      f-2     :     0.001033
      f+3     :     0.000474
      f-3     :     0.000878
  1 H s       :     0.679988  s :     0.679988
      pz      :     0.067155  p :     0.168048
      px      :     0.046917
      py      :     0.053976
  2 H s       :     0.647829  s :     0.647829
      pz      :     0.034202  p :     0.198416
      px      :     0.115979
      py      :     0.048235
  3 O s       :     3.457597  s :     3.457597
      pz      :     1.519766  p :     4.820864
      px      :     1.829133
      py      :     1.471965
      dz2     :     0.020127  d :     0.058096
      dxz     :     0.007130
      dyz     :     0.009429
      dx2y2   :     0.009477
      dxy     :     0.011934
      f0      :     0.000809  f :     0.004798
      f+1     :     0.000575
      f-1     :     0.001164
      f+2     :     0.000417
      f-2     :     0.000417
      f+3     :     0.000972
      f-3     :     0.000444
  4 H s       :     0.664353  s :     0.664353
      pz      :     0.030134  p :     0.187113
      px      :     0.053461
      py      :     0.103518
  5 H s       :     0.669500  s :     0.669500
      pz      :     0.080996  p :     0.161893
      px      :     0.043738
      py      :     0.037159
  6 O s       :     3.457734  s :     3.457734
      pz      :     1.528387  p :     4.755782
      px      :     1.450926
      py      :     1.776469
      dz2     :     0.021700  d :     0.061161
      dxz     :     0.009423
      dyz     :     0.006977
      dx2y2   :     0.010933
      dxy     :     0.012128
      f0      :     0.000787  f :     0.004863
      f+1     :     0.001179
      f-1     :     0.000596
      f+2     :     0.000413
      f-2     :     0.000417
      f+3     :     0.000452
      f-3     :     0.001020
  7 H s       :     0.663862  s :     0.663862
      pz      :     0.082351  p :     0.162089
      px      :     0.036239
      py      :     0.043499
  8 H s       :     0.659983  s :     0.659983
      pz      :     0.029926  p :     0.157374
      px      :     0.077412
      py      :     0.050036
  9 O s       :     3.457528  s :     3.457528
      pz      :     1.517149  p :     4.831105
      px      :     1.533031
      py      :     1.780925
      dz2     :     0.021113  d :     0.058690
      dxz     :     0.007383
      dyz     :     0.007743
      dx2y2   :     0.007663
      dxy     :     0.014788
      f0      :     0.000882  f :     0.004822
      f+1     :     0.000973
      f-1     :     0.000704
      f+2     :     0.000388
      f-2     :     0.000420
      f+3     :     0.000377
      f-3     :     0.001078
 10 H s       :     0.678025  s :     0.678025
      pz      :     0.091597  p :     0.172771
      px      :     0.037787
      py      :     0.043387
 11 H s       :     0.677650  s :     0.677650
      pz      :     0.031820  p :     0.176292
      px      :     0.085732
      py      :     0.058741
 12 O s       :     3.448924  s :     3.448924
      pz      :     1.539070  p :     4.767653
      px      :     1.711711
      py      :     1.516872
      dz2     :     0.021044  d :     0.060214
      dxz     :     0.007329
      dyz     :     0.007069
      dx2y2   :     0.009393
      dxy     :     0.015379
      f0      :     0.000821  f :     0.004903
      f+1     :     0.000736
      f-1     :     0.000981
      f+2     :     0.000389
      f-2     :     0.000420
      f+3     :     0.001150
      f-3     :     0.000406
 13 H s       :     0.659891  s :     0.659891
      pz      :     0.096792  p :     0.174998
      px      :     0.041760
      py      :     0.036446
 14 H s       :     0.674979  s :     0.674979
      pz      :     0.032296  p :     0.161451
      px      :     0.055959
      py      :     0.073197
 15 O s       :     3.464341  s :     3.464341
      pz      :     1.702177  p :     4.787392
      px      :     1.732376
      py      :     1.352840
      dz2     :     0.010528  d :     0.059422
      dxz     :     0.011088
      dyz     :     0.012442
      dx2y2   :     0.009928
      dxy     :     0.015435
      f0      :     0.000455  f :     0.004831
      f+1     :     0.000659
      f-1     :     0.000868
      f+2     :     0.000407
      f-2     :     0.001015
      f+3     :     0.000952
      f-3     :     0.000475
 16 H s       :     0.668888  s :     0.668888
      pz      :     0.067557  p :     0.166479
      px      :     0.053690
      py      :     0.045231
 17 H s       :     0.660378  s :     0.660378
      pz      :     0.034128  p :     0.151268
      px      :     0.044481
      py      :     0.072659
 18 O s       :     3.463372  s :     3.463372
      pz      :     1.489827  p :     4.820681
      px      :     1.784009
      py      :     1.546846
      dz2     :     0.022230  d :     0.059181
      dxz     :     0.007782
      dyz     :     0.007649
      dx2y2   :     0.007464
      dxy     :     0.014057
      f0      :     0.000933  f :     0.004862
      f+1     :     0.000705
      f-1     :     0.001000
      f+2     :     0.000388
      f-2     :     0.000423
      f+3     :     0.001035
      f-3     :     0.000377
 19 H s       :     0.687230  s :     0.687230
      pz      :     0.080466  p :     0.161793
      px      :     0.043760
      py      :     0.037567
 20 H s       :     0.666541  s :     0.666541
      pz      :     0.029795  p :     0.178046
      px      :     0.058936
      py      :     0.089315


                      *****************************
                      * MAYER POPULATION ANALYSIS *
                      *****************************

  NA   - Mulliken gross atomic population
  ZA   - Total nuclear charge
  QA   - Mulliken gross atomic charge
  VA   - Mayer's total valence
  BVA  - Mayer's bonded valence
  FA   - Mayer's free valence

  ATOM       NA         ZA         QA         VA         BVA        FA
  0 O      8.7674     8.0000    -0.7674     2.0122     1.6182     0.3940
  1 H      0.6565     1.0000     0.3435     0.9028     0.8557     0.0471
  2 H      0.5925     1.0000     0.4075     0.8706     0.8257     0.0449
  3 O      8.7539     8.0000    -0.7539     2.0263     1.6340     0.3923
  4 H      0.6246     1.0000     0.3754     0.8988     0.8517     0.0471
  5 H      0.6393     1.0000     0.3607     0.8930     0.8467     0.0463
  6 O      8.7325     8.0000    -0.7325     2.0714     1.6796     0.3918
  7 H      0.6251     1.0000     0.3749     0.8812     0.8358     0.0454
  8 H      0.6211     1.0000     0.3789     0.8807     0.8342     0.0465
  9 O      8.7440     8.0000    -0.7440     2.0460     1.6558     0.3902
 10 H      0.6270     1.0000     0.3730     0.8840     0.8387     0.0453
 11 H      0.6384     1.0000     0.3616     0.9050     0.8586     0.0464
 12 O      8.7249     8.0000    -0.7249     2.0611     1.6726     0.3885
 13 H      0.5932     1.0000     0.4068     0.8664     0.8239     0.0425
 14 H      0.6542     1.0000     0.3458     0.9036     0.8555     0.0481
 15 O      8.7224     8.0000    -0.7224     2.0714     1.6819     0.3895
 16 H      0.6345     1.0000     0.3655     0.8860     0.8412     0.0448
 17 H      0.6290     1.0000     0.3710     0.8795     0.8323     0.0472
 18 O      8.7304     8.0000    -0.7304     2.0441     1.6545     0.3896
 19 H      0.6765     1.0000     0.3235     0.9143     0.8647     0.0496
 20 H      0.6125     1.0000     0.3875     0.8939     0.8493     0.0446

  Mayer bond orders larger than 0.100000
B(  0-O ,  1-H ) :   0.8477 B(  0-O ,  2-H ) :   0.7548 B(  3-O ,  4-H ) :   0.7906 
B(  3-O ,  5-H ) :   0.8373 B(  6-O ,  7-H ) :   0.8247 B(  6-O ,  8-H ) :   0.8157 
B(  9-O , 10-H ) :   0.8283 B(  9-O , 11-H ) :   0.8236 B( 12-O , 13-H ) :   0.7873 
B( 12-O , 14-H ) :   0.8431 B( 15-O , 16-H ) :   0.8344 B( 15-O , 17-H ) :   0.8241 
B( 18-O , 19-H ) :   0.8600 B( 18-O , 20-H ) :   0.7917 


                *******************************************
                * RELAXED MP2 DENSITY POPULATION ANALYSIS *
                *******************************************

------------------------------------------------------------------------------
                           ORCA POPULATION ANALYSIS
------------------------------------------------------------------------------
Input electron density              ... 12h2o.su.etal.mol1,5,6,8,9,10,11-orca.engrad-mp2.def2tzvp.frozencore.pmp2re
BaseName (.gbw .S,...)              ... 12h2o.su.etal.mol1,5,6,8,9,10,11-orca.engrad-mp2.def2tzvp.frozencore

                    ********************************
                    * MULLIKEN POPULATION ANALYSIS *
                    ********************************

-----------------------
MULLIKEN ATOMIC CHARGES
-----------------------
   0 O :   -0.741209
   1 H :    0.337127
   2 H :    0.385054
   3 O :   -0.730556
   4 H :    0.354515
   5 H :    0.352238
   6 O :   -0.707096
   7 H :    0.366713
   8 H :    0.369175
   9 O :   -0.722105
  10 H :    0.362100
  11 H :    0.345974
  12 O :   -0.697485
  13 H :    0.392471
  14 H :    0.338838
  15 O :   -0.703098
  16 H :    0.358811
  17 H :    0.364370
  18 O :   -0.711382
  19 H :    0.317925
  20 H :    0.367620
Sum of atomic charges:   -0.0000000

--------------------------------
MULLIKEN REDUCED ORBITAL CHARGES
--------------------------------
  0 O s       :     3.803172  s :     3.803172
      pz      :     1.716068  p :     4.885514
      px      :     1.416886
      py      :     1.752560
      dz2     :     0.009404  d :     0.048583
      dxz     :     0.009752
      dyz     :     0.010387
      dx2y2   :     0.007786
      dxy     :     0.011254
      f0      :     0.000457  f :     0.003940
      f+1     :     0.000683
      f-1     :     0.000533
      f+2     :     0.000431
      f-2     :     0.000702
      f+3     :     0.000456
      f-3     :     0.000678
  1 H s       :     0.614678  s :     0.614678
      pz      :     0.017830  p :     0.048196
      px      :     0.014117
      py      :     0.016248
  2 H s       :     0.557022  s :     0.557022
      pz      :     0.012054  p :     0.057924
      px      :     0.031544
      py      :     0.014326
  3 O s       :     3.803431  s :     3.803431
      pz      :     1.527307  p :     4.874864
      px      :     1.862552
      py      :     1.485006
      dz2     :     0.014324  d :     0.048291
      dxz     :     0.007922
      dyz     :     0.007652
      dx2y2   :     0.008229
      dxy     :     0.010165
      f0      :     0.000577  f :     0.003970
      f+1     :     0.000491
      f-1     :     0.000776
      f+2     :     0.000442
      f-2     :     0.000403
      f+3     :     0.000795
      f-3     :     0.000486
  4 H s       :     0.589793  s :     0.589793
      pz      :     0.010696  p :     0.055692
      px      :     0.017193
      py      :     0.027803
  5 H s       :     0.600758  s :     0.600758
      pz      :     0.018068  p :     0.047004
      px      :     0.015764
      py      :     0.013173
  6 O s       :     3.803741  s :     3.803741
      pz      :     1.554168  p :     4.849293
      px      :     1.470380
      py      :     1.824744
      dz2     :     0.015448  d :     0.050124
      dxz     :     0.007838
      dyz     :     0.007927
      dx2y2   :     0.008839
      dxy     :     0.010071
      f0      :     0.000555  f :     0.003938
      f+1     :     0.000791
      f-1     :     0.000488
      f+2     :     0.000433
      f-2     :     0.000403
      f+3     :     0.000477
      f-3     :     0.000791
  7 H s       :     0.587409  s :     0.587409
      pz      :     0.018574  p :     0.045878
      px      :     0.012372
      py      :     0.014932
  8 H s       :     0.587260  s :     0.587260
      pz      :     0.010500  p :     0.043565
      px      :     0.017976
      py      :     0.015089
  9 O s       :     3.799802  s :     3.799802
      pz      :     1.524698  p :     4.868442
      px      :     1.543554
      py      :     1.800190
      dz2     :     0.015527  d :     0.049908
      dxz     :     0.006671
      dyz     :     0.008407
      dx2y2   :     0.007564
      dxy     :     0.011739
      f0      :     0.000621  f :     0.003953
      f+1     :     0.000718
      f-1     :     0.000526
      f+2     :     0.000416
      f-2     :     0.000420
      f+3     :     0.000435
      f-3     :     0.000818
 10 H s       :     0.587134  s :     0.587134
      pz      :     0.022641  p :     0.050766
      px      :     0.012994
      py      :     0.015131
 11 H s       :     0.601079  s :     0.601079
      pz      :     0.011849  p :     0.052947
      px      :     0.023334
      py      :     0.017764
 12 O s       :     3.792064  s :     3.792064
      pz      :     1.570015  p :     4.851192
      px      :     1.755538
      py      :     1.525638
      dz2     :     0.015912  d :     0.050310
      dxz     :     0.007966
      dyz     :     0.006596
      dx2y2   :     0.008037
      dxy     :     0.011799
      f0      :     0.000592  f :     0.003919
      f+1     :     0.000525
      f-1     :     0.000729
      f+2     :     0.000414
      f-2     :     0.000421
      f+3     :     0.000810
      f-3     :     0.000426
 13 H s       :     0.558073  s :     0.558073
      pz      :     0.024450  p :     0.049456
      px      :     0.013079
      py      :     0.011927
 14 H s       :     0.614833  s :     0.614833
      pz      :     0.012299  p :     0.046330
      px      :     0.016175
      py      :     0.017856
 15 O s       :     3.806962  s :     3.806962
      pz      :     1.720965  p :     4.842979
      px      :     1.760522
      py      :     1.361492
      dz2     :     0.009417  d :     0.049162
      dxz     :     0.010672
      dyz     :     0.009581
      dx2y2   :     0.007790
      dxy     :     0.011702
      f0      :     0.000459  f :     0.003995
      f+1     :     0.000543
      f-1     :     0.000692
      f+2     :     0.000430
      f-2     :     0.000701
      f+3     :     0.000709
      f-3     :     0.000461
 16 H s       :     0.593666  s :     0.593666
      pz      :     0.017714  p :     0.047524
      px      :     0.016160
      py      :     0.013649
 17 H s       :     0.592363  s :     0.592363
      pz      :     0.012685  p :     0.043266
      px      :     0.013656
      py      :     0.016925
 18 O s       :     3.806182  s :     3.806182
      pz      :     1.467850  p :     4.851526
      px      :     1.805994
      py      :     1.577682
      dz2     :     0.015628  d :     0.049715
      dxz     :     0.008307
      dyz     :     0.006632
      dx2y2   :     0.007456
      dxy     :     0.011692
      f0      :     0.000629  f :     0.003959
      f+1     :     0.000527
      f-1     :     0.000723
      f+2     :     0.000415
      f-2     :     0.000419
      f+3     :     0.000815
      f-3     :     0.000432
 19 H s       :     0.634303  s :     0.634303
      pz      :     0.017870  p :     0.047771
      px      :     0.015981
      py      :     0.013921
 20 H s       :     0.580365  s :     0.580365
      pz      :     0.010841  p :     0.052015
      px      :     0.017040
      py      :     0.024134


                     *******************************
                     * LOEWDIN POPULATION ANALYSIS *
                     *******************************

----------------------
LOEWDIN ATOMIC CHARGES
----------------------
   0 O :   -0.340534
   1 H :    0.153866
   2 H :    0.146278
   3 O :   -0.340108
   4 H :    0.142037
   5 H :    0.169757
   6 O :   -0.272627
   7 H :    0.174875
   8 H :    0.182542
   9 O :   -0.351379
  10 H :    0.146771
  11 H :    0.142257
  12 O :   -0.275146
  13 H :    0.161427
  14 H :    0.164800
  15 O :   -0.314056
  16 H :    0.166327
  17 H :    0.189721
  18 O :   -0.349235
  19 H :    0.152703
  20 H :    0.149725

-------------------------------
LOEWDIN REDUCED ORBITAL CHARGES
-------------------------------
  0 O s       :     3.458789  s :     3.458789
      pz      :     1.698520  p :     4.820028
      px      :     1.396692
      py      :     1.724815
      dz2     :     0.009982  d :     0.056932
      dxz     :     0.012416
      dyz     :     0.011098
      dx2y2   :     0.009427
      dxy     :     0.014009
      f0      :     0.000457  f :     0.004785
      f+1     :     0.000863
      f-1     :     0.000649
      f+2     :     0.000410
      f-2     :     0.001035
      f+3     :     0.000479
      f-3     :     0.000893
  1 H s       :     0.678010  s :     0.678010
      pz      :     0.067230  p :     0.168124
      px      :     0.046559
      py      :     0.054335
  2 H s       :     0.655187  s :     0.655187
      pz      :     0.034878  p :     0.198535
      px      :     0.115050
      py      :     0.048607
  3 O s       :     3.458646  s :     3.458646
      pz      :     1.518285  p :     4.819354
      px      :     1.826809
      py      :     1.474260
      dz2     :     0.019654  d :     0.057277
      dxz     :     0.007183
      dyz     :     0.009214
      dx2y2   :     0.009421
      dxy     :     0.011804
      f0      :     0.000811  f :     0.004831
      f+1     :     0.000576
      f-1     :     0.001176
      f+2     :     0.000419
      f-2     :     0.000415
      f+3     :     0.000986
      f-3     :     0.000447
  4 H s       :     0.670160  s :     0.670160
      pz      :     0.030487  p :     0.187803
      px      :     0.054229
      py      :     0.103086
  5 H s       :     0.668402  s :     0.668402
      pz      :     0.080085  p :     0.161841
      px      :     0.044604
      py      :     0.037152
  6 O s       :     3.459422  s :     3.459422
      pz      :     1.527640  p :     4.748095
      px      :     1.453805
      py      :     1.766650
      dz2     :     0.021210  d :     0.060227
      dxz     :     0.009202
      dyz     :     0.007068
      dx2y2   :     0.010813
      dxy     :     0.011935
      f0      :     0.000786  f :     0.004883
      f+1     :     0.001187
      f-1     :     0.000598
      f+2     :     0.000415
      f-2     :     0.000415
      f+3     :     0.000455
      f-3     :     0.001027
  7 H s       :     0.663154  s :     0.663154
      pz      :     0.081607  p :     0.161972
      px      :     0.036094
      py      :     0.044271
  8 H s       :     0.660275  s :     0.660275
      pz      :     0.030335  p :     0.157184
      px      :     0.076266
      py      :     0.050583
  9 O s       :     3.458359  s :     3.458359
      pz      :     1.517853  p :     4.830456
      px      :     1.534184
      py      :     1.778419
      dz2     :     0.020537  d :     0.057719
      dxz     :     0.007266
      dyz     :     0.007774
      dx2y2   :     0.007629
      dxy     :     0.014513
      f0      :     0.000886  f :     0.004845
      f+1     :     0.000981
      f-1     :     0.000703
      f+2     :     0.000390
      f-2     :     0.000420
      f+3     :     0.000376
      f-3     :     0.001088
 10 H s       :     0.680033  s :     0.680033
      pz      :     0.090697  p :     0.173196
      px      :     0.038237
      py      :     0.044262
 11 H s       :     0.680731  s :     0.680731
      pz      :     0.032290  p :     0.177012
      px      :     0.085421
      py      :     0.059301
 12 O s       :     3.449680  s :     3.449680
      pz      :     1.540695  p :     4.761197
      px      :     1.701911
      py      :     1.518591
      dz2     :     0.020529  d :     0.059347
      dxz     :     0.007374
      dyz     :     0.006970
      dx2y2   :     0.009432
      dxy     :     0.015042
      f0      :     0.000824  f :     0.004922
      f+1     :     0.000737
      f-1     :     0.000987
      f+2     :     0.000390
      f-2     :     0.000420
      f+3     :     0.001156
      f-3     :     0.000408
 13 H s       :     0.663577  s :     0.663577
      pz      :     0.095918  p :     0.174997
      px      :     0.042342
      py      :     0.036736
 14 H s       :     0.673504  s :     0.673504
      pz      :     0.032784  p :     0.161696
      px      :     0.056381
      py      :     0.072531
 15 O s       :     3.466024  s :     3.466024
      pz      :     1.701470  p :     4.784951
      px      :     1.725406
      py      :     1.358075
      dz2     :     0.010368  d :     0.058232
      dxz     :     0.011052
      dyz     :     0.012073
      dx2y2   :     0.009723
      dxy     :     0.015016
      f0      :     0.000458  f :     0.004849
      f+1     :     0.000659
      f-1     :     0.000874
      f+2     :     0.000408
      f-2     :     0.001015
      f+3     :     0.000957
      f-3     :     0.000478
 16 H s       :     0.667441  s :     0.667441
      pz      :     0.067549  p :     0.166231
      px      :     0.054194
      py      :     0.044489
 17 H s       :     0.659083  s :     0.659083
      pz      :     0.034844  p :     0.151196
      px      :     0.045154
      py      :     0.071198
 18 O s       :     3.464954  s :     3.464954
      pz      :     1.491591  p :     4.821342
      px      :     1.780996
      py      :     1.548756
      dz2     :     0.021463  d :     0.058057
      dxz     :     0.007804
      dyz     :     0.007501
      dx2y2   :     0.007435
      dxy     :     0.013854
      f0      :     0.000933  f :     0.004882
      f+1     :     0.000703
      f-1     :     0.001009
      f+2     :     0.000390
      f-2     :     0.000423
      f+3     :     0.001047
      f-3     :     0.000377
 19 H s       :     0.684916  s :     0.684916
      pz      :     0.079849  p :     0.162381
      px      :     0.044661
      py      :     0.037871
 20 H s       :     0.671822  s :     0.671822
      pz      :     0.030089  p :     0.178453
      px      :     0.059396
      py      :     0.088968


                      *****************************
                      * MAYER POPULATION ANALYSIS *
                      *****************************

  NA   - Mulliken gross atomic population
  ZA   - Total nuclear charge
  QA   - Mulliken gross atomic charge
  VA   - Mayer's total valence
  BVA  - Mayer's bonded valence
  FA   - Mayer's free valence

  ATOM       NA         ZA         QA         VA         BVA        FA
  0 O      8.7412     8.0000    -0.7412     2.0393     1.6510     0.3883
  1 H      0.6629     1.0000     0.3371     0.9071     0.8599     0.0472
  2 H      0.6149     1.0000     0.3851     0.8978     0.8537     0.0441
  3 O      8.7306     8.0000    -0.7306     2.0453     1.6583     0.3870
  4 H      0.6455     1.0000     0.3545     0.9267     0.8807     0.0460
  5 H      0.6478     1.0000     0.3522     0.8998     0.8535     0.0463
  6 O      8.7071     8.0000    -0.7071     2.1142     1.7288     0.3854
  7 H      0.6333     1.0000     0.3667     0.8888     0.8436     0.0452
  8 H      0.6308     1.0000     0.3692     0.8928     0.8467     0.0461
  9 O      8.7221     8.0000    -0.7221     2.0649     1.6801     0.3849
 10 H      0.6379     1.0000     0.3621     0.8977     0.8525     0.0452
 11 H      0.6540     1.0000     0.3460     0.9266     0.8807     0.0459
 12 O      8.6975     8.0000    -0.6975     2.0977     1.7152     0.3824
 13 H      0.6075     1.0000     0.3925     0.8860     0.8438     0.0422
 14 H      0.6612     1.0000     0.3388     0.9110     0.8632     0.0479
 15 O      8.7031     8.0000    -0.7031     2.0954     1.7115     0.3839
 16 H      0.6412     1.0000     0.3588     0.8911     0.8464     0.0448
 17 H      0.6356     1.0000     0.3644     0.8856     0.8384     0.0472
 18 O      8.7114     8.0000    -0.7114     2.0554     1.6713     0.3842
 19 H      0.6821     1.0000     0.3179     0.9179     0.8681     0.0497
 20 H      0.6324     1.0000     0.3676     0.9222     0.8784     0.0438

  Mayer bond orders larger than 0.100000
B(  0-O ,  1-H ) :   0.8505 B(  0-O ,  2-H ) :   0.7553 B(  3-O ,  4-H ) :   0.7892 
B(  3-O ,  5-H ) :   0.8410 B(  6-O ,  7-H ) :   0.8280 B(  6-O ,  8-H ) :   0.8191 
B(  9-O , 10-H ) :   0.8334 B(  9-O , 11-H ) :   0.8267 B( 12-O , 13-H ) :   0.7916 
B( 12-O , 14-H ) :   0.8455 B( 15-O , 16-H ) :   0.8383 B( 15-O , 17-H ) :   0.8278 
B( 18-O , 19-H ) :   0.8628 B( 18-O , 20-H ) :   0.7950 


----------------------------------
MP2 DERIVATIVE INTEGRAL GENERATION
----------------------------------


Input Wavefunction Amplitudes       ... 12h2o.su.etal.mol1,5,6,8,9,10,11-orca.engrad-mp2.def2tzvp.frozencore.mp2tsaa.tmp
Input Correlated Electron Density   ... 12h2o.su.etal.mol1,5,6,8,9,10,11-orca.engrad-mp2.def2tzvp.frozencore.pmp2re
Input Energy Weighted Density       ... 12h2o.su.etal.mol1,5,6,8,9,10,11-orca.engrad-mp2.def2tzvp.frozencore.wmp2.tmp
Input SCF Electron Density          ... 12h2o.su.etal.mol1,5,6,8,9,10,11-orca.engrad-mp2.def2tzvp.frozencore.scfp

One-Electron Terms    ...
                        ... One-Electron Terms done
Prescreening matrices              ... done

Batch handling in the gradient evaluation:
Memory available                      ... 8000.0 MB
Memory per occupied orbital in Q2     ...   19.4 MB
Memory per occupied orbital in Q3     ...    0.1 MB
Total memory requirement per |i>      ...   19.5 MB
Max. Number of orbitals possible      ...    410
Number of orbitals treated per batch  ...     28
Number of batches to be done          ...      1
Batch   0: i=    7 ...    34

---------------------------------------
MP2 TOTAL ENERGY:     -534.245174508 Eh
---------------------------------------

The final MP2 gradient
  0:  -0.00717879  -0.00195819  -0.00184865
  1:  -0.00079670   0.00053311   0.00004530
  2:   0.01220893  -0.00158598   0.00070594
  3:  -0.00634906  -0.00353381   0.00674655
  4:   0.00455223   0.00888007   0.00421773
  5:   0.00117263  -0.00166565  -0.00948709
  6:   0.01416940  -0.00808473  -0.01380430
  7:   0.00023597  -0.00293815   0.00652387
  8:  -0.01387911   0.00508094   0.00138496
  9:   0.00316123  -0.00230826  -0.00480115
 10:   0.00068302   0.00124073   0.00843342
 11:  -0.00629998   0.00191344  -0.00093418
 12:  -0.00953572  -0.00900506  -0.00093829
 13:   0.00149558   0.00156888   0.00423805
 14:   0.00504529   0.00885109  -0.00186376
 15:   0.00750311   0.02732720  -0.00127622
 16:   0.00222436   0.00077068   0.00151933
 17:  -0.00841211  -0.02754975  -0.00099551
 18:  -0.00303193  -0.00231217   0.01130253
 19:   0.00175300   0.00218493  -0.01077435
 20:   0.00127867   0.00259069   0.00160582

-----------------------------------
NORM OF THE MP2 GRADIENT:  0.060241
-----------------------------------

-------------------------   --------------------
FINAL SINGLE POINT ENERGY      -534.245174508143
-------------------------   --------------------


                            ***************************************
                            *     ORCA property calculations      *
                            ***************************************

                                    ---------------------
                                    Active property flags
                                    ---------------------
   (+) Dipole Moment


------------------------------------------------------------------------------
                       ORCA ELECTRIC PROPERTIES CALCULATION
------------------------------------------------------------------------------

Dipole Moment Calculation                       ... on
Quadrupole Moment Calculation                   ... off
Polarizability Calculation                      ... off
GBWName                                         ... 12h2o.su.etal.mol1,5,6,8,9,10,11-orca.engrad-mp2.def2tzvp.frozencore.gbw
Electron density file                           ... 12h2o.su.etal.mol1,5,6,8,9,10,11-orca.engrad-mp2.def2tzvp.frozencore.scfp
The origin for moment calculation is the CENTER OF MASS  = ( 0.432508,  0.214060  0.769431)

-------------
DIPOLE MOMENT
-------------
                                X             Y             Z
Electronic contribution:      0.22040      -0.10182      -0.01196
Nuclear contribution   :     -0.82559       0.48587      -0.68611
                        -----------------------------------------
Total Dipole Moment    :     -0.60519       0.38404      -0.69807
                        -----------------------------------------
Magnitude (a.u.)       :      1.00052
Magnitude (Debye)      :      2.54312



--------------------
Rotational spectrum 
--------------------
 
Rotational constants in cm-1:     0.044063     0.018323     0.015855 
Rotational constants in MHz :  1320.970421   549.309955   475.329143 

 Dipole components along the rotational axes: 
x,y,z [a.u.] :    -0.640586     0.623465     0.449427 
x,y,z [Debye]:    -1.628240     1.584722     1.142354 

 

                         *** MP2 UNRELAXED DENSITY ***

------------------------------------------------------------------------------
                       ORCA ELECTRIC PROPERTIES CALCULATION
------------------------------------------------------------------------------

Dipole Moment Calculation                       ... on
Quadrupole Moment Calculation                   ... off
Polarizability Calculation                      ... off
GBWName                                         ... 12h2o.su.etal.mol1,5,6,8,9,10,11-orca.engrad-mp2.def2tzvp.frozencore.gbw
Electron density file                           ... 12h2o.su.etal.mol1,5,6,8,9,10,11-orca.engrad-mp2.def2tzvp.frozencore.pmp2ur
The origin for moment calculation is the CENTER OF MASS  = ( 0.432508,  0.214060  0.769431)

-------------
DIPOLE MOMENT
-------------
                                X             Y             Z
Electronic contribution:      0.22921      -0.10717      -0.00757
Nuclear contribution   :     -0.82559       0.48587      -0.68611
                        -----------------------------------------
Total Dipole Moment    :     -0.59638       0.37869      -0.69368
                        -----------------------------------------
Magnitude (a.u.)       :      0.99008
Magnitude (Debye)      :      2.51659



--------------------
Rotational spectrum 
--------------------
 
Rotational constants in cm-1:     0.044063     0.018323     0.015855 
Rotational constants in MHz :  1320.970421   549.309955   475.329143 

 Dipole components along the rotational axes: 
x,y,z [a.u.] :    -0.636693     0.614025     0.444814 
x,y,z [Debye]:    -1.618346     1.560727     1.130628 

 

                           *** MP2 RELAXED DENSITY ***

------------------------------------------------------------------------------
                       ORCA ELECTRIC PROPERTIES CALCULATION
------------------------------------------------------------------------------

Dipole Moment Calculation                       ... on
Quadrupole Moment Calculation                   ... off
Polarizability Calculation                      ... off
GBWName                                         ... 12h2o.su.etal.mol1,5,6,8,9,10,11-orca.engrad-mp2.def2tzvp.frozencore.gbw
Electron density file                           ... 12h2o.su.etal.mol1,5,6,8,9,10,11-orca.engrad-mp2.def2tzvp.frozencore.pmp2re
The origin for moment calculation is the CENTER OF MASS  = ( 0.432508,  0.214060  0.769431)

-------------
DIPOLE MOMENT
-------------
                                X             Y             Z
Electronic contribution:      0.23263      -0.10892      -0.01568
Nuclear contribution   :     -0.82559       0.48587      -0.68611
                        -----------------------------------------
Total Dipole Moment    :     -0.59295       0.37695      -0.70178
                        -----------------------------------------
Magnitude (a.u.)       :      0.99306
Magnitude (Debye)      :      2.52417



--------------------
Rotational spectrum 
--------------------
 
Rotational constants in cm-1:     0.044063     0.018323     0.015855 
Rotational constants in MHz :  1320.970421   549.309955   475.329143 

 Dipole components along the rotational axes: 
x,y,z [a.u.] :    -0.644391     0.609681     0.446348 
x,y,z [Debye]:    -1.637913     1.549686     1.134527 

 

Timings for individual modules:

Sum of individual times         ...      128.426 sec (=   2.140 min)
GTO integral calculation        ...        3.279 sec (=   0.055 min)   2.6 %
SCF iterations                  ...       23.629 sec (=   0.394 min)  18.4 %
MP2 module                      ...      101.518 sec (=   1.692 min)  79.0 %
                             ****ORCA TERMINATED NORMALLY****
TOTAL RUN TIME: 0 days 0 hours 2 minutes 9 seconds 404 msec
