21
Energy:   -238.71821043
O    1.50761925  -0.40971916   1.33230652
H    2.07429589  -0.70239696   2.04606358
H    0.80459788   0.07330203   1.76668346
O   -0.88580574   2.07224952  -0.18255817
H   -0.09005147   1.75037271  -0.60611728
H   -1.46757123   1.31259791  -0.15590871
O   -2.26875638  -0.32393500   0.36710778
H   -1.61278629  -0.99351356   0.17320150
H   -3.10618993  -0.74523826   0.17361239
O    1.51630056   0.97314997  -1.04245553
H    1.62535630   0.50111592  -0.21691173
H    2.26172777   1.57266505  -1.07639358
O    0.69250496  -1.18724714  -2.53443453
H    0.34859877  -0.90409815  -3.38165766
H    1.03133780  -0.38689931  -2.13335162
O   -0.24816893  -2.03954250  -0.10165179
H    0.43683559  -1.64341144   0.43693974
H    0.05146076  -1.91348034  -1.00196409
O   -0.58786293   0.95462280   2.31379319
H   -0.61029781   1.63650036   1.64239799
H   -1.32343163   0.38129330   2.09823851
