16
Energy:   -494.16882422
O   -0.78555837   0.18708543   2.21932233
H   -1.29459811   0.17289059   1.40882316
H   -0.00655079  -0.33318234   2.02259796
O    0.78692203   1.64383826   0.45938477
H    1.19786775   0.85311826   0.10993184
H    0.35370145   1.35434156   1.26234395
O   -1.43882666   0.34565695  -0.48340592
H   -0.75866199   1.00521619  -0.34706265
H   -0.99604307  -0.48990978  -0.33507257
O    0.01402389  -0.48993130  -2.71272664
H    0.64929226  -0.78265859  -2.05929211
H   -0.73103371  -0.17695777  -2.19972703
C    1.24303958  -1.48101166   0.24261937
O    1.73932351  -0.58429892  -0.66653788
O   -0.07960151  -1.71779579  -0.02506071
O    1.36873860  -0.96641266   1.50641042
