16
Energy:   -491.06575867
O   -1.16067253  -1.32010873  -0.69259495
H   -1.09204634  -1.01660432   0.21261628
H   -0.25428115  -1.45013547  -0.97148484
O    0.99245322   1.53546764  -0.46077673
H    0.04974070   1.52664998  -0.62644871
H    1.08855105   1.12922289   0.40059558
O    1.58390144  -1.13465959  -0.75933129
H    1.49964230  -0.18448007  -0.83864792
H    1.27039493  -1.33051690   0.12361006
O   -1.74497033   1.36079700  -0.57811518
H   -1.71196563   0.50859124  -1.01272752
H   -1.44987672   1.18603202   0.31553398
C    0.25846813  -0.33651732   2.09782877
O    1.33328032   0.49057646   1.90378492
O    0.51243439  -1.55632979   1.52804157
O   -0.85328443   0.21634672   1.51806349
