7
Energy:   -131.55739594
O   -1.01221987   1.21823937   1.83468123
H   -0.37758381   1.59672608   2.44313560
H   -1.67809652   0.82311421   2.39745672
O    0.91602379  -1.18296755  -1.89239481
H    1.31784470  -1.26855073  -2.75694517
H    0.84023733  -2.08208725  -1.57290770
K    0.05225330   0.98843783  -0.47546917
