7
Energy:   -127.66999619
O    1.34476161  -0.68664679   0.27210305
H    2.29934659  -0.61711251   0.25928306
H    1.03708155   0.19432981   0.05892459
O   -1.15607232   0.65958047  -0.19308821
H   -1.15156992   1.24429572  -0.95092701
H   -1.68224495   1.11899379   0.46136851
K   -0.89602342  -2.14171209   0.05548587
