7
Energy:   -129.55635219
O   -1.36416790  -1.40314872   0.97232613
H   -1.16258466  -1.93601331   0.20313736
H   -2.30109173  -1.53533616   1.11700534
O    1.35696541   1.40477450  -0.90327653
H    1.78957412   2.23652388  -1.09634262
H    0.95617504   1.14453295  -1.73265778
K    0.82239155   0.09901586   1.58158885
