
                                 *****************
                                 * O   R   C   A *
                                 *****************

           --- An Ab Initio, DFT and Semiempirical electronic structure package ---

                  #######################################################
                  #                        -***-                        #
                  #          Department of theory and spectroscopy      #
                  #               Directorship: Frank Neese             #
                  #        Max Planck Institute fuer Kohlenforschung    #
                  #                Kaiser Wilhelm Platz 1               #
                  #                 D-45470 Muelheim/Ruhr               #
                  #                      Germany                        #
                  #                                                     #
                  #                  All rights reserved                #
                  #                        -***-                        #
                  #######################################################


                         Program Version 4.2.0 -  RELEASE  -


 With contributions from (in alphabetic order):
   Daniel Aravena         : Magnetic Suceptibility
   Michael Atanasov       : Ab Initio Ligand Field Theory (pilot matlab implementation)
   Alexander A. Auer      : GIAO ZORA, VPT2
   Ute Becker             : Parallelization
   Giovanni Bistoni       : ED, misc. LED, open-shell LED, HFLED
   Martin Brehm           : Molecular dynamics
   Dmytro Bykov           : SCF Hessian
   Vijay G. Chilkuri      : MRCI spin determinant printing, contributions to CSF-ICE
   Dipayan Datta          : RHF DLPNO-CCSD density
   Achintya Kumar Dutta   : EOM-CC, STEOM-CC
   Dmitry Ganyushin       : Spin-Orbit,Spin-Spin,Magnetic field MRCI
   Miquel Garcia          : C-PCM Hessian, Gaussian charge scheme
   Yang Guo               : DLPNO-NEVPT2, CIM, IAO-localization
   Andreas Hansen         : Spin unrestricted coupled pair/coupled cluster methods
   Benjamin Helmich-Paris : CASSCF linear response (MC-RPA)
   Lee Huntington         : MR-EOM, pCC
   Robert Izsak           : Overlap fitted RIJCOSX, COSX-SCS-MP3, EOM
   Christian Kollmar      : KDIIS, OOCD, Brueckner-CCSD(T), CCSD density
   Simone Kossmann        : Meta GGA functionals, TD-DFT gradient, OOMP2, MP2 Hessian
   Martin Krupicka        : AUTO-CI
   Lucas Lang             : DCDCAS
   Dagmar Lenk            : GEPOL surface, SMD
   Dimitrios Liakos       : Extrapolation schemes; Compound Job, initial MDCI parallelization
   Dimitrios Manganas     : Further ROCIS development; embedding schemes
   Dimitrios Pantazis     : SARC Basis sets
   Taras Petrenko         : DFT Hessian,TD-DFT gradient, ASA, ECA, R-Raman, ABS, FL, XAS/XES, NRVS
   Peter Pinski           : DLPNO-MP2, DLPNO-MP2 Gradient
   Christoph Reimann      : Effective Core Potentials
   Marius Retegan         : Local ZFS, SOC
   Christoph Riplinger    : Optimizer, TS searches, QM/MM, DLPNO-CCSD(T), (RO)-DLPNO pert. Triples
   Tobias Risthaus        : Range-separated hybrids, TD-DFT gradient, RPA, STAB
   Michael Roemelt        : Original ROCIS implementation
   Masaaki Saitow         : Open-shell DLPNO-CCSD energy and density
   Barbara Sandhoefer     : DKH picture change effects
   Avijit Sen             : IP-ROCIS
   Kantharuban Sivalingam : CASSCF convergence, NEVPT2, FIC-MRCI
   Bernardo de Souza      : ESD, SOC TD-DFT
   Georgi Stoychev        : AutoAux, RI-MP2 NMR
   Willem Van den Heuvel  : Paramagnetic NMR
   Boris Wezisla          : Elementary symmetry handling
   Frank Wennmohs         : Technical directorship


 We gratefully acknowledge several colleagues who have allowed us to
 interface, adapt or use parts of their codes:
   Stefan Grimme, W. Hujo, H. Kruse,             : VdW corrections, initial TS optimization,
                  C. Bannwarth                     DFT functionals, gCP, sTDA/sTD-DF
   Ed Valeev, F. Pavosevic, A. Kumar             : LibInt (2-el integral package), F12 methods
   Garnet Chan, S. Sharma, J. Yang, R. Olivares  : DMRG
   Ulf Ekstrom                                   : XCFun DFT Library
   Mihaly Kallay                                 : mrcc  (arbitrary order and MRCC methods)
   Andreas Klamt, Michael Diedenhofen            : otool_cosmo (COSMO solvation model)
   Jiri Pittner, Ondrej Demel                    : Mk-CCSD
   Frank Weinhold                                : gennbo (NPA and NBO analysis)
   Christopher J. Cramer and Donald G. Truhlar   : smd solvation model
   Lars Goerigk                                  : TD-DFT with DH, B97 family of functionals
   V. Asgeirsson, H. Jonsson                     : NEB implementation
   FAccTs GmbH                                   : IRC, NEB, NEB-TS, Multilevel, MM, QM/MM, CI optimization
   S Lehtola, MJT Oliveira, MAL Marques          : LibXC Library


 Your calculation uses the libint2 library for the computation of 2-el integrals
 For citations please refer to: http://libint.valeyev.net

 Your ORCA version has been built with support for libXC version: 4.2.3
 For citations please refer to: https://tddft.org/programs/libxc/

 This ORCA versions uses:
   CBLAS   interface :  Fast vector & matrix operations
   LAPACKE interface :  Fast linear algebra routines
   SCALAPACK package :  Parallel linear algebra routines


----- Orbital basis set information -----
Your calculation utilizes the basis: def2-TZVP
   F. Weigend and R. Ahlrichs, Phys. Chem. Chem. Phys. 7, 3297 (2005).

================================================================================
                                        WARNINGS
                       Please study these warnings very carefully!
================================================================================


WARNING: The frozen-core approximation for MP2-gradient calculations is turned on by default.

INFO   : the flag for use of LIBINT has been found!

================================================================================
                                       INPUT FILE
================================================================================
NAME = 12h2o.su.etal.mol0,1,2,3,5,6,7,9,11-orca.engrad-mp2.def2tzvp.frozencore.inp
|  1> # 12h2o.su.etal.mol0,1,2,3,5,6,7,9,11
|  2> ! MP2 def2-TZVP EnGrad TightSCF
|  3> 
|  4> %pal
|  5>     nprocs 6
|  6> end
|  7> 
|  8> %maxcore 8000
|  9> 
| 10> %scf
| 11>     ConvForced true
| 12> end
| 13> 
| 14> *xyz 0 1
| 15> O   1.794470000   0.923410000   2.768350000
| 16> H   2.338250000   1.359750000   3.430940000
| 17> H   0.879480000   1.303000000   2.865760000
| 18> O  -1.794470000  -0.923410000   2.768350000
| 19> H  -2.338250000  -1.359750000   3.430940000
| 20> H  -0.879480000  -1.303000000   2.865760000
| 21> O   0.923410000  -1.794470000  -2.768350000
| 22> H   1.359750000  -2.338250000  -3.430940000
| 23> H   1.303000000  -0.879480000  -2.865760000
| 24> O  -1.752130000  -0.741530000  -2.896280000
| 25> H  -2.036450000  -0.920500000  -1.984040000
| 26> H  -0.921210000  -1.242140000  -2.984230000
| 27> O   0.885520000  -1.737840000   0.052730000
| 28> H   1.284090000  -0.839590000   0.017130000
| 29> H   1.032320000  -2.090180000  -0.841890000
| 30> O   1.737840000   0.885520000  -0.052730000
| 31> H   2.090180000   1.032320000   0.841890000
| 32> H   0.839590000   1.284090000  -0.017130000
| 33> O  -1.737840000  -0.885520000  -0.052730000
| 34> H  -2.090180000  -1.032320000   0.841890000
| 35> H  -0.839590000  -1.284090000  -0.017130000
| 36> O   0.741530000  -1.752130000   2.896280000
| 37> H   0.920500000  -2.036450000   1.984040000
| 38> H   1.242140000  -0.921210000   2.984230000
| 39> O  -0.741530000   1.752130000   2.896280000
| 40> H  -0.920500000   2.036450000   1.984040000
| 41> H  -1.242140000   0.921210000   2.984230000
| 42> *
| 43> 
| 44>                          ****END OF INPUT****
================================================================================

                     *******************************
                     * Energy+Gradient Calculation *
                     *******************************

---------------------------------
CARTESIAN COORDINATES (ANGSTROEM)
---------------------------------
  O      1.794470    0.923410    2.768350
  H      2.338250    1.359750    3.430940
  H      0.879480    1.303000    2.865760
  O     -1.794470   -0.923410    2.768350
  H     -2.338250   -1.359750    3.430940
  H     -0.879480   -1.303000    2.865760
  O      0.923410   -1.794470   -2.768350
  H      1.359750   -2.338250   -3.430940
  H      1.303000   -0.879480   -2.865760
  O     -1.752130   -0.741530   -2.896280
  H     -2.036450   -0.920500   -1.984040
  H     -0.921210   -1.242140   -2.984230
  O      0.885520   -1.737840    0.052730
  H      1.284090   -0.839590    0.017130
  H      1.032320   -2.090180   -0.841890
  O      1.737840    0.885520   -0.052730
  H      2.090180    1.032320    0.841890
  H      0.839590    1.284090   -0.017130
  O     -1.737840   -0.885520   -0.052730
  H     -2.090180   -1.032320    0.841890
  H     -0.839590   -1.284090   -0.017130
  O      0.741530   -1.752130    2.896280
  H      0.920500   -2.036450    1.984040
  H      1.242140   -0.921210    2.984230
  O     -0.741530    1.752130    2.896280
  H     -0.920500    2.036450    1.984040
  H     -1.242140    0.921210    2.984230

----------------------------
CARTESIAN COORDINATES (A.U.)
----------------------------
  NO LB      ZA    FRAG     MASS         X           Y           Z
   0 O     8.0000    0    15.999    3.391057    1.744992    5.231423
   1 H     1.0000    0     1.008    4.418652    2.569555    6.483537
   2 H     1.0000    0     1.008    1.661976    2.462313    5.415502
   3 O     8.0000    0    15.999   -3.391057   -1.744992    5.231423
   4 H     1.0000    0     1.008   -4.418652   -2.569555    6.483537
   5 H     1.0000    0     1.008   -1.661976   -2.462313    5.415502
   6 O     8.0000    0    15.999    1.744992   -3.391057   -5.231423
   7 H     1.0000    0     1.008    2.569555   -4.418652   -6.483537
   8 H     1.0000    0     1.008    2.462313   -1.661976   -5.415502
   9 O     8.0000    0    15.999   -3.311046   -1.401289   -5.473176
  10 H     1.0000    0     1.008   -3.848333   -1.739493   -3.749292
  11 H     1.0000    0     1.008   -1.740835   -2.347304   -5.639377
  12 O     8.0000    0    15.999    1.673390   -3.284042    0.099645
  13 H     1.0000    0     1.008    2.426578   -1.586595    0.032371
  14 H     1.0000    0     1.008    1.950802   -3.949868   -1.590942
  15 O     8.0000    0    15.999    3.284042    1.673390   -0.099645
  16 H     1.0000    0     1.008    3.949868    1.950802    1.590942
  17 H     1.0000    0     1.008    1.586595    2.426578   -0.032371
  18 O     8.0000    0    15.999   -3.284042   -1.673390   -0.099645
  19 H     1.0000    0     1.008   -3.949868   -1.950802    1.590942
  20 H     1.0000    0     1.008   -1.586595   -2.426578   -0.032371
  21 O     8.0000    0    15.999    1.401289   -3.311046    5.473176
  22 H     1.0000    0     1.008    1.739493   -3.848333    3.749292
  23 H     1.0000    0     1.008    2.347304   -1.740835    5.639377
  24 O     8.0000    0    15.999   -1.401289    3.311046    5.473176
  25 H     1.0000    0     1.008   -1.739493    3.848333    3.749292
  26 H     1.0000    0     1.008   -2.347304    1.740835    5.639377

--------------------------------
INTERNAL COORDINATES (ANGSTROEM)
--------------------------------
 O      0   0   0     0.000000000000     0.00000000     0.00000000
 H      1   0   0     0.961828878803     0.00000000     0.00000000
 H      1   2   0     0.995381322057   106.21731035     0.00000000
 O      3   1   2     3.480861789658   117.35405144   223.81249033
 H      4   3   1     0.961828878803   134.84484566    98.22461471
 H      4   3   1     0.995381322057    62.29205096    12.66575463
 O      6   4   3     5.935920367146   102.58474291   273.48279218
 H      7   6   4     0.961828878803   146.97742434   224.01286022
 H      7   6   4     0.995381322057    97.62005672    87.72090689
 O      7   6   4     2.878117964938    74.30903121   359.04191204
 H     10   7   6     0.972136791249    99.37069922   345.64431536
 H     10   7   6     0.974050112161    12.30570018   233.12878636
 O      7   6   4     2.821902722526    17.32744736   169.52589616
 H     13   7   6     0.983350632989    88.66470709   258.45499027
 H     13   7   6     0.972645187106    21.75017499   124.29821266
 O     14  13   7     1.785153773264   170.81379649    89.95043540
 H     16  14  13     0.972645187106   101.65007623   109.44492584
 H     16  14  13     0.983350632989    99.09581498     3.33484705
 O     11  10   7     1.954571525578   151.55104644    46.66533865
 H     19  11  10     0.972645187106   148.29772527   173.62852352
 H     19  11  10     0.983350632989    99.67573411   310.71905253
 O      6   4   3     1.682356278379   171.61043709   328.33166207
 H     22   6   4     0.972136791249   103.79460456   289.35412162
 H     22   6   4     0.974050112161   105.61118924    38.30604821
 O      3   1   2     1.682356278379   171.61043709   195.73896161
 H     25   3   1     0.972136791249   103.79460456   289.35412162
 H     25   3   1     0.974050112161   105.61118924    38.30604821

---------------------------
INTERNAL COORDINATES (A.U.)
---------------------------
 O      0   0   0     0.000000000000     0.00000000     0.00000000
 H      1   0   0     1.817593168635     0.00000000     0.00000000
 H      1   2   0     1.880998097508   106.21731035     0.00000000
 O      3   1   2     6.577875492484   117.35405144   223.81249033
 H      4   3   1     1.817593168635   134.84484566    98.22461471
 H      4   3   1     1.880998097508    62.29205096    12.66575463
 O      6   4   3    11.217263846671   102.58474291   273.48279218
 H      7   6   4     1.817593168635   146.97742434   224.01286022
 H      7   6   4     1.880998097508    97.62005672    87.72090689
 O      7   6   4     5.438854734852    74.30903121   359.04191204
 H     10   7   6     1.837072300170    99.37069922   345.64431536
 H     10   7   6     1.840687952699    12.30570018   233.12878636
 O      7   6   4     5.332623322141    17.32744736   169.52589616
 H     13   7   6     1.858263389967    88.66470709   258.45499027
 H     13   7   6     1.838033029106    21.75017499   124.29821266
 O     14  13   7     3.373451738406   170.81379649    89.95043540
 H     16  14  13     1.838033029106   101.65007623   109.44492584
 H     16  14  13     1.858263389967    99.09581498     3.33484705
 O     11  10   7     3.693604892503   151.55104644    46.66533865
 H     19  11  10     1.838033029106   148.29772527   173.62852352
 H     19  11  10     1.858263389967    99.67573411   310.71905253
 O      6   4   3     3.179192625819   171.61043709   328.33166207
 H     22   6   4     1.837072300170   103.79460456   289.35412162
 H     22   6   4     1.840687952699   105.61118924    38.30604821
 O      3   1   2     3.179192625819   171.61043709   195.73896161
 H     25   3   1     1.837072300170   103.79460456   289.35412162
 H     25   3   1     1.840687952699   105.61118924    38.30604821

---------------------
BASIS SET INFORMATION
---------------------
There are 2 groups of distinct atoms

 Group   1 Type O   : 11s6p2d1f contracted to 5s3p2d1f pattern {62111/411/11/1}
 Group   2 Type H   : 5s1p contracted to 3s1p pattern {311/1}

Atom   0O    basis set group =>   1
Atom   1H    basis set group =>   2
Atom   2H    basis set group =>   2
Atom   3O    basis set group =>   1
Atom   4H    basis set group =>   2
Atom   5H    basis set group =>   2
Atom   6O    basis set group =>   1
Atom   7H    basis set group =>   2
Atom   8H    basis set group =>   2
Atom   9O    basis set group =>   1
Atom  10H    basis set group =>   2
Atom  11H    basis set group =>   2
Atom  12O    basis set group =>   1
Atom  13H    basis set group =>   2
Atom  14H    basis set group =>   2
Atom  15O    basis set group =>   1
Atom  16H    basis set group =>   2
Atom  17H    basis set group =>   2
Atom  18O    basis set group =>   1
Atom  19H    basis set group =>   2
Atom  20H    basis set group =>   2
Atom  21O    basis set group =>   1
Atom  22H    basis set group =>   2
Atom  23H    basis set group =>   2
Atom  24O    basis set group =>   1
Atom  25H    basis set group =>   2
Atom  26H    basis set group =>   2


           ************************************************************
           *        Program running with 6 parallel MPI-processes     *
           *              working on a common directory               *
           ************************************************************
------------------------------------------------------------------------------
                           ORCA GTO INTEGRAL CALCULATION
------------------------------------------------------------------------------

                         BASIS SET STATISTICS AND STARTUP INFO

 # of primitive gaussian shells          ...  288
 # of primitive gaussian functions       ...  558
 # of contracted shells                  ...  171
 # of contracted basis functions         ...  387
 Highest angular momentum                ...    3
 Maximum contraction depth               ...    6
 Integral package used                   ... LIBINT
 Integral threshhold            Thresh   ...  2.500e-11
 Primitive cut-off              TCut     ...  2.500e-12


------------------------------ INTEGRAL EVALUATION ----------------------------


 * One electron integrals 
 Pre-screening matrix                    ... done
 Shell pair data                         ... done (   0.003 sec)



           ************************************************************
           *        Program running with 6 parallel MPI-processes     *
           *              working on a common directory               *
           ************************************************************
-------------------------------------------------------------------------------
                                 ORCA SCF
-------------------------------------------------------------------------------

------------
SCF SETTINGS
------------
Hamiltonian:
 Ab initio Hamiltonian  Method          .... Hartree-Fock(GTOs)


General Settings:
 Integral files         IntName         .... 12h2o.su.etal.mol0,1,2,3,5,6,7,9,11-orca.engrad-mp2.def2tzvp.frozencore
 Hartree-Fock type      HFTyp           .... RHF
 Total Charge           Charge          ....    0
 Multiplicity           Mult            ....    1
 Number of Electrons    NEL             ....   90
 Basis Dimension        Dim             ....  387
 Nuclear Repulsion      ENuc            ....    583.5573252731 Eh

Convergence Acceleration:
 DIIS                   CNVDIIS         .... on
   Start iteration      DIISMaxIt       ....    12
   Startup error        DIISStart       ....  0.200000
   # of expansion vecs  DIISMaxEq       ....     5
   Bias factor          DIISBfac        ....   1.050
   Max. coefficient     DIISMaxC        ....  10.000
 Newton-Raphson         CNVNR           .... off
 SOSCF                  CNVSOSCF        .... on
   Start iteration      SOSCFMaxIt      ....   150
   Startup grad/error   SOSCFStart      ....  0.003300
 Level Shifting         CNVShift        .... on
   Level shift para.    LevelShift      ....    0.2500
   Turn off err/grad.   ShiftErr        ....    0.0010
 Zerner damping         CNVZerner       .... off
 Static damping         CNVDamp         .... on
   Fraction old density DampFac         ....    0.7000
   Max. Damping (<1)    DampMax         ....    0.9800
   Min. Damping (>=0)   DampMin         ....    0.0000
   Turn off err/grad.   DampErr         ....    0.1000
 Fernandez-Rico         CNVRico         .... off

SCF Procedure:
 Maximum # iterations   MaxIter         ....   125
 SCF integral mode      SCFMode         .... Direct
   Integral package                     .... LIBINT
 Reset frequency        DirectResetFreq ....    20
 Integral Threshold     Thresh          ....  2.500e-11 Eh
 Primitive CutOff       TCut            ....  2.500e-12 Eh

Convergence Tolerance:
 Convergence Check Mode ConvCheckMode   .... Total+1el-Energy
 Convergence forced     ConvForced      .... 1
 Energy Change          TolE            ....  1.000e-08 Eh
 1-El. energy change                    ....  1.000e-05 Eh
 Orbital Gradient       TolG            ....  1.000e-05
 Orbital Rotation angle TolX            ....  1.000e-05
 DIIS Error             TolErr          ....  5.000e-07


Diagonalization of the overlap matrix:
Smallest eigenvalue                        ... 3.268e-03
Time for diagonalization                   ...    0.022 sec
Threshold for overlap eigenvalues          ... 1.000e-08
Number of eigenvalues below threshold      ... 0
Time for construction of square roots      ...    0.012 sec
Total time needed                          ...    0.035 sec

-------------------
DFT GRID GENERATION
-------------------

General Integration Accuracy     IntAcc      ...  4.340
Radial Grid Type                 RadialGrid  ... Gauss-Chebyshev
Angular Grid (max. acc.)         AngularGrid ... Lebedev-110
Angular grid pruning method      GridPruning ... 3 (G Style)
Weight generation scheme         WeightScheme... Becke
Basis function cutoff            BFCut       ...    1.0000e-11
Integration weight cutoff        WCut        ...    1.0000e-14
Grids for H and He will be reduced by one unit

# of grid points (after initial pruning)     ...  29736 (   0.0 sec)
# of grid points (after weights+screening)   ...  27448 (   0.0 sec)
nearest neighbour list constructed           ...    0.0 sec
Grid point re-assignment to atoms done       ...    0.0 sec
Grid point division into batches done        ...    0.0 sec
Reduced shell lists constructed in    0.1 sec

Total number of grid points                  ...    27448
Total number of batches                      ...      445
Average number of points per batch           ...       61
Average number of grid points per atom       ...     1017
Average number of shells per batch           ...    78.29 (45.78%)
Average number of basis functions per batch  ...   155.87 (40.28%)
Average number of large shells per batch     ...    51.71 (66.05%)
Average number of large basis fcns per batch ...    99.89 (64.09%)
Maximum spatial batch extension              ...  13.20, 16.09, 11.85 au
Average spatial batch extension              ...   0.55,  0.63,  0.54 au

Time for grid setup =    0.121 sec

------------------------------
INITIAL GUESS: MODEL POTENTIAL
------------------------------
Loading Hartree-Fock densities                     ... done
Calculating cut-offs                               ... done
Setting up the integral package                    ... done
Initializing the effective Hamiltonian             ... done
Starting the Coulomb interaction                   ... done (   0.1 sec)
Reading the grid                                   ... done
Mapping shells                                     ... done
Starting the XC term evaluation                    ... done (   0.1 sec)
Transforming the Hamiltonian                       ... done (   0.0 sec)
Diagonalizing the Hamiltonian                      ... done (   0.0 sec)
Back transforming the eigenvectors                 ... done (   0.0 sec)
Now organizing SCF variables                       ... done
                      ------------------
                      INITIAL GUESS DONE (   0.4 sec)
                      ------------------
--------------
SCF ITERATIONS
--------------
ITER       Energy         Delta-E        Max-DP      RMS-DP      [F,P]     Damp
               ***  Starting incremental Fock matrix formation  ***
  0   -683.8448023269   0.000000000000 0.04388021  0.00077212  0.3395508 0.7000
  1   -684.1348869091  -0.290084582207 0.02909615  0.00053607  0.2167526 0.7000
                               ***Turning on DIIS***
  2   -684.2898942107  -0.155007301602 0.01619735  0.00030280  0.1633987 0.7000
  3   -685.7430139631  -1.453119752371 0.00758169  0.00014225  0.1217485 0.7000
  4   -685.4513236198   0.291690343281 0.01728344  0.00033116  0.0861315 0.0000
  5   -684.6431836351   0.808139984722 0.00229473  0.00005264  0.0055013 0.0000
                      *** Initiating the SOSCF procedure ***
                           *** Shutting down DIIS ***
                      *** Re-Reading the Fockian *** 
                      *** Removing any level shift *** 
ITER      Energy       Delta-E        Grad      Rot      Max-DP    RMS-DP
  6   -684.60240709   0.0407765494  0.000956  0.000956  0.001449  0.000033
               *** Restarting incremental Fock matrix formation ***
  7   -684.59081466   0.0115924249  0.000324  0.000447  0.000652  0.000014
  8   -684.59082748  -0.0000128213  0.000153  0.000349  0.000554  0.000012
  9   -684.59083061  -0.0000031310  0.000046  0.000050  0.000101  0.000002
 10   -684.59083085  -0.0000002413  0.000012  0.000012  0.000022  0.000000
                  ***Gradient check signals convergence***
              ***Rediagonalizing the Fockian in SOSCF/NRSCF***

               *****************************************************
               *                     SUCCESS                       *
               *           SCF CONVERGED AFTER  11 CYCLES          *
               *****************************************************


----------------
TOTAL SCF ENERGY
----------------

Total Energy       :         -684.59083086 Eh          -18628.66357 eV

Components:
Nuclear Repulsion  :          583.55732527 Eh           15879.40211 eV
Electronic Energy  :        -1268.14815614 Eh          -34508.06568 eV
One Electron Energy:        -2109.11227185 Eh          -57391.86266 eV
Two Electron Energy:          840.96411572 Eh           22883.79698 eV

Virial components:
Potential Energy   :        -1368.35944465 Eh          -37234.95348 eV
Kinetic Energy     :          683.76861379 Eh           18606.28991 eV
Virial Ratio       :            2.00120248


---------------
SCF CONVERGENCE
---------------

  Last Energy change         ...   -8.5286e-09  Tolerance :   1.0000e-08
  Last MAX-Density change    ...    6.1266e-06  Tolerance :   1.0000e-07
  Last RMS-Density change    ...    1.1200e-07  Tolerance :   5.0000e-09
  Last Orbital Gradient      ...    2.1509e-06  Tolerance :   1.0000e-05
  Last Orbital Rotation      ...    2.3990e-06  Tolerance :   1.0000e-05

             **** THE GBW FILE WAS UPDATED (12h2o.su.etal.mol0,1,2,3,5,6,7,9,11-orca.engrad-mp2.def2tzvp.frozencore.gbw) ****
             **** DENSITY FILE WAS UPDATED (12h2o.su.etal.mol0,1,2,3,5,6,7,9,11-orca.engrad-mp2.def2tzvp.frozencore.scfp) ****
             **** ENERGY FILE WAS UPDATED (12h2o.su.etal.mol0,1,2,3,5,6,7,9,11-orca.engrad-mp2.def2tzvp.frozencore.en.tmp) ****
             **** THE GBW FILE WAS UPDATED (12h2o.su.etal.mol0,1,2,3,5,6,7,9,11-orca.engrad-mp2.def2tzvp.frozencore.gbw) ****
             **** DENSITY FILE WAS UPDATED (12h2o.su.etal.mol0,1,2,3,5,6,7,9,11-orca.engrad-mp2.def2tzvp.frozencore.scfp) ****
----------------
ORBITAL ENERGIES
----------------

  NO   OCC          E(Eh)            E(eV) 
   0   2.0000     -20.607886      -560.7691 
   1   2.0000     -20.587455      -560.2131 
   2   2.0000     -20.583550      -560.1069 
   3   2.0000     -20.583413      -560.1031 
   4   2.0000     -20.566499      -559.6429 
   5   2.0000     -20.559537      -559.4535 
   6   2.0000     -20.557113      -559.3875 
   7   2.0000     -20.518348      -558.3326 
   8   2.0000     -20.495692      -557.7161 
   9   2.0000      -1.388595       -37.7856 
  10   2.0000      -1.385274       -37.6952 
  11   2.0000      -1.371200       -37.3123 
  12   2.0000      -1.362312       -37.0704 
  13   2.0000      -1.360497       -37.0210 
  14   2.0000      -1.348246       -36.6876 
  15   2.0000      -1.338140       -36.4126 
  16   2.0000      -1.305027       -35.5116 
  17   2.0000      -1.280429       -34.8423 
  18   2.0000      -0.753826       -20.5127 
  19   2.0000      -0.749503       -20.3950 
  20   2.0000      -0.740749       -20.1568 
  21   2.0000      -0.729882       -19.8611 
  22   2.0000      -0.727038       -19.7837 
  23   2.0000      -0.726199       -19.7609 
  24   2.0000      -0.711989       -19.3742 
  25   2.0000      -0.685733       -18.6597 
  26   2.0000      -0.661185       -17.9918 
  27   2.0000      -0.648584       -17.6489 
  28   2.0000      -0.632652       -17.2153 
  29   2.0000      -0.616157       -16.7665 
  30   2.0000      -0.609925       -16.5969 
  31   2.0000      -0.599768       -16.3205 
  32   2.0000      -0.590620       -16.0716 
  33   2.0000      -0.574540       -15.6340 
  34   2.0000      -0.565537       -15.3890 
  35   2.0000      -0.541407       -14.7324 
  36   2.0000      -0.530611       -14.4386 
  37   2.0000      -0.530175       -14.4268 
  38   2.0000      -0.522530       -14.2188 
  39   2.0000      -0.517713       -14.0877 
  40   2.0000      -0.510091       -13.8803 
  41   2.0000      -0.502686       -13.6788 
  42   2.0000      -0.498455       -13.5637 
  43   2.0000      -0.469860       -12.7855 
  44   2.0000      -0.445585       -12.1250 
  45   0.0000       0.093138         2.5344 
  46   0.0000       0.111208         3.0261 
  47   0.0000       0.140031         3.8104 
  48   0.0000       0.143337         3.9004 
  49   0.0000       0.176397         4.8000 
  50   0.0000       0.196317         5.3421 
  51   0.0000       0.216767         5.8985 
  52   0.0000       0.227954         6.2030 
  53   0.0000       0.253428         6.8961 
  54   0.0000       0.257569         7.0088 
  55   0.0000       0.274572         7.4715 
  56   0.0000       0.283580         7.7166 
  57   0.0000       0.311641         8.4802 
  58   0.0000       0.321590         8.7509 
  59   0.0000       0.325597         8.8599 
  60   0.0000       0.339074         9.2267 
  61   0.0000       0.345286         9.3957 
  62   0.0000       0.362055         9.8520 
  63   0.0000       0.403545        10.9810 
  64   0.0000       0.462447        12.5838 
  65   0.0000       0.478784        13.0284 
  66   0.0000       0.484768        13.1912 
  67   0.0000       0.504454        13.7269 
  68   0.0000       0.510099        13.8805 
  69   0.0000       0.516432        14.0528 
  70   0.0000       0.521084        14.1794 
  71   0.0000       0.534107        14.5338 
  72   0.0000       0.534735        14.5509 
  73   0.0000       0.547241        14.8912 
  74   0.0000       0.550489        14.9796 
  75   0.0000       0.565703        15.3936 
  76   0.0000       0.573280        15.5997 
  77   0.0000       0.576142        15.6776 
  78   0.0000       0.598276        16.2799 
  79   0.0000       0.602028        16.3820 
  80   0.0000       0.613183        16.6856 
  81   0.0000       0.631438        17.1823 
  82   0.0000       0.645820        17.5736 
  83   0.0000       0.648939        17.6585 
  84   0.0000       0.658853        17.9283 
  85   0.0000       0.688433        18.7332 
  86   0.0000       0.693413        18.8687 
  87   0.0000       0.705243        19.1906 
  88   0.0000       0.717461        19.5231 
  89   0.0000       0.726379        19.7658 
  90   0.0000       0.734345        19.9825 
  91   0.0000       0.746669        20.3179 
  92   0.0000       0.750003        20.4086 
  93   0.0000       0.768728        20.9181 
  94   0.0000       0.771407        20.9911 
  95   0.0000       0.781873        21.2758 
  96   0.0000       0.788713        21.4620 
  97   0.0000       0.796111        21.6633 
  98   0.0000       0.812799        22.1174 
  99   0.0000       0.816682        22.2231 
 100   0.0000       0.836514        22.7627 
 101   0.0000       0.840947        22.8833 
 102   0.0000       0.865253        23.5447 
 103   0.0000       0.872222        23.7344 
 104   0.0000       0.885774        24.1031 
 105   0.0000       0.900822        24.5126 
 106   0.0000       0.925216        25.1764 
 107   0.0000       0.953356        25.9421 
 108   0.0000       0.992031        26.9945 
 109   0.0000       1.012177        27.5427 
 110   0.0000       1.018052        27.7026 
 111   0.0000       1.025368        27.9017 
 112   0.0000       1.067551        29.0495 
 113   0.0000       1.076202        29.2849 
 114   0.0000       1.119761        30.4703 
 115   0.0000       1.136305        30.9204 
 116   0.0000       1.224157        33.3110 
 117   0.0000       1.339382        36.4464 
 118   0.0000       1.360842        37.0304 
 119   0.0000       1.373061        37.3629 
 120   0.0000       1.390561        37.8391 
 121   0.0000       1.390856        37.8471 
 122   0.0000       1.400895        38.1203 
 123   0.0000       1.414825        38.4993 
 124   0.0000       1.424312        38.7575 
 125   0.0000       1.427112        38.8337 
 126   0.0000       1.437377        39.1130 
 127   0.0000       1.441099        39.2143 
 128   0.0000       1.458266        39.6814 
 129   0.0000       1.492189        40.6045 
 130   0.0000       1.501998        40.8715 
 131   0.0000       1.510468        41.1019 
 132   0.0000       1.530560        41.6487 
 133   0.0000       1.543773        42.0082 
 134   0.0000       1.549562        42.1657 
 135   0.0000       1.565086        42.5881 
 136   0.0000       1.580688        43.0127 
 137   0.0000       1.587068        43.1863 
 138   0.0000       1.596293        43.4373 
 139   0.0000       1.611847        43.8606 
 140   0.0000       1.617816        44.0230 
 141   0.0000       1.635599        44.5069 
 142   0.0000       1.650991        44.9257 
 143   0.0000       1.694515        46.1101 
 144   0.0000       1.802167        49.0395 
 145   0.0000       1.810425        49.2642 
 146   0.0000       1.822684        49.5977 
 147   0.0000       1.849580        50.3296 
 148   0.0000       1.875993        51.0484 
 149   0.0000       1.893252        51.5180 
 150   0.0000       1.898585        51.6631 
 151   0.0000       1.919680        52.2372 
 152   0.0000       1.938490        52.7490 
 153   0.0000       1.960611        53.3509 
 154   0.0000       1.969599        53.5955 
 155   0.0000       1.982984        53.9597 
 156   0.0000       1.989420        54.1349 
 157   0.0000       2.004605        54.5481 
 158   0.0000       2.012554        54.7644 
 159   0.0000       2.014048        54.8050 
 160   0.0000       2.026214        55.1361 
 161   0.0000       2.064819        56.1866 
 162   0.0000       2.081201        56.6324 
 163   0.0000       2.087930        56.8155 
 164   0.0000       2.110858        57.4394 
 165   0.0000       2.141409        58.2707 
 166   0.0000       2.146505        58.4094 
 167   0.0000       2.148068        58.4519 
 168   0.0000       2.187925        59.5365 
 169   0.0000       2.213301        60.2270 
 170   0.0000       2.220877        60.4331 
 171   0.0000       2.237872        60.8956 
 172   0.0000       2.239250        60.9331 
 173   0.0000       2.265713        61.6532 
 174   0.0000       2.287648        62.2501 
 175   0.0000       2.300648        62.6038 
 176   0.0000       2.315703        63.0135 
 177   0.0000       2.322691        63.2036 
 178   0.0000       2.340524        63.6889 
 179   0.0000       2.355580        64.0986 
 180   0.0000       2.365845        64.3779 
 181   0.0000       2.372746        64.5657 
 182   0.0000       2.378886        64.7328 
 183   0.0000       2.384957        64.8980 
 184   0.0000       2.400807        65.3293 
 185   0.0000       2.417134        65.7736 
 186   0.0000       2.438131        66.3449 
 187   0.0000       2.461178        66.9721 
 188   0.0000       2.473819        67.3160 
 189   0.0000       2.485155        67.6245 
 190   0.0000       2.510945        68.3263 
 191   0.0000       2.517142        68.4949 
 192   0.0000       2.524896        68.7059 
 193   0.0000       2.535606        68.9973 
 194   0.0000       2.545937        69.2785 
 195   0.0000       2.566833        69.8471 
 196   0.0000       2.590008        70.4777 
 197   0.0000       2.608859        70.9907 
 198   0.0000       2.611729        71.0688 
 199   0.0000       2.621006        71.3212 
 200   0.0000       2.623583        71.3913 
 201   0.0000       2.639221        71.8168 
 202   0.0000       2.646113        72.0044 
 203   0.0000       2.663837        72.4867 
 204   0.0000       2.666764        72.5663 
 205   0.0000       2.680160        72.9309 
 206   0.0000       2.690078        73.2007 
 207   0.0000       2.698479        73.4294 
 208   0.0000       2.715396        73.8897 
 209   0.0000       2.722513        74.0834 
 210   0.0000       2.749603        74.8205 
 211   0.0000       2.760654        75.1212 
 212   0.0000       2.765041        75.2406 
 213   0.0000       2.809010        76.4370 
 214   0.0000       2.818758        76.7023 
 215   0.0000       2.843514        77.3760 
 216   0.0000       2.889092        78.6162 
 217   0.0000       2.900509        78.9269 
 218   0.0000       2.930578        79.7451 
 219   0.0000       2.940923        80.0266 
 220   0.0000       2.958113        80.4943 
 221   0.0000       2.978098        81.0382 
 222   0.0000       2.995330        81.5071 
 223   0.0000       2.997248        81.5593 
 224   0.0000       3.004131        81.7466 
 225   0.0000       3.017858        82.1201 
 226   0.0000       3.024823        82.3096 
 227   0.0000       3.041860        82.7732 
 228   0.0000       3.059001        83.2396 
 229   0.0000       3.067235        83.4637 
 230   0.0000       3.087185        84.0066 
 231   0.0000       3.114668        84.7544 
 232   0.0000       3.127169        85.0946 
 233   0.0000       3.154384        85.8351 
 234   0.0000       3.159494        85.9742 
 235   0.0000       3.187459        86.7352 
 236   0.0000       3.189570        86.7926 
 237   0.0000       3.210016        87.3490 
 238   0.0000       3.227767        87.8320 
 239   0.0000       3.237656        88.1011 
 240   0.0000       3.251042        88.4653 
 241   0.0000       3.300006        89.7977 
 242   0.0000       3.326216        90.5109 
 243   0.0000       3.343937        90.9932 
 244   0.0000       3.347530        91.0909 
 245   0.0000       3.375706        91.8576 
 246   0.0000       3.398497        92.4778 
 247   0.0000       3.425778        93.2202 
 248   0.0000       3.438683        93.5713 
 249   0.0000       3.497666        95.1763 
 250   0.0000       3.516448        95.6874 
 251   0.0000       3.565097        97.0112 
 252   0.0000       3.979709       108.2934 
 253   0.0000       4.036229       109.8314 
 254   0.0000       4.042871       110.0121 
 255   0.0000       4.095957       111.4567 
 256   0.0000       4.110974       111.8653 
 257   0.0000       4.120238       112.1174 
 258   0.0000       4.148376       112.8830 
 259   0.0000       4.165299       113.3435 
 260   0.0000       4.189611       114.0051 
 261   0.0000       4.274507       116.3153 
 262   0.0000       4.291301       116.7722 
 263   0.0000       4.300942       117.0346 
 264   0.0000       4.325924       117.7144 
 265   0.0000       4.347129       118.2914 
 266   0.0000       4.369306       118.8949 
 267   0.0000       4.377265       119.1114 
 268   0.0000       4.393115       119.5427 
 269   0.0000       4.416885       120.1896 
 270   0.0000       5.506340       149.8351 
 271   0.0000       5.515516       150.0848 
 272   0.0000       5.519244       150.1863 
 273   0.0000       5.522423       150.2728 
 274   0.0000       5.538627       150.7137 
 275   0.0000       5.539749       150.7442 
 276   0.0000       5.543231       150.8390 
 277   0.0000       5.586519       152.0169 
 278   0.0000       5.600878       152.4076 
 279   0.0000       5.607538       152.5889 
 280   0.0000       5.615857       152.8152 
 281   0.0000       5.635863       153.3596 
 282   0.0000       5.654069       153.8550 
 283   0.0000       5.665703       154.1716 
 284   0.0000       5.674290       154.4053 
 285   0.0000       5.692222       154.8932 
 286   0.0000       5.697696       155.0422 
 287   0.0000       5.715356       155.5227 
 288   0.0000       5.769186       156.9875 
 289   0.0000       5.786020       157.4456 
 290   0.0000       5.792181       157.6133 
 291   0.0000       5.803843       157.9306 
 292   0.0000       5.805031       157.9629 
 293   0.0000       5.811550       158.1403 
 294   0.0000       5.819166       158.3476 
 295   0.0000       5.828092       158.5904 
 296   0.0000       5.834217       158.7571 
 297   0.0000       5.840865       158.9380 
 298   0.0000       5.847380       159.1153 
 299   0.0000       5.859861       159.4549 
 300   0.0000       5.864649       159.5852 
 301   0.0000       5.868051       159.6778 
 302   0.0000       5.871041       159.7591 
 303   0.0000       5.875369       159.8769 
 304   0.0000       5.876978       159.9207 
 305   0.0000       5.885383       160.1494 
 306   0.0000       5.891684       160.3209 
 307   0.0000       5.896812       160.4604 
 308   0.0000       5.905545       160.6981 
 309   0.0000       5.909063       160.7938 
 310   0.0000       5.915492       160.9687 
 311   0.0000       5.925263       161.2346 
 312   0.0000       5.941569       161.6783 
 313   0.0000       5.945323       161.7805 
 314   0.0000       5.968994       162.4246 
 315   0.0000       6.387630       173.8162 
 316   0.0000       6.446301       175.4128 
 317   0.0000       6.452488       175.5811 
 318   0.0000       6.462890       175.8642 
 319   0.0000       6.467649       175.9937 
 320   0.0000       6.475475       176.2066 
 321   0.0000       6.498366       176.8295 
 322   0.0000       6.513791       177.2493 
 323   0.0000       6.547512       178.1669 
 324   0.0000       6.643117       180.7684 
 325   0.0000       6.661903       181.2796 
 326   0.0000       6.680953       181.7980 
 327   0.0000       6.699844       182.3120 
 328   0.0000       6.725553       183.0116 
 329   0.0000       6.735553       183.2837 
 330   0.0000       6.742083       183.4614 
 331   0.0000       6.764018       184.0583 
 332   0.0000       6.791103       184.7953 
 333   0.0000       6.821505       185.6226 
 334   0.0000       6.839816       186.1209 
 335   0.0000       6.848548       186.3585 
 336   0.0000       6.855670       186.5523 
 337   0.0000       6.871976       186.9960 
 338   0.0000       6.874979       187.0777 
 339   0.0000       6.885768       187.3713 
 340   0.0000       6.890024       187.4871 
 341   0.0000       6.890905       187.5110 
 342   0.0000       6.905161       187.8990 
 343   0.0000       6.910760       188.0513 
 344   0.0000       6.918464       188.2610 
 345   0.0000       6.927439       188.5052 
 346   0.0000       6.933033       188.6574 
 347   0.0000       6.934480       188.6968 
 348   0.0000       6.944403       188.9668 
 349   0.0000       6.953692       189.2196 
 350   0.0000       6.965239       189.5338 
 351   0.0000       6.978340       189.8903 
 352   0.0000       6.986837       190.1215 
 353   0.0000       6.997873       190.4218 
 354   0.0000       7.021797       191.0728 
 355   0.0000       7.029441       191.2808 
 356   0.0000       7.055526       191.9906 
 357   0.0000       7.075815       192.5427 
 358   0.0000       7.093341       193.0196 
 359   0.0000       7.130695       194.0361 
 360   0.0000       7.345279       199.8752 
 361   0.0000       7.360314       200.2843 
 362   0.0000       7.384667       200.9470 
 363   0.0000       7.419381       201.8916 
 364   0.0000       7.451367       202.7620 
 365   0.0000       7.459845       202.9927 
 366   0.0000       7.467370       203.1975 
 367   0.0000       7.471203       203.3018 
 368   0.0000       7.491162       203.8449 
 369   0.0000       7.516750       204.5412 
 370   0.0000       7.529877       204.8984 
 371   0.0000       7.541159       205.2054 
 372   0.0000       7.557973       205.6629 
 373   0.0000       7.578825       206.2303 
 374   0.0000       7.588718       206.4995 
 375   0.0000       7.622734       207.4252 
 376   0.0000       7.641470       207.9350 
 377   0.0000       7.670392       208.7220 
 378   0.0000      44.900835      1221.8138 
 379   0.0000      44.971027      1223.7238 
 380   0.0000      44.985040      1224.1052 
 381   0.0000      45.005878      1224.6722 
 382   0.0000      45.028248      1225.2809 
 383   0.0000      45.033401      1225.4211 
 384   0.0000      45.067374      1226.3456 
 385   0.0000      45.113610      1227.6037 
 386   0.0000      45.205528      1230.1050 

                    ********************************
                    * MULLIKEN POPULATION ANALYSIS *
                    ********************************

-----------------------
MULLIKEN ATOMIC CHARGES
-----------------------
   0 O :   -0.799422
   1 H :    0.366518
   2 H :    0.412299
   3 O :   -0.797470
   4 H :    0.360309
   5 H :    0.417008
   6 O :   -0.743281
   7 H :    0.372296
   8 H :    0.387373
   9 O :   -0.756598
  10 H :    0.389021
  11 H :    0.353083
  12 O :   -0.797966
  13 H :    0.390738
  14 H :    0.399937
  15 O :   -0.741309
  16 H :    0.403646
  17 H :    0.357539
  18 O :   -0.787710
  19 H :    0.383771
  20 H :    0.374832
  21 O :   -0.767284
  22 H :    0.407155
  23 H :    0.388598
  24 O :   -0.743417
  25 H :    0.361209
  26 H :    0.409123
Sum of atomic charges:    0.0000000

--------------------------------
MULLIKEN REDUCED ORBITAL CHARGES
--------------------------------
  0 O s       :     3.806393  s :     3.806393
      pz      :     1.727150  p :     4.969895
      px      :     1.444805
      py      :     1.797941
      dz2     :     0.003514  d :     0.021753
      dxz     :     0.004307
      dyz     :     0.004987
      dx2y2   :     0.002202
      dxy     :     0.006743
      f0      :     0.000080  f :     0.001380
      f+1     :     0.000313
      f-1     :     0.000169
      f+2     :     0.000061
      f-2     :     0.000346
      f+3     :     0.000082
      f-3     :     0.000330
  1 H s       :     0.588297  s :     0.588297
      pz      :     0.016844  p :     0.045186
      px      :     0.013688
      py      :     0.014653
  2 H s       :     0.531947  s :     0.531947
      pz      :     0.009851  p :     0.055754
      px      :     0.032867
      py      :     0.013037
  3 O s       :     3.807549  s :     3.807549
      pz      :     1.728014  p :     4.966697
      px      :     1.448304
      py      :     1.790379
      dz2     :     0.003698  d :     0.021848
      dxz     :     0.004510
      dyz     :     0.004974
      dx2y2   :     0.002180
      dxy     :     0.006486
      f0      :     0.000081  f :     0.001376
      f+1     :     0.000315
      f-1     :     0.000169
      f+2     :     0.000060
      f-2     :     0.000345
      f+3     :     0.000081
      f-3     :     0.000325
  4 H s       :     0.594400  s :     0.594400
      pz      :     0.016951  p :     0.045291
      px      :     0.013698
      py      :     0.014642
  5 H s       :     0.527179  s :     0.527179
      pz      :     0.009743  p :     0.055813
      px      :     0.033080
      py      :     0.012990
  6 O s       :     3.807731  s :     3.807731
      pz      :     1.728770  p :     4.910095
      px      :     1.797555
      py      :     1.383770
      dz2     :     0.003962  d :     0.023977
      dxz     :     0.005475
      dyz     :     0.004433
      dx2y2   :     0.002534
      dxy     :     0.007573
      f0      :     0.000085  f :     0.001478
      f+1     :     0.000180
      f-1     :     0.000333
      f+2     :     0.000064
      f-2     :     0.000348
      f+3     :     0.000376
      f-3     :     0.000094
  7 H s       :     0.582671  s :     0.582671
      pz      :     0.016978  p :     0.045032
      px      :     0.014756
      py      :     0.013299
  8 H s       :     0.572215  s :     0.572215
      pz      :     0.010351  p :     0.040412
      px      :     0.012030
      py      :     0.018031
  9 O s       :     3.804442  s :     3.804442
      pz      :     1.558309  p :     4.926183
      px      :     1.549460
      py      :     1.818414
      dz2     :     0.011219  d :     0.024528
      dxz     :     0.001177
      dyz     :     0.002870
      dx2y2   :     0.002096
      dxy     :     0.007167
      f0      :     0.000248  f :     0.001443
      f+1     :     0.000370
      f-1     :     0.000160
      f+2     :     0.000056
      f-2     :     0.000055
      f+3     :     0.000066
      f-3     :     0.000487
 10 H s       :     0.562367  s :     0.562367
      pz      :     0.024529  p :     0.048612
      px      :     0.011407
      py      :     0.012676
 11 H s       :     0.596294  s :     0.596294
      pz      :     0.010600  p :     0.050623
      px      :     0.023162
      py      :     0.016861
 12 O s       :     3.798322  s :     3.798322
      pz      :     1.604405  p :     4.976343
      px      :     1.851885
      py      :     1.520053
      dz2     :     0.009940  d :     0.021980
      dxz     :     0.001905
      dyz     :     0.002432
      dx2y2   :     0.003095
      dxy     :     0.004609
      f0      :     0.000172  f :     0.001322
      f+1     :     0.000108
      f-1     :     0.000429
      f+2     :     0.000068
      f-2     :     0.000036
      f+3     :     0.000413
      f-3     :     0.000097
 13 H s       :     0.556635  s :     0.556635
      pz      :     0.008859  p :     0.052627
      px      :     0.014652
      py      :     0.029116
 14 H s       :     0.551566  s :     0.551566
      pz      :     0.024618  p :     0.048496
      px      :     0.012621
      py      :     0.011257
 15 O s       :     3.802722  s :     3.802722
      pz      :     1.607491  p :     4.912370
      px      :     1.464341
      py      :     1.840538
      dz2     :     0.011357  d :     0.024845
      dxz     :     0.002826
      dyz     :     0.002176
      dx2y2   :     0.003562
      dxy     :     0.004925
      f0      :     0.000147  f :     0.001373
      f+1     :     0.000455
      f-1     :     0.000111
      f+2     :     0.000067
      f-2     :     0.000039
      f+3     :     0.000106
      f-3     :     0.000447
 16 H s       :     0.547923  s :     0.547923
      pz      :     0.025314  p :     0.048430
      px      :     0.010731
      py      :     0.012385
 17 H s       :     0.599817  s :     0.599817
      pz      :     0.009980  p :     0.042644
      px      :     0.018598
      py      :     0.014066
 18 O s       :     3.807477  s :     3.807477
      pz      :     1.584723  p :     4.956330
      px      :     1.496030
      py      :     1.875577
      dz2     :     0.009892  d :     0.022514
      dxz     :     0.002514
      dyz     :     0.002276
      dx2y2   :     0.002868
      dxy     :     0.004964
      f0      :     0.000182  f :     0.001390
      f+1     :     0.000422
      f-1     :     0.000116
      f+2     :     0.000076
      f-2     :     0.000035
      f+3     :     0.000115
      f-3     :     0.000444
 19 H s       :     0.566897  s :     0.566897
      pz      :     0.024462  p :     0.049331
      px      :     0.011555
      py      :     0.013314
 20 H s       :     0.571452  s :     0.571452
      pz      :     0.009326  p :     0.053715
      px      :     0.028602
      py      :     0.015787
 21 O s       :     3.792897  s :     3.792897
      pz      :     1.577757  p :     4.949157
      px      :     1.782319
      py      :     1.589081
      dz2     :     0.011684  d :     0.023894
      dxz     :     0.002168
      dyz     :     0.001192
      dx2y2   :     0.002317
      dxy     :     0.006532
      f0      :     0.000226  f :     0.001335
      f+1     :     0.000147
      f-1     :     0.000377
      f+2     :     0.000050
      f-2     :     0.000054
      f+3     :     0.000436
      f-3     :     0.000045
 22 H s       :     0.545045  s :     0.545045
      pz      :     0.024971  p :     0.047800
      px      :     0.011867
      py      :     0.010961
 23 H s       :     0.561799  s :     0.561799
      pz      :     0.009848  p :     0.049603
      px      :     0.015650
      py      :     0.024105
 24 O s       :     3.795297  s :     3.795297
      pz      :     1.522199  p :     4.922146
      px      :     1.790001
      py      :     1.609945
      dz2     :     0.012348  d :     0.024593
      dxz     :     0.002244
      dyz     :     0.001274
      dx2y2   :     0.002275
      dxy     :     0.006452
      f0      :     0.000250  f :     0.001381
      f+1     :     0.000154
      f-1     :     0.000388
      f+2     :     0.000051
      f-2     :     0.000056
      f+3     :     0.000438
      f-3     :     0.000044
 25 H s       :     0.595003  s :     0.595003
      pz      :     0.019220  p :     0.043788
      px      :     0.012835
      py      :     0.011733
 26 H s       :     0.541811  s :     0.541811
      pz      :     0.009191  p :     0.049066
      px      :     0.015192
      py      :     0.024683


                     *******************************
                     * LOEWDIN POPULATION ANALYSIS *
                     *******************************

----------------------
LOEWDIN ATOMIC CHARGES
----------------------
   0 O :   -0.327694
   1 H :    0.161564
   2 H :    0.156510
   3 O :   -0.327741
   4 H :    0.158679
   5 H :    0.157418
   6 O :   -0.296965
   7 H :    0.166890
   8 H :    0.195165
   9 O :   -0.361486
  10 H :    0.156425
  11 H :    0.142740
  12 O :   -0.317098
  13 H :    0.151818
  14 H :    0.158335
  15 O :   -0.309596
  16 H :    0.160831
  17 H :    0.172872
  18 O :   -0.358288
  19 H :    0.151408
  20 H :    0.146019
  21 O :   -0.299834
  22 H :    0.162724
  23 H :    0.155552
  24 O :   -0.290159
  25 H :    0.169027
  26 H :    0.164886

-------------------------------
LOEWDIN REDUCED ORBITAL CHARGES
-------------------------------
  0 O s       :     3.454148  s :     3.454148
      pz      :     1.683310  p :     4.843518
      px      :     1.408225
      py      :     1.751983
      dz2     :     0.004582  d :     0.028092
      dxz     :     0.006495
      dyz     :     0.005037
      dx2y2   :     0.003590
      dxy     :     0.008388
      f0      :     0.000083  f :     0.001935
      f+1     :     0.000425
      f-1     :     0.000257
      f+2     :     0.000031
      f-2     :     0.000602
      f+3     :     0.000083
      f-3     :     0.000456
  1 H s       :     0.672890  s :     0.672890
      pz      :     0.066120  p :     0.165546
      px      :     0.046342
      py      :     0.053085
  2 H s       :     0.644436  s :     0.644436
      pz      :     0.033188  p :     0.199054
      px      :     0.118117
      py      :     0.047749
  3 O s       :     3.454655  s :     3.454655
      pz      :     1.684542  p :     4.842865
      px      :     1.409712
      py      :     1.748611
      dz2     :     0.004721  d :     0.028283
      dxz     :     0.006737
      dyz     :     0.005110
      dx2y2   :     0.003586
      dxy     :     0.008128
      f0      :     0.000087  f :     0.001937
      f+1     :     0.000426
      f-1     :     0.000255
      f+2     :     0.000031
      f-2     :     0.000608
      f+3     :     0.000083
      f-3     :     0.000447
  4 H s       :     0.675802  s :     0.675802
      pz      :     0.066246  p :     0.165519
      px      :     0.046367
      py      :     0.052906
  5 H s       :     0.642777  s :     0.642777
      pz      :     0.033199  p :     0.199805
      px      :     0.118980
      py      :     0.047626
  6 O s       :     3.462247  s :     3.462247
      pz      :     1.685664  p :     4.801188
      px      :     1.749572
      py      :     1.365951
      dz2     :     0.005369  d :     0.031465
      dxz     :     0.005365
      dyz     :     0.006667
      dx2y2   :     0.004152
      dxy     :     0.009912
      f0      :     0.000089  f :     0.002065
      f+1     :     0.000273
      f-1     :     0.000445
      f+2     :     0.000033
      f-2     :     0.000600
      f+3     :     0.000535
      f-3     :     0.000090
  7 H s       :     0.668936  s :     0.668936
      pz      :     0.066629  p :     0.164173
      px      :     0.052985
      py      :     0.044560
  8 H s       :     0.655677  s :     0.655677
      pz      :     0.033152  p :     0.149159
      px      :     0.043461
      py      :     0.072545
  9 O s       :     3.460368  s :     3.460368
      pz      :     1.539376  p :     4.869007
      px      :     1.537697
      py      :     1.791934
      dz2     :     0.014568  d :     0.030075
      dxz     :     0.001804
      dyz     :     0.002205
      dx2y2   :     0.002212
      dxy     :     0.009285
      f0      :     0.000432  f :     0.002037
      f+1     :     0.000545
      f-1     :     0.000306
      f+2     :     0.000023
      f-2     :     0.000046
      f+3     :     0.000002
      f-3     :     0.000683
 10 H s       :     0.671537  s :     0.671537
      pz      :     0.093674  p :     0.172038
      px      :     0.036488
      py      :     0.041876
 11 H s       :     0.684997  s :     0.684997
      pz      :     0.031746  p :     0.172263
      px      :     0.082717
      py      :     0.057800
 12 O s       :     3.448858  s :     3.448858
      pz      :     1.557803  p :     4.838156
      px      :     1.790924
      py      :     1.489430
      dz2     :     0.013263  d :     0.028186
      dxz     :     0.001168
      dyz     :     0.003572
      dx2y2   :     0.004569
      dxy     :     0.005613
      f0      :     0.000344  f :     0.001898
      f+1     :     0.000189
      f-1     :     0.000685
      f+2     :     0.000035
      f-2     :     0.000044
      f+3     :     0.000536
      f-3     :     0.000066
 13 H s       :     0.660211  s :     0.660211
      pz      :     0.030335  p :     0.187971
      px      :     0.052670
      py      :     0.104965
 14 H s       :     0.668049  s :     0.668049
      pz      :     0.093394  p :     0.173616
      px      :     0.042878
      py      :     0.037344
 15 O s       :     3.461594  s :     3.461594
      pz      :     1.580084  p :     4.815012
      px      :     1.453925
      py      :     1.781003
      dz2     :     0.014065  d :     0.030983
      dxz     :     0.003661
      dyz     :     0.001273
      dx2y2   :     0.005461
      dxy     :     0.006523
      f0      :     0.000319  f :     0.002007
      f+1     :     0.000709
      f-1     :     0.000203
      f+2     :     0.000037
      f-2     :     0.000042
      f+3     :     0.000073
      f-3     :     0.000624
 16 H s       :     0.665316  s :     0.665316
      pz      :     0.095577  p :     0.173853
      px      :     0.035938
      py      :     0.042337
 17 H s       :     0.672817  s :     0.672817
      pz      :     0.030601  p :     0.154312
      px      :     0.074479
      py      :     0.049231
 18 O s       :     3.456910  s :     3.456910
      pz      :     1.551852  p :     4.870832
      px      :     1.480937
      py      :     1.838043
      dz2     :     0.013580  d :     0.028618
      dxz     :     0.003777
      dyz     :     0.001493
      dx2y2   :     0.003785
      dxy     :     0.005983
      f0      :     0.000359  f :     0.001928
      f+1     :     0.000689
      f-1     :     0.000180
      f+2     :     0.000041
      f-2     :     0.000042
      f+3     :     0.000066
      f-3     :     0.000551
 19 H s       :     0.675534  s :     0.675534
      pz      :     0.092761  p :     0.173058
      px      :     0.037192
      py      :     0.043105
 20 H s       :     0.667532  s :     0.667532
      pz      :     0.030616  p :     0.186450
      px      :     0.103089
      py      :     0.052744
 21 O s       :     3.445395  s :     3.445395
      pz      :     1.545527  p :     4.822980
      px      :     1.725496
      py      :     1.551957
      dz2     :     0.014619  d :     0.029471
      dxz     :     0.001637
      dyz     :     0.001746
      dx2y2   :     0.003397
      dxy     :     0.008072
      f0      :     0.000408  f :     0.001988
      f+1     :     0.000316
      f-1     :     0.000536
      f+2     :     0.000019
      f-2     :     0.000048
      f+3     :     0.000635
      f-3     :     0.000025
 22 H s       :     0.664156  s :     0.664156
      pz      :     0.094830  p :     0.173120
      px      :     0.041367
      py      :     0.036923
 23 H s       :     0.669029  s :     0.669029
      pz      :     0.031174  p :     0.175419
      px      :     0.057872
      py      :     0.086373
 24 O s       :     3.450709  s :     3.450709
      pz      :     1.515327  p :     4.806477
      px      :     1.729935
      py      :     1.561215
      dz2     :     0.016153  d :     0.030904
      dxz     :     0.001791
      dyz     :     0.002096
      dx2y2   :     0.003258
      dxy     :     0.007607
      f0      :     0.000470  f :     0.002069
      f+1     :     0.000325
      f-1     :     0.000569
      f+2     :     0.000020
      f-2     :     0.000052
      f+3     :     0.000608
      f-3     :     0.000025
 25 H s       :     0.671623  s :     0.671623
      pz      :     0.080576  p :     0.159350
      px      :     0.041954
      py      :     0.036820
 26 H s       :     0.658905  s :     0.658905
      pz      :     0.029213  p :     0.176209
      px      :     0.058028
      py      :     0.088968


                      *****************************
                      * MAYER POPULATION ANALYSIS *
                      *****************************

  NA   - Mulliken gross atomic population
  ZA   - Total nuclear charge
  QA   - Mulliken gross atomic charge
  VA   - Mayer's total valence
  BVA  - Mayer's bonded valence
  FA   - Mayer's free valence

  ATOM       NA         ZA         QA         VA         BVA        FA
  0 O      8.7994     8.0000    -0.7994     1.6695     1.6695    -0.0000
  1 H      0.6335     1.0000     0.3665     0.8831     0.8831    -0.0000
  2 H      0.5877     1.0000     0.4123     0.8704     0.8704     0.0000
  3 O      8.7975     8.0000    -0.7975     1.6700     1.6700     0.0000
  4 H      0.6397     1.0000     0.3603     0.8875     0.8875     0.0000
  5 H      0.5830     1.0000     0.4170     0.8660     0.8660     0.0000
  6 O      8.7433     8.0000    -0.7433     1.7521     1.7521     0.0000
  7 H      0.6277     1.0000     0.3723     0.8774     0.8774    -0.0000
  8 H      0.6126     1.0000     0.3874     0.8643     0.8643     0.0000
  9 O      8.7566     8.0000    -0.7566     1.7254     1.7254     0.0000
 10 H      0.6110     1.0000     0.3890     0.8774     0.8774    -0.0000
 11 H      0.6469     1.0000     0.3531     0.9020     0.9020     0.0000
 12 O      8.7980     8.0000    -0.7980     1.6671     1.6671     0.0000
 13 H      0.6093     1.0000     0.3907     0.8868     0.8868    -0.0000
 14 H      0.6001     1.0000     0.3999     0.8701     0.8701     0.0000
 15 O      8.7413     8.0000    -0.7413     1.7486     1.7486    -0.0000
 16 H      0.5964     1.0000     0.4036     0.8677     0.8677    -0.0000
 17 H      0.6425     1.0000     0.3575     0.8923     0.8923     0.0000
 18 O      8.7877     8.0000    -0.7877     1.6797     1.6797    -0.0000
 19 H      0.6162     1.0000     0.3838     0.8836     0.8836     0.0000
 20 H      0.6252     1.0000     0.3748     0.8983     0.8983     0.0000
 21 O      8.7673     8.0000    -0.7673     1.7256     1.7256    -0.0000
 22 H      0.5928     1.0000     0.4072     0.8603     0.8603     0.0000
 23 H      0.6114     1.0000     0.3886     0.8822     0.8822    -0.0000
 24 O      8.7434     8.0000    -0.7434     1.7424     1.7424    -0.0000
 25 H      0.6388     1.0000     0.3612     0.8855     0.8855     0.0000
 26 H      0.5909     1.0000     0.4091     0.8699     0.8699    -0.0000

  Mayer bond orders larger than 0.100000
B(  0-O ,  1-H ) :   0.8734 B(  0-O ,  2-H ) :   0.7696 B(  3-O ,  4-H ) :   0.8773 
B(  3-O ,  5-H ) :   0.7633 B(  6-O ,  7-H ) :   0.8682 B(  6-O ,  8-H ) :   0.8524 
B(  9-O , 10-H ) :   0.8472 B(  9-O , 11-H ) :   0.8790 B( 12-O , 13-H ) :   0.8048 
B( 12-O , 14-H ) :   0.8361 B( 15-O , 16-H ) :   0.8266 B( 15-O , 17-H ) :   0.8758 
B( 18-O , 19-H ) :   0.8496 B( 18-O , 20-H ) :   0.8250 B( 21-O , 22-H ) :   0.8299 
B( 21-O , 23-H ) :   0.8375 B( 24-O , 25-H ) :   0.8766 B( 24-O , 26-H ) :   0.8119 


-------
TIMINGS
-------

Total SCF time: 0 days 0 hours 0 min 41 sec 

Total time                  ....      41.085 sec
Sum of individual times     ....      40.724 sec  ( 99.1%)

Fock matrix formation       ....      39.914 sec  ( 97.1%)
Diagonalization             ....       0.210 sec  (  0.5%)
Density matrix formation    ....       0.018 sec  (  0.0%)
Population analysis         ....       0.051 sec  (  0.1%)
Initial guess               ....       0.239 sec  (  0.6%)
Orbital Transformation      ....       0.000 sec  (  0.0%)
Orbital Orthonormalization  ....       0.000 sec  (  0.0%)
DIIS solution               ....       0.080 sec  (  0.2%)
SOSCF solution              ....       0.091 sec  (  0.2%)


           ************************************************************
           *        Program running with 6 parallel MPI-processes     *
           *              working on a common directory               *
           ************************************************************

------------------------------------------------------------------------------
                                ORCA  MP2 
------------------------------------------------------------------------------

Freezing NCore=18 chemical core electrons
MP2 will be done in the AO integral direct mode
The Q1-step will be done using symmetric double matrices
Dimension of the basis                    ...  387
Memory devoted for MP2                    ... 8000 MB   
Memory needed for all in one shot         ... 1331 MB
Number of MOs that can be treated together...   35      
MP2 density construction                  ... relaxed
The MP2 gradient is requested => amplitudes will be stored on disk
Total number of MOs              ...   36
Number of MOs treated per batch  ...    6 
Number of batches necessary      ...    1 
OPERATORS   0/  0 PASS   0
-----------------------------------------------
 MP2 CORRELATION ENERGY   :     -2.337741289 Eh
-----------------------------------------------


---------------------
MP2 DENSITY FORMATION
---------------------

Completing the external part of the density      ... done
Storing the unrelaxed density                    ... done

Calculating G(D)                                 ... done
Completing the Lagrangian                        ... done
Solving the Z-vector equations                   ... 

------------------------------------------------------------------------------
                           ORCA CP-SCF CALCULATION
------------------------------------------------------------------------------

Input orbitals are from        ... 12h2o.su.etal.mol0,1,2,3,5,6,7,9,11-orca.engrad-mp2.def2tzvp.frozencore.gbw
Input Perturbation             ... 12h2o.su.etal.mol0,1,2,3,5,6,7,9,11-orca.engrad-mp2.def2tzvp.frozencore.pin.tmp
Wavefunction output            ... 12h2o.su.etal.mol0,1,2,3,5,6,7,9,11-orca.engrad-mp2.def2tzvp.frozencore.pout.tmp
Perturbation mode              ... Real perturbation (singlet)
Solver                         ... POPLE
Max. number of iterations      ... 128
Convergence tolerance          ... 1.000e-08
Integral handling              ... Direct
Number of perturbations        ... 1
Number of operators            ... 1
Orbital ranges used for CP-SCF:
 Operator 0:  Orbitals   0... 44  to  45...386
Variables per vector in CP-SCF ... 15390
Number of vectors sought       ... 1
     CP-SCF ITERATION   0: 
     CP-SCF ITERATION   1:      0.001175841898
     CP-SCF ITERATION   2:      0.000033598752
     CP-SCF ITERATION   3:      0.000001280835
     CP-SCF ITERATION   4:      0.000000156676
     CP-SCF ITERATION   5:      0.000000013212
     CP-SCF ITERATION   6:      0.000000000917
                                                 ... done
Finalizing the relaxed density                   ... done
Transforming P to the AO basis                   ... done
Storing the relaxed density                      ... done

------------------------------------
ENERGY WEIGHTED DENSITY FINALIZATION
------------------------------------

Gathering the parts of the W-matrix              ...                                                      done
Forming the Z-density                            ... done
Transforming Z to the AO basis                   ... done
Calculating G(Z)                                 ... done
Finalizing the W-matrix                          ...                                                      done
Transforming W to the AO basis and storing       ... done

                *********************************************
                * UNRELAXED MP2 DENSITY POPULATION ANALYSIS *
                *********************************************

------------------------------------------------------------------------------
                           ORCA POPULATION ANALYSIS
------------------------------------------------------------------------------
Input electron density              ... 12h2o.su.etal.mol0,1,2,3,5,6,7,9,11-orca.engrad-mp2.def2tzvp.frozencore.pmp2ur
BaseName (.gbw .S,...)              ... 12h2o.su.etal.mol0,1,2,3,5,6,7,9,11-orca.engrad-mp2.def2tzvp.frozencore

                    ********************************
                    * MULLIKEN POPULATION ANALYSIS *
                    ********************************

-----------------------
MULLIKEN ATOMIC CHARGES
-----------------------
   0 O :   -0.792668
   1 H :    0.364192
   2 H :    0.407258
   3 O :   -0.790666
   4 H :    0.357954
   5 H :    0.411907
   6 O :   -0.737530
   7 H :    0.370053
   8 H :    0.384518
   9 O :   -0.750873
  10 H :    0.385950
  11 H :    0.349947
  12 O :   -0.790460
  13 H :    0.386051
  14 H :    0.396950
  15 O :   -0.734461
  16 H :    0.400469
  17 H :    0.354630
  18 O :   -0.781132
  19 H :    0.380691
  20 H :    0.370037
  21 O :   -0.759809
  22 H :    0.404083
  23 H :    0.385103
  24 O :   -0.736405
  25 H :    0.358697
  26 H :    0.405514
Sum of atomic charges:    0.0000000

--------------------------------
MULLIKEN REDUCED ORBITAL CHARGES
--------------------------------
  0 O s       :     3.801434  s :     3.801434
      pz      :     1.715962  p :     4.937493
      px      :     1.435737
      py      :     1.785795
      dz2     :     0.009213  d :     0.049762
      dxz     :     0.009849
      dyz     :     0.010554
      dx2y2   :     0.007885
      dxy     :     0.012262
      f0      :     0.000454  f :     0.003979
      f+1     :     0.000682
      f-1     :     0.000537
      f+2     :     0.000434
      f-2     :     0.000714
      f+3     :     0.000459
      f-3     :     0.000700
  1 H s       :     0.589042  s :     0.589042
      pz      :     0.017301  p :     0.046765
      px      :     0.014123
      py      :     0.015342
  2 H s       :     0.535380  s :     0.535380
      pz      :     0.010647  p :     0.057363
      px      :     0.032980
      py      :     0.013736
  3 O s       :     3.802593  s :     3.802593
      pz      :     1.716889  p :     4.934256
      px      :     1.439223
      py      :     1.778145
      dz2     :     0.009395  d :     0.049843
      dxz     :     0.010052
      dyz     :     0.010521
      dx2y2   :     0.007864
      dxy     :     0.012011
      f0      :     0.000455  f :     0.003974
      f+1     :     0.000684
      f-1     :     0.000537
      f+2     :     0.000432
      f-2     :     0.000713
      f+3     :     0.000458
      f-3     :     0.000695
  4 H s       :     0.595155  s :     0.595155
      pz      :     0.017427  p :     0.046891
      px      :     0.014142
      py      :     0.015322
  5 H s       :     0.530682  s :     0.530682
      pz      :     0.010540  p :     0.057411
      px      :     0.033196
      py      :     0.013676
  6 O s       :     3.802876  s :     3.802876
      pz      :     1.717662  p :     4.879334
      px      :     1.785755
      py      :     1.375916
      dz2     :     0.009536  d :     0.051274
      dxz     :     0.010983
      dyz     :     0.009841
      dx2y2   :     0.008022
      dxy     :     0.012891
      f0      :     0.000457  f :     0.004047
      f+1     :     0.000547
      f-1     :     0.000695
      f+2     :     0.000433
      f-2     :     0.000713
      f+3     :     0.000736
      f-3     :     0.000465
  7 H s       :     0.583389  s :     0.583389
      pz      :     0.017434  p :     0.046558
      px      :     0.015447
      py      :     0.013676
  8 H s       :     0.573595  s :     0.573595
      pz      :     0.011164  p :     0.041887
      px      :     0.012768
      py      :     0.017955
  9 O s       :     3.799625  s :     3.799625
      pz      :     1.548729  p :     4.895709
      px      :     1.540068
      py      :     1.806912
      dz2     :     0.016409  d :     0.051522
      dxz     :     0.006642
      dyz     :     0.008373
      dx2y2   :     0.007660
      dxy     :     0.012437
      f0      :     0.000629  f :     0.004018
      f+1     :     0.000739
      f-1     :     0.000534
      f+2     :     0.000417
      f-2     :     0.000421
      f+3     :     0.000435
      f-3     :     0.000843
 10 H s       :     0.563908  s :     0.563908
      pz      :     0.024567  p :     0.050142
      px      :     0.012072
      py      :     0.013503
 11 H s       :     0.597718  s :     0.597718
      pz      :     0.011435  p :     0.052336
      px      :     0.023389
      py      :     0.017512
 12 O s       :     3.793078  s :     3.793078
      pz      :     1.594211  p :     4.943134
      px      :     1.838676
      py      :     1.510247
      dz2     :     0.015522  d :     0.050309
      dxz     :     0.007719
      dyz     :     0.008004
      dx2y2   :     0.008840
      dxy     :     0.010223
      f0      :     0.000562  f :     0.003940
      f+1     :     0.000487
      f-1     :     0.000802
      f+2     :     0.000437
      f-2     :     0.000406
      f+3     :     0.000775
      f-3     :     0.000470
 13 H s       :     0.559697  s :     0.559697
      pz      :     0.009657  p :     0.054252
      px      :     0.015332
      py      :     0.029263
 14 H s       :     0.553061  s :     0.553061
      pz      :     0.024724  p :     0.049989
      px      :     0.013435
      py      :     0.011830
 15 O s       :     3.797617  s :     3.797617
      pz      :     1.597406  p :     4.880696
      px      :     1.455577
      py      :     1.827713
      dz2     :     0.016612  d :     0.052188
      dxz     :     0.008205
      dyz     :     0.007837
      dx2y2   :     0.009115
      dxy     :     0.010419
      f0      :     0.000535  f :     0.003960
      f+1     :     0.000822
      f-1     :     0.000489
      f+2     :     0.000432
      f-2     :     0.000406
      f+3     :     0.000474
      f-3     :     0.000802
 16 H s       :     0.549643  s :     0.549643
      pz      :     0.025405  p :     0.049888
      px      :     0.011294
      py      :     0.013189
 17 H s       :     0.601116  s :     0.601116
      pz      :     0.010821  p :     0.044254
      px      :     0.018632
      py      :     0.014801
 18 O s       :     3.802482  s :     3.802482
      pz      :     1.574689  p :     4.924435
      px      :     1.486438
      py      :     1.863308
      dz2     :     0.015366  d :     0.050233
      dxz     :     0.008039
      dyz     :     0.007958
      dx2y2   :     0.008438
      dxy     :     0.010433
      f0      :     0.000569  f :     0.003981
      f+1     :     0.000795
      f-1     :     0.000491
      f+2     :     0.000441
      f-2     :     0.000404
      f+3     :     0.000481
      f-3     :     0.000800
 19 H s       :     0.568427  s :     0.568427
      pz      :     0.024569  p :     0.050882
      px      :     0.012155
      py      :     0.014158
 20 H s       :     0.574544  s :     0.574544
      pz      :     0.010155  p :     0.055420
      px      :     0.028745
      py      :     0.016519
 21 O s       :     3.787718  s :     3.787718
      pz      :     1.567900  p :     4.916477
      px      :     1.769433
      py      :     1.579143
      dz2     :     0.016983  d :     0.051664
      dxz     :     0.007847
      dyz     :     0.006733
      dx2y2   :     0.008067
      dxy     :     0.012034
      f0      :     0.000612  f :     0.003950
      f+1     :     0.000526
      f-1     :     0.000749
      f+2     :     0.000415
      f-2     :     0.000424
      f+3     :     0.000801
      f-3     :     0.000423
 22 H s       :     0.546656  s :     0.546656
      pz      :     0.025011  p :     0.049261
      px      :     0.012647
      py      :     0.011603
 23 H s       :     0.563762  s :     0.563762
      pz      :     0.010627  p :     0.051135
      px      :     0.016205
      py      :     0.024304
 24 O s       :     3.790064  s :     3.790064
      pz      :     1.513002  p :     4.890319
      px      :     1.777201
      py      :     1.600115
      dz2     :     0.017479  d :     0.052041
      dxz     :     0.007854
      dyz     :     0.006739
      dx2y2   :     0.008004
      dxy     :     0.011965
      f0      :     0.000630  f :     0.003981
      f+1     :     0.000530
      f-1     :     0.000756
      f+2     :     0.000414
      f-2     :     0.000424
      f+3     :     0.000804
      f-3     :     0.000423
 25 H s       :     0.595923  s :     0.595923
      pz      :     0.019299  p :     0.045380
      px      :     0.013651
      py      :     0.012430
 26 H s       :     0.543989  s :     0.543989
      pz      :     0.009918  p :     0.050497
      px      :     0.015718
      py      :     0.024861


                     *******************************
                     * LOEWDIN POPULATION ANALYSIS *
                     *******************************

----------------------
LOEWDIN ATOMIC CHARGES
----------------------
   0 O :   -0.323511
   1 H :    0.160274
   2 H :    0.153754
   3 O :   -0.323551
   4 H :    0.157342
   5 H :    0.154649
   6 O :   -0.292567
   7 H :    0.165706
   8 H :    0.193372
   9 O :   -0.358705
  10 H :    0.154481
  11 H :    0.140579
  12 O :   -0.312482
  13 H :    0.149064
  14 H :    0.156257
  15 O :   -0.305062
  16 H :    0.158768
  17 H :    0.171004
  18 O :   -0.354794
  19 H :    0.149274
  20 H :    0.143251
  21 O :   -0.295421
  22 H :    0.160714
  23 H :    0.153279
  24 O :   -0.285818
  25 H :    0.167491
  26 H :    0.162654

-------------------------------
LOEWDIN REDUCED ORBITAL CHARGES
-------------------------------
  0 O s       :     3.450521  s :     3.450521
      pz      :     1.671677  p :     4.811031
      px      :     1.399601
      py      :     1.739753
      dz2     :     0.010407  d :     0.057227
      dxz     :     0.012253
      dyz     :     0.010937
      dx2y2   :     0.009369
      dxy     :     0.014261
      f0      :     0.000468  f :     0.004732
      f+1     :     0.000842
      f-1     :     0.000644
      f+2     :     0.000411
      f-2     :     0.001014
      f+3     :     0.000474
      f-3     :     0.000878
  1 H s       :     0.671122  s :     0.671122
      pz      :     0.067305  p :     0.168605
      px      :     0.047252
      py      :     0.054048
  2 H s       :     0.644864  s :     0.644864
      pz      :     0.034007  p :     0.201383
      px      :     0.118782
      py      :     0.048593
  3 O s       :     3.451031  s :     3.451031
      pz      :     1.672977  p :     4.810365
[...]
                     * LOEWDIN POPULATION ANALYSIS *
                     *******************************

----------------------
LOEWDIN ATOMIC CHARGES
----------------------
   0 O :   -0.316086
   1 H :    0.162124
   2 H :    0.145604
   3 O :   -0.316018
   4 H :    0.159177
   5 H :    0.146343
   6 O :   -0.286991
   7 H :    0.167387
   8 H :    0.194102
   9 O :   -0.358736
  10 H :    0.150821
  11 H :    0.136973
  12 O :   -0.302837
  13 H :    0.142006
  14 H :    0.152213
  15 O :   -0.298171
  16 H :    0.154066
  17 H :    0.171688
  18 O :   -0.351410
  19 H :    0.145051
  20 H :    0.136379
  21 O :   -0.286612
  22 H :    0.157037
  23 H :    0.148632
  24 O :   -0.278628
  25 H :    0.168929
  26 H :    0.156957

-------------------------------
LOEWDIN REDUCED ORBITAL CHARGES
-------------------------------
  0 O s       :     3.451919  s :     3.451919
      pz      :     1.666306  p :     4.802558
      px      :     1.403584
      py      :     1.732668
      dz2     :     0.010493  d :     0.056837
      dxz     :     0.011933
      dyz     :     0.010900
      dx2y2   :     0.009432
      dxy     :     0.014079
      f0      :     0.000472  f :     0.004772
      f+1     :     0.000853
      f-1     :     0.000646
      f+2     :     0.000412
      f-2     :     0.001016
      f+3     :     0.000479
      f-3     :     0.000894
  1 H s       :     0.669429  s :     0.669429
      pz      :     0.067165  p :     0.168448
      px      :     0.046860
      py      :     0.054423
  2 H s       :     0.652703  s :     0.652703
      pz      :     0.034511  p :     0.201693
      px      :     0.118176
      py      :     0.049005
  3 O s       :     3.452547  s :     3.452547
      pz      :     1.668102  p :     4.801633
      px      :     1.405006
      py      :     1.728525
      dz2     :     0.010656  d :     0.057063
      dxz     :     0.012169
      dyz     :     0.010978
      dx2y2   :     0.009422
      dxy     :     0.013837
      f0      :     0.000476  f :     0.004775
      f+1     :     0.000855
      f-1     :     0.000644
      f+2     :     0.000412
      f-2     :     0.001022
      f+3     :     0.000480
      f-3     :     0.000886
  4 H s       :     0.672266  s :     0.672266
      pz      :     0.067487  p :     0.168557
      px      :     0.046919
      py      :     0.054151
  5 H s       :     0.651398  s :     0.651398
      pz      :     0.034575  p :     0.202259
      px      :     0.118921
      py      :     0.048763
  6 O s       :     3.460280  s :     3.460280
      pz      :     1.668969  p :     4.763024
      px      :     1.731251
      py      :     1.362804
      dz2     :     0.011024  d :     0.058840
      dxz     :     0.011155
      dyz     :     0.011920
      dx2y2   :     0.009564
      dxy     :     0.015177
      f0      :     0.000476  f :     0.004848
      f+1     :     0.000661
      f-1     :     0.000861
      f+2     :     0.000410
      f-2     :     0.001008
      f+3     :     0.000954
      f-3     :     0.000478
  7 H s       :     0.665736  s :     0.665736
      pz      :     0.067743  p :     0.166876
      px      :     0.054534
      py      :     0.044599
  8 H s       :     0.653964  s :     0.653964
      pz      :     0.034642  p :     0.151935
      px      :     0.045106
      py      :     0.072187
  9 O s       :     3.457370  s :     3.457370
      pz      :     1.531040  p :     4.839283
      px      :     1.529350
      py      :     1.778893
      dz2     :     0.019913  d :     0.057252
      dxz     :     0.007107
      dyz     :     0.007675
      dx2y2   :     0.007724
      dxy     :     0.014834
      f0      :     0.000857  f :     0.004831
      f+1     :     0.000977
      f-1     :     0.000702
      f+2     :     0.000390
      f-2     :     0.000420
      f+3     :     0.000376
      f-3     :     0.001108
 10 H s       :     0.673999  s :     0.673999
      pz      :     0.094122  p :     0.175181
      px      :     0.037610
      py      :     0.043449
 11 H s       :     0.686682  s :     0.686682
      pz      :     0.033164  p :     0.176345
      px      :     0.083671
      py      :     0.059511
 12 O s       :     3.445925  s :     3.445925
      pz      :     1.545504  p :     4.794832
      px      :     1.767323
      py      :     1.482004
      dz2     :     0.019215  d :     0.057322
      dxz     :     0.006987
      dyz     :     0.009035
      dx2y2   :     0.010537
      dxy     :     0.011548
      f0      :     0.000772  f :     0.004758
      f+1     :     0.000588
      f-1     :     0.001142
      f+2     :     0.000413
      f-2     :     0.000420
      f+3     :     0.000969
      f-3     :     0.000454
 13 H s       :     0.666469  s :     0.666469
      pz      :     0.031628  p :     0.191524
      px      :     0.054040
      py      :     0.105857
 14 H s       :     0.671016  s :     0.671016
      pz      :     0.094088  p :     0.176771
      px      :     0.044357
      py      :     0.038326
 15 O s       :     3.458726  s :     3.458726
      pz      :     1.571196  p :     4.776163
      px      :     1.447919
      py      :     1.757048
      dz2     :     0.019485  d :     0.058473
      dxz     :     0.008899
      dyz     :     0.006928
      dx2y2   :     0.011061
      dxy     :     0.012099
      f0      :     0.000737  f :     0.004808
      f+1     :     0.001154
      f-1     :     0.000596
      f+2     :     0.000412
      f-2     :     0.000413
      f+3     :     0.000454
      f-3     :     0.001042
 16 H s       :     0.669151  s :     0.669151
      pz      :     0.096338  p :     0.176784
      px      :     0.036698
      py      :     0.043747
 17 H s       :     0.670607  s :     0.670607
      pz      :     0.032050  p :     0.157705
      px      :     0.074923
      py      :     0.050732
 18 O s       :     3.454152  s :     3.454152
      pz      :     1.539381  p :     4.835538
      px      :     1.473295
      py      :     1.822862
      dz2     :     0.019371  d :     0.056964
      dxz     :     0.009181
      dyz     :     0.007187
      dx2y2   :     0.009510
      dxy     :     0.011715
      f0      :     0.000784  f :     0.004757
      f+1     :     0.001145
      f-1     :     0.000572
      f+2     :     0.000416
      f-2     :     0.000416
      f+3     :     0.000446
      f-3     :     0.000977
 19 H s       :     0.678502  s :     0.678502
      pz      :     0.093563  p :     0.176447
      px      :     0.038164
      py      :     0.044720
 20 H s       :     0.673463  s :     0.673463
      pz      :     0.032008  p :     0.190158
      px      :     0.103829
      py      :     0.054321
 21 O s       :     3.441868  s :     3.441868
      pz      :     1.537475  p :     4.782194
      px      :     1.701401
      py      :     1.543318
      dz2     :     0.020152  d :     0.057724
      dxz     :     0.007289
      dyz     :     0.007150
      dx2y2   :     0.009192
      dxy     :     0.013942
      f0      :     0.000839  f :     0.004826
      f+1     :     0.000721
      f-1     :     0.000971
      f+2     :     0.000390
      f-2     :     0.000426
      f+3     :     0.001071
      f-3     :     0.000409
 22 H s       :     0.666938  s :     0.666938
      pz      :     0.095320  p :     0.176025
      px      :     0.042611
      py      :     0.038095
 23 H s       :     0.672549  s :     0.672549
      pz      :     0.032478  p :     0.178819
      px      :     0.059088
      py      :     0.087254
 24 O s       :     3.447611  s :     3.447611
      pz      :     1.508120  p :     4.767535
      px      :     1.705968
      py      :     1.553447
      dz2     :     0.021337  d :     0.058595
      dxz     :     0.007358
      dyz     :     0.007375
      dx2y2   :     0.009034
      dxy     :     0.013491
      f0      :     0.000890  f :     0.004886
      f+1     :     0.000725
      f-1     :     0.001000
      f+2     :     0.000391
      f-2     :     0.000427
      f+3     :     0.001044
      f-3     :     0.000409
 25 H s       :     0.668517  s :     0.668517
      pz      :     0.081318  p :     0.162554
      px      :     0.043316
      py      :     0.037920
 26 H s       :     0.663926  s :     0.663926
      pz      :     0.030266  p :     0.179117
      px      :     0.059133
      py      :     0.089719


                      *****************************
                      * MAYER POPULATION ANALYSIS *
                      *****************************

  NA   - Mulliken gross atomic population
  ZA   - Total nuclear charge
  QA   - Mulliken gross atomic charge
  VA   - Mayer's total valence
  BVA  - Mayer's bonded valence
  FA   - Mayer's free valence

  ATOM       NA         ZA         QA         VA         BVA        FA
  0 O      8.7612     8.0000    -0.7612     2.0322     1.6413     0.3909
  1 H      0.6430     1.0000     0.3570     0.8940     0.8483     0.0457
  2 H      0.6179     1.0000     0.3821     0.9086     0.8640     0.0446
  3 O      8.7587     8.0000    -0.7587     2.0327     1.6415     0.3912
  4 H      0.6493     1.0000     0.3507     0.8985     0.8522     0.0463
  5 H      0.6144     1.0000     0.3856     0.9055     0.8611     0.0444
  6 O      8.7151     8.0000    -0.7151     2.1035     1.7176     0.3859
  7 H      0.6369     1.0000     0.3631     0.8884     0.8437     0.0447
  8 H      0.6232     1.0000     0.3768     0.8783     0.8319     0.0464
  9 O      8.7290     8.0000    -0.7290     2.0546     1.6694     0.3852
 10 H      0.6283     1.0000     0.3717     0.9028     0.8589     0.0439
 11 H      0.6645     1.0000     0.3355     0.9286     0.8816     0.0470
 12 O      8.7523     8.0000    -0.7523     2.0398     1.6494     0.3904
 13 H      0.6376     1.0000     0.3624     0.9255     0.8797     0.0459
 14 H      0.6188     1.0000     0.3812     0.8964     0.8532     0.0432
 15 O      8.7044     8.0000    -0.7044     2.1002     1.7146     0.3856
 16 H      0.6159     1.0000     0.3841     0.8968     0.8540     0.0428
 17 H      0.6535     1.0000     0.3465     0.9085     0.8603     0.0482
 18 O      8.7514     8.0000    -0.7514     2.0269     1.6360     0.3909
 19 H      0.6360     1.0000     0.3640     0.9115     0.8668     0.0447
 20 H      0.6543     1.0000     0.3457     0.9390     0.8916     0.0474
 21 O      8.7245     8.0000    -0.7245     2.0854     1.7000     0.3855
 22 H      0.6097     1.0000     0.3903     0.8850     0.8422     0.0428
 23 H      0.6324     1.0000     0.3676     0.9136     0.8691     0.0445
 24 O      8.7065     8.0000    -0.7065     2.0894     1.7060     0.3834
 25 H      0.6473     1.0000     0.3527     0.8966     0.8499     0.0467
 26 H      0.6137     1.0000     0.3863     0.9041     0.8615     0.0425

  Mayer bond orders larger than 0.100000
B(  0-O ,  1-H ) :   0.8370 B(  0-O ,  2-H ) :   0.7315 B(  2-H , 24-O ) :   0.1160 
B(  3-O ,  4-H ) :   0.8401 B(  3-O ,  5-H ) :   0.7257 B(  5-H , 21-O ) :   0.1230 
B(  6-O ,  7-H ) :   0.8329 B(  6-O ,  8-H ) :   0.8161 B(  9-O , 10-H ) :   0.8152 
B(  9-O , 11-H ) :   0.8428 B( 12-O , 13-H ) :   0.7648 B( 12-O , 14-H ) :   0.8037 
B( 15-O , 16-H ) :   0.7946 B( 15-O , 17-H ) :   0.8372 B( 18-O , 19-H ) :   0.8163 
B( 18-O , 20-H ) :   0.7837 B( 21-O , 22-H ) :   0.7974 B( 21-O , 23-H ) :   0.8024 
B( 24-O , 25-H ) :   0.8390 B( 24-O , 26-H ) :   0.7785 


----------------------------------
MP2 DERIVATIVE INTEGRAL GENERATION
----------------------------------


Input Wavefunction Amplitudes       ... 12h2o.su.etal.mol0,1,2,3,5,6,7,9,11-orca.engrad-mp2.def2tzvp.frozencore.mp2tsaa.tmp
Input Correlated Electron Density   ... 12h2o.su.etal.mol0,1,2,3,5,6,7,9,11-orca.engrad-mp2.def2tzvp.frozencore.pmp2re
Input Energy Weighted Density       ... 12h2o.su.etal.mol0,1,2,3,5,6,7,9,11-orca.engrad-mp2.def2tzvp.frozencore.wmp2.tmp
Input SCF Electron Density          ... 12h2o.su.etal.mol0,1,2,3,5,6,7,9,11-orca.engrad-mp2.def2tzvp.frozencore.scfp

One-Electron Terms    ...
                        ... One-Electron Terms done
Prescreening matrices              ... done

Batch handling in the gradient evaluation:
Memory available                      ... 8000.0 MB
Memory per occupied orbital in Q2     ...   41.1 MB
Memory per occupied orbital in Q3     ...    0.1 MB
Total memory requirement per |i>      ...   41.3 MB
Max. Number of orbitals possible      ...    193
Number of orbitals treated per batch  ...     36
Number of batches to be done          ...      1
Batch   0: i=    9 ...    44

---------------------------------------
MP2 TOTAL ENERGY:     -686.928572152 Eh
---------------------------------------

The final MP2 gradient
  0:   0.00282988  -0.00035752   0.00177034
  1:  -0.00057572  -0.00073567  -0.00142248
  2:  -0.00425668   0.00072936  -0.00280774
  3:  -0.00244538  -0.00411252  -0.00271575
  4:   0.00022237   0.00097335  -0.00115127
  5:   0.00242711   0.00148887  -0.00072338
  6:  -0.01160252  -0.02414955  -0.00057401
  7:  -0.00215259  -0.00015306   0.00292257
  8:   0.00916153   0.02497756  -0.00070333
  9:  -0.00560496   0.00464985   0.00143510
 10:  -0.00168086  -0.00307661   0.00117584
 11:   0.01042393  -0.00332651  -0.00195000
 12:  -0.00471782  -0.00017459   0.00010756
 13:   0.00022490   0.00195906   0.00123727
 14:   0.00103469  -0.00008519  -0.00195712
 15:   0.01648511  -0.00560821   0.00094102
 16:   0.00136258  -0.00015086  -0.00296738
 17:  -0.01622652   0.00644381   0.00281598
 18:  -0.00363452   0.00199167  -0.00291210
 19:  -0.00212635  -0.00148130   0.00363866
 20:   0.00761191  -0.00272119  -0.00081522
 21:   0.00071176  -0.00197669   0.00014494
 22:  -0.00045193   0.00107895   0.00152288
 23:  -0.00162540   0.00116121   0.00000595
 24:  -0.00292446  -0.00352921   0.01028462
 25:   0.00338200   0.00092669  -0.00807018
 26:   0.00414793   0.00525828   0.00076723

-----------------------------------
NORM OF THE MP2 GRADIENT:  0.052416
-----------------------------------

-------------------------   --------------------
FINAL SINGLE POINT ENERGY      -686.928572152126
-------------------------   --------------------


                            ***************************************
                            *     ORCA property calculations      *
                            ***************************************

                                    ---------------------
                                    Active property flags
                                    ---------------------
   (+) Dipole Moment


------------------------------------------------------------------------------
                       ORCA ELECTRIC PROPERTIES CALCULATION
------------------------------------------------------------------------------

Dipole Moment Calculation                       ... on
Quadrupole Moment Calculation                   ... off
Polarizability Calculation                      ... off
GBWName                                         ... 12h2o.su.etal.mol0,1,2,3,5,6,7,9,11-orca.engrad-mp2.def2tzvp.frozencore.gbw
Electron density file                           ... 12h2o.su.etal.mol0,1,2,3,5,6,7,9,11-orca.engrad-mp2.def2tzvp.frozencore.scfp
The origin for moment calculation is the CENTER OF MASS  = ( 0.034341, -0.894586  1.188502)

-------------
DIPOLE MOMENT
-------------
                                X             Y             Z
Electronic contribution:      0.21075       0.02909       0.11581
Nuclear contribution   :      1.58806       0.19772       0.72077
                        -----------------------------------------
Total Dipole Moment    :      1.79882       0.22681       0.83657
                        -----------------------------------------
Magnitude (a.u.)       :      1.99676
Magnitude (Debye)      :      5.07535



--------------------
Rotational spectrum 
--------------------
 
Rotational constants in cm-1:     0.031570     0.015807     0.014082 
Rotational constants in MHz :   946.436918   473.871587   422.173819 

 Dipole components along the rotational axes: 
x,y,z [a.u.] :     1.016570    -1.682837     0.348824 
x,y,z [Debye]:     2.583915    -4.277432     0.886639 

 

                         *** MP2 UNRELAXED DENSITY ***

------------------------------------------------------------------------------
                       ORCA ELECTRIC PROPERTIES CALCULATION
------------------------------------------------------------------------------

Dipole Moment Calculation                       ... on
Quadrupole Moment Calculation                   ... off
Polarizability Calculation                      ... off
GBWName                                         ... 12h2o.su.etal.mol0,1,2,3,5,6,7,9,11-orca.engrad-mp2.def2tzvp.frozencore.gbw
Electron density file                           ... 12h2o.su.etal.mol0,1,2,3,5,6,7,9,11-orca.engrad-mp2.def2tzvp.frozencore.pmp2ur
The origin for moment calculation is the CENTER OF MASS  = ( 0.034341, -0.894586  1.188502)

-------------
DIPOLE MOMENT
-------------
                                X             Y             Z
Electronic contribution:      0.19866       0.02758       0.11072
Nuclear contribution   :      1.58806       0.19772       0.72077
                        -----------------------------------------
Total Dipole Moment    :      1.78672       0.22530       0.83148
                        -----------------------------------------
Magnitude (a.u.)       :      1.98356
Magnitude (Debye)      :      5.04180



--------------------
Rotational spectrum 
--------------------
 
Rotational constants in cm-1:     0.031570     0.015807     0.014082 
Rotational constants in MHz :   946.436918   473.871587   422.173819 

 Dipole components along the rotational axes: 
x,y,z [a.u.] :     1.010252    -1.671453     0.346606 
x,y,z [Debye]:     2.567855    -4.248496     0.881003 

 

                           *** MP2 RELAXED DENSITY ***

------------------------------------------------------------------------------
                       ORCA ELECTRIC PROPERTIES CALCULATION
------------------------------------------------------------------------------

Dipole Moment Calculation                       ... on
Quadrupole Moment Calculation                   ... off
Polarizability Calculation                      ... off
GBWName                                         ... 12h2o.su.etal.mol0,1,2,3,5,6,7,9,11-orca.engrad-mp2.def2tzvp.frozencore.gbw
Electron density file                           ... 12h2o.su.etal.mol0,1,2,3,5,6,7,9,11-orca.engrad-mp2.def2tzvp.frozencore.pmp2re
The origin for moment calculation is the CENTER OF MASS  = ( 0.034341, -0.894586  1.188502)

-------------
DIPOLE MOMENT
-------------
                                X             Y             Z
Electronic contribution:      0.19723       0.04174       0.10921
Nuclear contribution   :      1.58806       0.19772       0.72077
                        -----------------------------------------
Total Dipole Moment    :      1.78529       0.23946       0.82998
                        -----------------------------------------
Magnitude (a.u.)       :      1.98329
Magnitude (Debye)      :      5.04113



--------------------
Rotational spectrum 
--------------------
 
Rotational constants in cm-1:     0.031570     0.015807     0.014082 
Rotational constants in MHz :   946.436918   473.871587   422.173819 

 Dipole components along the rotational axes: 
x,y,z [a.u.] :     1.012748    -1.672485     0.332552 
x,y,z [Debye]:     2.574201    -4.251120     0.845281 

 

Timings for individual modules:

Sum of individual times         ...      285.151 sec (=   4.753 min)
GTO integral calculation        ...        1.017 sec (=   0.017 min)   0.4 %
SCF iterations                  ...       41.738 sec (=   0.696 min)  14.6 %
MP2 module                      ...      242.396 sec (=   4.040 min)  85.0 %
                             ****ORCA TERMINATED NORMALLY****
TOTAL RUN TIME: 0 days 0 hours 4 minutes 46 seconds 142 msec
