45
Energy:   -375.42315413
O   -2.31729006  -0.00964415   1.67638795
H   -2.29733016   0.64092656   0.97453953
H   -2.30075875  -0.85245487   1.22292501
O    0.31201888  -2.26766294  -1.35588913
H   -0.00350533  -1.44104887  -1.72110893
H    0.69789322  -2.02623293  -0.51384139
O   -0.47351788   0.19218221  -2.17580377
H   -1.05390543   0.69813848  -1.60712952
H    0.38293271   0.60766761  -2.07532435
O    0.81550376   2.56551694   0.45035625
H    0.77826669   1.94614703   1.17920889
H    1.34682759   2.12443666  -0.21249745
O    3.04928279  -1.50038841  -1.31625241
H    2.32198036  -1.95793943  -1.73804629
H    2.85779999  -1.55694718  -0.38010750
O    0.27647878   0.60545341   2.37180490
H   -0.65691352   0.37582950   2.25149300
C    0.42823111   1.11540303   3.68689288
H    1.48516804   1.36898550   3.80549082
H    0.16493649   0.37848595   4.46175190
H   -0.16330371   2.02803837   3.85998425
O   -2.04996272  -2.28324758   0.12336517
H   -1.28219239  -2.44397580  -0.44506992
C   -3.20883453  -2.33718552  -0.69311544
H   -4.06414911  -2.15409302  -0.03706718
H   -3.34814094  -3.32035484  -1.16929728
H   -3.21094882  -1.56661356  -1.47987571
O   -1.74086223   1.85537933  -0.31252861
H   -0.90160251   2.26301828  -0.05195833
C   -2.62379072   2.89671399  -0.69800647
H   -3.56397230   2.42003952  -0.98839458
H   -2.25208000   3.47196423  -1.56038437
H   -2.83657722   3.59944357   0.12276778
O    2.09544637   1.09143639  -1.54240814
H    2.56252452   0.24423872  -1.49223455
C    2.81828073   1.92955789  -2.42987454
H    2.27850444   2.87935570  -2.47471738
H    2.87423139   1.52017234  -3.45068320
H    3.84250058   2.13509875  -2.08130035
O    1.53615749  -1.55290556   1.06497905
H    1.20859728  -0.79398517   1.57012006
C    1.25772389  -2.72309832   1.81708105
H    1.63315619  -3.56821785   1.23372114
H    0.17978486  -2.87517336   1.98350805
H    1.76476285  -2.73097071   2.79464273
