45
Energy:   -374.68480637
O   -1.62525064  -0.53971812   1.83406417
H   -1.59296957   0.22578445   1.26030848
H   -1.64347123  -1.28708283   1.23628006
O    1.44293963  -1.97146444   0.15930964
H    0.52895802  -2.19367564  -0.01814924
H    1.43447625  -1.61099841   1.04600263
O   -2.24170508  -0.39398758  -1.95418429
H   -2.05182466   0.29426451  -1.31662148
H   -1.52290540  -0.34245897  -2.58418720
O    1.32640245   2.10533528  -0.70796903
H    1.62190873   2.10723461   0.20247278
H    1.73585365   1.32981046  -1.09156101
O    2.34453636  -0.25491518  -1.71351185
H    3.27489352  -0.44984707  -1.82606839
H    2.04514269  -0.88426272  -1.05737394
O    1.84805023   1.79210562   1.97745277
H    1.70726342   0.89172136   2.30595014
C    1.00350964   2.65779469   2.71898322
H    1.17474115   3.66756132   2.33618259
H    1.23415163   2.65726280   3.79582180
H   -0.06455179   2.42122539   2.59226669
O   -1.28703866  -2.35785858  -0.27943650
H   -1.68383263  -1.77110211  -0.94026527
C   -1.59871864  -3.69234561  -0.64622491
H   -1.14428284  -4.33989550   0.10852833
H   -1.18576483  -3.97089676  -1.62839380
H   -2.68232685  -3.88846565  -0.65659324
O   -1.29323818   1.46367393  -0.07905346
H   -0.39281664   1.72378721  -0.32401347
C   -2.11826731   2.61241847  -0.18971830
H   -3.12862981   2.30166047   0.08971376
H   -2.15538944   3.01211432  -1.21521452
H   -1.81079547   3.42373208   0.48852106
O    0.08344154  -0.12062160  -3.40029840
H    0.92179367  -0.21964846  -2.92513247
C    0.07759022   1.16524583  -3.99950161
H   -0.87350300   1.26009212  -4.53045459
H    0.89102722   1.29771387  -4.72994655
H    0.13848775   1.97918191  -3.26019324
O    0.98124430  -0.81841881   2.66861989
H    0.02952976  -0.72309601   2.51507418
C    1.15333693  -1.67879497   3.78337132
H    2.23078487  -1.77523178   3.94240306
H    0.74225078  -2.68577305   3.61080064
H    0.70699372  -1.27458069   4.70541573
