45
Energy:   -371.52978820
O   -1.90547706  -0.59279165   2.21195812
H   -2.00785363   0.29879459   1.87905442
H   -1.87397429  -1.13986381   1.42713236
O    1.13568592  -2.39647347   0.44707318
H    0.22165721  -2.34993490   0.16668501
H    1.15883816  -1.91067523   1.27150989
O   -1.61161506   0.09816721  -2.12694275
H   -1.37780141   0.83366114  -1.56071690
H   -0.86416930   0.00266030  -2.71722668
O    0.03112717   2.13843668  -1.02762828
H    0.68129539   1.89110034  -0.37010423
H    0.37681181   1.79058659  -1.84965887
O    2.57998832  -0.63492050  -1.07608530
H    2.51531683   0.07990727  -0.44278386
H    2.16174763  -1.37856379  -0.64214838
O    1.82947149   1.24144023   0.88170848
H    1.52906930   0.63318036   1.57322979
C    2.45321218   2.34431586   1.51978894
H    2.78554861   3.01941635   0.72651909
H    3.33533795   2.05085812   2.11013969
H    1.76552517   2.90072482   2.17574089
O   -1.52944554  -1.90748461  -0.22552578
H   -1.62746672  -1.26415637  -0.94312170
C   -2.36938474  -3.01214629  -0.52007373
H   -2.24673666  -3.72701013   0.29810251
H   -2.09387502  -3.51737737  -1.45901637
H   -3.43371072  -2.73455178  -0.57419236
O   -1.96446300   1.85963385   0.94155388
H   -1.31249583   2.17229588   0.29687990
C   -3.25253554   2.18176706   0.44192092
H   -3.97470375   1.82264288   1.18015402
H   -3.47182109   1.68869618  -0.51806464
H   -3.40163035   3.26580760   0.31780734
O    1.01822102   0.43100504  -3.08769014
H    1.62903929  -0.02396672  -2.48908760
C    1.64760106   0.52418036  -4.35565422
H    0.94601327   1.03911110  -5.01755006
H    1.86945343  -0.46153760  -4.79373978
H    2.58031833   1.10890730  -4.32548449
O    0.80710783  -0.68724843   2.66128623
H   -0.16009492  -0.63548496   2.64507984
C    1.18424240  -1.31524908   3.87616008
H    2.27647124  -1.36542839   3.87800698
H    0.79519160  -2.34184874   3.96282001
H    0.86709272  -0.74729530   4.76476681
