45
Energy:   -375.35890473
O   -1.13095921   1.00444239   2.73683498
H   -1.42447360   1.24791867   1.85888256
H   -1.24469477   0.05471667   2.77312749
O    1.80180981  -1.40047249   0.09296130
H    0.91484572  -1.74216822  -0.02004572
H    1.71358433  -0.71984705   0.76019224
O   -2.42288172  -0.38110220  -1.54277164
H   -2.24550133   0.34832151  -0.94887846
H   -1.80474117  -0.25958175  -2.26344278
O    1.23154973   2.10098155  -0.59492578
H    1.44973024   1.74548964   0.26661622
H    1.62192948   1.48475892  -1.21468798
O    2.24150705   0.03375561  -2.13609861
H    3.13363329  -0.14018158  -2.43624605
H    2.12662725  -0.54085238  -1.37922336
O    1.45797743   0.74364080   1.83756611
H    0.59258787   0.84994769   2.25973079
C    2.44922209   1.05602426   2.80316663
H    3.41757519   0.93115808   2.31104276
H    2.42022889   0.38396398   3.67510225
H    2.38035914   2.09470265   3.16258618
O   -0.81727206  -2.23678089  -0.29202959
H   -1.44689788  -1.64594925  -0.73124774
C   -0.80550000  -3.46177304  -1.00742419
H   -0.09130293  -4.11543727  -0.49935844
H   -0.47554156  -3.34150700  -2.05118701
H   -1.78608235  -3.96300586  -1.00854080
O   -1.45112162   1.70367639   0.03034120
H   -0.55363522   1.91205596  -0.26885671
C   -2.21434698   2.89778924  -0.03380978
H   -3.22222081   2.64510930   0.30652593
H   -2.29003917   3.29967429  -1.05632453
H   -1.82090405   3.68971962   0.62256379
O   -0.33738637   0.06296180  -3.28906466
H    0.58594973  -0.00040676  -3.00295605
C   -0.53813664   1.36726288  -3.80967180
H   -1.58299696   1.42140120  -4.12719527
H    0.09602147   1.57799909  -4.68500664
H   -0.36803002   2.15537873  -3.05952883
O   -1.05177404  -1.73737371   2.48530580
H   -1.05104820  -2.04254471   1.56590740
C   -0.02615126  -2.43689509   3.17181983
H   -0.04093861  -2.08113193   4.20559887
H    0.97463072  -2.23907377   2.75699520
H   -0.18848389  -3.52606658   3.18326158
