45
Energy:   -370.88429885
O   -1.67838851  -0.76923491   1.66605843
H   -2.36617325  -1.38023240   1.40173655
H   -1.66439063  -0.10918786   0.97296839
O    0.14655019  -2.50785924   0.55031026
H   -0.44684819  -1.97740669   1.08203415
H    0.98569687  -2.04981130   0.59781579
O   -0.98049280  -1.49213101  -1.68537226
H   -0.55251730  -1.94734185  -0.96021578
H   -1.14946649  -0.61175727  -1.34978053
O    0.23972144   2.93239210   0.46104190
H    0.48007771   2.32532313   1.16099046
H    0.88224473   2.76909377  -0.22941398
O    1.58026254  -0.56953993  -2.19505951
H    0.70193870  -0.94876661  -2.22614341
H    1.87485414  -0.71972154  -1.29678722
O    2.23036206  -0.64631677   0.54902987
H    1.81721012  -0.03326203   1.17504316
C    3.60629619  -0.31166253   0.46332347
H    4.05631451  -1.01177506  -0.24576831
H    4.13030924  -0.41691168   1.42618912
H    3.77285203   0.70978108   0.08690690
O   -3.17449200  -2.36023119  -0.09582256
H   -2.58878141  -2.16525551  -0.84238190
C   -3.19988056  -3.76831485   0.07502710
H   -3.86406715  -3.97035826   0.91972813
H   -2.20887691  -4.18579541   0.31251202
H   -3.59743215  -4.29644586  -0.80577236
O   -1.46268532   0.96481341  -0.46195232
H   -0.92408935   1.74466316  -0.26152273
C   -2.72635720   1.42018709  -0.91835343
H   -3.32022957   0.52918961  -1.13954183
H   -2.65500886   2.02012530  -1.83909275
H   -3.26503982   2.00994695  -0.16020986
O    1.85088843   2.12695078  -1.60257847
H    1.77418622   1.21797335  -1.92861538
C    2.08546707   2.96714694  -2.72131752
H    2.16929766   3.98701024  -2.33617278
H    1.26061038   2.94437298  -3.45061178
H    3.02148678   2.72298713  -3.24765431
O    0.58149216   0.83648846   2.31650593
H   -0.21096886   0.28237435   2.37469832
C    0.80419522   1.40495617   3.59704550
H    1.70026914   2.02590020   3.51358740
H    0.98617909   0.64559644   4.37359686
H   -0.02688484   2.04756219   3.92741008
