45
Energy:   -373.01178719
O   -1.41588911   0.11295851   1.90083206
H   -1.59087575   0.77861161   1.23561220
H   -1.59329557  -0.71843187   1.46089020
O    2.78192300  -0.94227905   0.56743347
H    2.21041546  -1.70684426   0.63850392
H    2.37818583  -0.28712417   1.13664364
O   -2.22611926  -0.28800752  -1.84792744
H   -2.11437480   0.50251838  -1.31989920
H   -1.44473908  -0.32038489  -2.39985912
O    1.27043056   2.28538370  -0.43832761
H    1.37531309   1.93169699   0.44492615
H    1.77673510   1.69406712  -0.99531258
O    2.66791429   0.31832663  -1.80448937
H    3.56340757   0.33186171  -2.14233613
H    2.72154973  -0.20261088  -1.00325332
O    1.24272807   0.89092601   1.98685544
H    0.32999989   0.57632552   2.06671208
C    1.64005970   1.38561962   3.25568939
H    2.67020809   1.73582205   3.14781096
H    1.62297731   0.61115386   4.03843347
H    1.02456096   2.23423493   3.59301814
O   -1.82728235  -2.08278516   0.20626840
H   -1.99895049  -1.54823913  -0.58317055
C   -2.73666659  -3.17155799   0.19496281
H   -2.52951507  -3.76321665   1.09079398
H   -2.60767898  -3.82425567  -0.68260500
H   -3.78841817  -2.84759080   0.23547440
O   -1.47157996   1.88178243  -0.26430635
H   -0.53969901   2.09738952  -0.41771672
C   -2.22181621   3.07477228  -0.42695494
H   -3.26889007   2.81390747  -0.25068500
H   -2.14051353   3.49312946  -1.44240778
H   -1.93869232   3.85689225   0.29478362
O    0.20029949  -0.05879377  -3.14475288
H    1.07897794  -0.04025856  -2.73731714
C    0.05004470   1.13370764  -3.89834273
H   -0.94483569   1.09644220  -4.35034881
H    0.79030397   1.22053747  -4.70905484
H    0.10846394   2.04030230  -3.27588740
O    0.80277564  -2.82765494   0.96011428
H   -0.09776665  -2.66832528   0.64064455
C    0.73603631  -3.00212001   2.36640073
H    1.75867722  -3.18051603   2.70971637
H    0.12180780  -3.86815241   2.65878498
H    0.35142722  -2.11150738   2.88761309
