45
Energy:   -373.64538037
O   -2.34392957  -0.31226034   1.79627164
H   -1.94291875  -1.00434906   1.27050041
H   -2.38022139   0.44376700   1.21032163
O    1.69217655  -1.65101504   0.37605466
H    0.75672870  -1.83236841   0.28505947
H    1.73114710  -0.76088154   0.72587674
O   -1.84386332  -0.30722118  -2.05248137
H   -2.11145443   0.40177173  -1.46771142
H   -0.98616774  -0.03699688  -2.38045848
O    0.52467205   2.36312601  -0.67950178
H    0.96668224   1.92735673   0.04917097
H    0.65758346   1.77801125  -1.42529473
O    2.66481180  -1.49094394  -2.13753402
H    3.35457400  -2.14726459  -2.23603864
H    2.36522523  -1.59139914  -1.23399183
O    1.60229297   0.92858402   1.44013592
H    1.04496331   0.74576974   2.21110017
C    2.79100726   1.54748505   1.90538169
H    3.40715493   1.74647513   1.02433107
H    3.36770027   0.90244253   2.58664717
H    2.60078160   2.50631861   2.41255988
O   -1.03811694  -1.99123597  -0.02374371
H   -1.34379191  -1.50223773  -0.80211818
C   -1.55124161  -3.31064051  -0.11544161
H   -1.19744443  -3.84748175   0.76893062
H   -1.19000265  -3.84637289  -1.00722329
H   -2.65211774  -3.33977188  -0.11477497
O   -2.09593456   1.71020926  -0.11533132
H   -1.20761617   2.06587179  -0.26638719
C   -2.96421086   2.80690608   0.12107116
H   -3.96025264   2.38844899   0.28923666
H   -3.02338319   3.49502863  -0.73669532
H   -2.68270303   3.38747741   1.01352149
O    0.75693063   0.45592180  -2.69842594
H    1.45402301  -0.20991795  -2.60280733
C    0.87627014   1.02100443  -3.99417803
H    0.08374216   1.76875561  -4.08502283
H    0.73889251   0.27880257  -4.79607647
H    1.84210528   1.52652995  -4.15033108
O   -0.14634347   0.10848349   3.44589805
H   -1.00724402   0.00171462   3.01476705
C    0.28587102  -1.17513517   3.86785483
H    1.25674218  -1.03652151   4.35126011
H    0.41918763  -1.87599175   3.02892452
H   -0.39718822  -1.63464774   4.59932977
