45
Energy:   -370.83711934
O   -1.20746413  -0.75092343   2.39601350
H   -1.80932495  -0.02359191   2.23794943
H   -1.11225254  -1.17347320   1.54242209
O    0.88460147  -2.17456883  -2.34085807
H    0.47381113  -1.46180208  -2.83019099
H    1.21696448  -2.76780185  -3.01453549
O   -1.31305421   0.99346811  -0.98291226
H   -1.25814308   0.08040141  -0.70090903
H   -0.44496586   1.35343422  -0.80103631
O    1.20638814   1.71603493  -0.38500466
H    1.79698409   1.06080282  -0.75662161
H    1.22174369   1.54626176   0.55689402
O    2.70476369  -0.38563833  -1.28585540
H    2.13638483  -1.06344386  -1.65158343
H    2.90200692  -0.69008360  -0.40005630
O    2.80151508  -1.06934425   1.38383355
H    2.33520503  -0.35532505   1.84334937
C    2.28178524  -2.29998601   1.86125949
H    2.81792480  -3.09333879   1.33340446
H    1.20682992  -2.41714164   1.65263793
H    2.44326321  -2.43923448   2.94168166
O   -0.93306284  -1.66764638  -0.23785985
H   -0.26476734  -1.99551405  -0.85778501
C   -2.14789778  -2.34517168  -0.51655197
H   -2.88958882  -1.96395693   0.19059365
H   -2.06946390  -3.43446486  -0.37489804
H   -2.51777223  -2.15306335  -1.53589716
O   -2.55970866   1.47124689   1.45692557
H   -2.21277936   1.46699430   0.55246703
C   -3.41796782   2.59370729   1.58344682
H   -3.79989975   2.58324990   2.60789977
H   -4.27864278   2.55034771   0.89778227
H   -2.89448772   3.54938890   1.42401472
O   -0.32459044   0.02067107  -3.41230766
H   -0.79888036   0.49447050  -2.71303200
C    0.61039498   0.92115551  -3.98455220
H    1.13578240   0.37133472  -4.77014138
H    1.35796377   1.27649037  -3.25815329
H    0.12913503   1.79813683  -4.44506273
O    0.98722604   0.92421605   2.29108421
H    0.22446220   0.34669217   2.44300771
C    0.78247681   2.11301386   3.03765726
H    1.65067682   2.75207224   2.85512417
H    0.71620267   1.92850246   4.12132723
H   -0.11833033   2.66288472   2.72306885
