120
Energy:   -595.32277002
    C      4.82024592     -2.47465928      0.48423693
    H      5.08067190     -2.69325801     -0.53030389
    H      3.98648748     -3.07828377      0.77644136
    H      5.65427037     -2.68658639      1.12015296
    C      4.44504364     -0.98625321      0.60861786
    N      4.16568849      0.12193277      0.70122512
    C      1.21450880     -1.84105237     -4.52526528
    H      2.25284976     -2.09756496     -4.55607945
    H      0.74785713     -2.13197680     -5.44314233
    H      0.74535540     -2.35035632     -3.70954249
    C      1.06693348     -0.32013260     -4.33388978
    N      0.95705696      0.81226130     -4.19140202
    C      1.16444200      5.50409988      2.18925626
    H      0.46758402      5.64577424      2.98876705
    H      1.77830147      6.37515425      2.09261298
    H      1.78068198      4.65501482      2.39949883
    C      0.39697156      5.26857488      0.87505799
    N     -0.17444508      5.09321582     -0.10342236
    C     -1.77772635     -0.56761501     -2.31213819
    H     -1.19161261     -1.43877135     -2.51819035
    H     -1.27669021      0.29767073     -2.69311387
    H     -2.73422909     -0.66184860     -2.78237390
    C     -1.96576090     -0.42353957     -0.79046632
    N     -2.10576117     -0.31626885      0.34248755
    C      2.47449820     -4.63537959     -2.03873514
    H      2.83617310     -3.64212190     -2.20465863
    H      1.64736490     -4.82718987     -2.68985602
    H      3.25643041     -5.33778448     -2.23900617
    C      2.01901169     -4.77792705     -0.57455883
    N      1.67988128     -4.88406011      0.51558698
    C      1.06182192      1.87945700     -0.65716492
    H      0.10360751      1.56938499     -1.01852439
    H      1.81302085      1.20748846     -1.01641071
    H      1.27170566      2.86879653     -1.00652892
    C      1.05769376      1.86895191      0.88279372
    N      1.05462016      1.86113039      2.02936292
    C     -4.13839010     -3.26323976     -4.09774391
    H     -4.43208038     -2.42761250     -4.69805490
    H     -4.71722030     -4.12036680     -4.37194809
    H     -3.10022127     -3.46854878     -4.25570833
    C     -4.37680034     -2.93680404     -2.61174247
    N     -4.55430760     -2.69375781     -1.50534686
    C      1.15670665     -4.32800983      4.12867285
    H      0.50500553     -3.56206563      4.49407033
    H      1.28358098     -5.07753593      4.88167525
    H      0.73064500     -4.77092482      3.25277510
    C      2.52527763     -3.71417203      3.77965045
    N      3.54424093     -3.25714189      3.51978741
    C      0.45553130      2.78757724      5.45184373
    H     -0.18485653      3.61206536      5.68641345
    H      0.52673927      2.13878656      6.29972295
    H      0.05114422      2.24674467      4.62186161
    C      1.85674239      3.31309981      5.08847959
    N      2.90000774      3.70437525      4.81793847
    C      4.56500098      3.27471383      1.86274561
    H      3.77207800      2.78705592      2.39034686
    H      4.89689014      4.12376857      2.42297300
    H      5.37920448      2.59275500      1.73273057
    C      4.05669975      3.73608432      0.48420757
    N      3.67824638      4.07959562     -0.54217667
    C      4.24731863      1.25840203     -2.68915981
    H      4.35163785      1.54192068     -1.66269264
    H      3.30306631      1.59950698     -3.05920583
    H      5.03558764      1.69932159     -3.26285050
    C      4.32167645     -0.27518630     -2.80823006
    N      4.37703922     -1.41701253     -2.89688326
    C      0.92207271     -1.61457434      1.52907128
    H      0.25272353     -0.83541829      1.82871724
    H      1.86121336     -1.48875570      2.02614633
    H      0.50422320     -2.56411772      1.79111756
    C      1.13516600     -1.55042863      0.00523514
    N      1.29382363     -1.50266924     -1.12933013
    C     -1.80584696     -4.09072745      0.31357417
    H     -1.76633877     -3.08740668      0.68328583
    H     -1.14952666     -4.70916165      0.88949247
    H     -2.80649620     -4.46114827      0.39350298
    C     -1.36713219     -4.11154737     -1.16246644
    N     -1.04048910     -4.12704874     -2.26144576
    C     -5.26680331      1.22998202     -1.36896791
    H     -4.72388052      0.59526982     -0.70018136
    H     -6.28867196      1.28621243     -1.05668327
    H     -4.83646715      2.20958179     -1.35926304
    C     -5.19684155      0.65267096     -2.79494732
    N     -5.14475184      0.22283664     -3.85665382
    C     -1.94873756      0.15178442      3.81464956
    H     -2.94605584      0.52515264      3.71047372
    H     -1.31360906      0.62552615      3.09556705
    H     -1.59028486      0.36222277      4.80061429
    C     -1.94335894     -1.37029727      3.58047357
    N     -1.93935432     -2.50355628      3.40611891
    C     -4.95793242     -2.08567475      1.74282173
    H     -5.75833488     -2.46887979      1.14498398
    H     -4.95452406     -2.57854715      2.69253973
    H     -4.02638843     -2.26123306      1.24653133
    C     -5.15158402     -0.57210271      1.95066478
    N     -5.29576644      0.55482048      2.10541338
    C      3.48634124      0.20935773      4.17212103
    H      3.35741073      0.68925162      3.22450352
    H      4.16103172     -0.61430263      4.06593512
    H      3.88642921      0.90979072      4.87513052
    C      2.12502484     -0.30397634      4.67700298
    N      1.11146289     -0.68617689      5.05291054
    C     -2.42656407      1.37379872     -5.77506185
    H     -1.49991975      1.90215876     -5.69100142
    H     -3.05671029      1.62500948     -4.94759102
    H     -2.91158053      1.64748576     -6.68871033
    C     -2.15523807     -0.14210791     -5.77201465
    N     -1.95322353     -1.27076930     -5.76974587
    C     -0.16023610      4.14407049     -3.42952445
    H      0.04622988      4.98199972     -2.79695304
    H     -0.37875788      4.48908101     -4.41852145
    H      0.69316324      3.49921032     -3.45716542
    C     -1.37114403      3.36963675     -2.87675473
    N     -2.27272002      2.79303562     -2.46519254
    C     -2.71065493      2.97410881      0.94197362
    H     -3.45185111      2.21962986      1.10411527
    H     -1.89333787      2.55848575      0.39047622
    H     -3.14003131      3.78274661      0.38822286
    C     -2.20223018      3.49434797      2.29934442
    N     -1.82368484      3.88168968      3.30996868
