120
Energy:   -590.53628260
    C      4.59842263     -2.32569479      0.34240408
    H      5.39956952     -2.56808735      1.00896968
    H      4.83259112     -2.67900427     -0.64006049
    H      3.69740929     -2.79122950      0.68350742
    C      4.40512775     -0.79830448      0.30612858
    N      4.26121093      0.33890704      0.27911982
    C      0.94283409     -1.98882181     -4.38909159
    H      0.72754448     -2.46935902     -3.45762256
    H      1.92712947     -2.25858903     -4.71047507
    H      0.22995619     -2.29973045     -5.12396574
    C      0.86205177     -0.46146556     -4.20948898
    N      0.80190565      0.67572060     -4.07576667
    C      1.23618532      5.21526567      2.87087749
    H      0.43262689      5.57980937      3.47610632
    H      2.05742898      5.89950696      2.91854093
    H      1.54845779      4.25758394      3.23175238
    C      0.76129202      5.08414488      1.41180803
    N      0.40771237      4.98651949      0.32546450
    C     -1.93124297     -0.56050485     -2.16477604
    H     -2.88884386     -0.74668568     -2.60436383
    H     -1.28094566     -1.38670110     -2.36330123
    H     -1.51355482      0.33092057     -2.58405687
    C     -2.09011454     -0.38642458     -0.64291669
    N     -2.20840164     -0.25681390      0.49017677
    C      2.30255985     -4.78445781     -1.86682761
    H      2.61065389     -3.78425188     -2.08946259
    H      1.46640842     -5.04525656     -2.48142821
    H      3.11112434     -5.45808967     -2.06007011
    C      1.89883857     -4.87912527     -0.38370685
    N      1.59824973     -4.94960950      0.72054398
    C      1.12700050      1.69023185     -0.67573622
    H      1.94843533      1.09626986     -1.01830615
    H      1.24407370      2.69530521     -1.02361624
    H      0.21183529      1.28585046     -1.05500844
    C      1.09340424      1.68054571      0.86386681
    N      1.06839029      1.67333394      2.01017124
    C     -4.32279808     -3.18166980     -4.07519190
    H     -3.29225687     -3.39197502     -4.27180502
    H     -4.61274026     -2.29609838     -4.60111574
    H     -4.92354176     -4.00410949     -4.40321488
    C     -4.52408557     -2.96984961     -2.56316824
    N     -4.67395326     -2.81213985     -1.43739790
    C      1.55507726     -4.16733281      4.35229885
    H      0.81671949     -3.43050077      4.59064004
    H      1.76706537     -4.75404398      5.22162625
    H      1.18664285     -4.80280084      3.57426571
    C      2.84292852     -3.46879447      3.87786936
    N      3.80179231     -2.94870093      3.52463505
    C      4.08280932      0.42137143      3.67110843
    H      4.04464658     -0.07221176      4.61969655
    H      5.01459158      0.20292178      3.19261009
    H      3.27712658      0.07678532      3.05707681
    C      3.95624586      1.94211555      3.87827745
    N      3.86201361      3.07437867      4.03252420
    C      4.25459684      3.78836277      0.67631550
    H      3.41987334      3.46688766      1.26350423
    H      4.60818077      4.72894955      1.04397568
    H      5.03784567      3.06237393      0.74235000
    C      3.81978457      3.94218630     -0.79299611
    N      3.49604706      4.05671491     -1.88696539
    C      4.25177285      0.99338549     -3.17315544
    H      4.82909629      1.35023334     -2.34595689
    H      3.25677507      1.38141109     -3.10746951
    H      4.70142525      1.31780067     -4.08828745
    C      4.20574826     -0.54559354     -3.14113555
    N      4.17148086     -1.69143339     -3.11729530
    C      0.73229651     -1.69453878      1.75080815
    H      0.38845239     -2.66673994      2.03628375
    H     -0.00736037     -0.96510723      2.00719927
    H      1.64433334     -1.47360474      2.26488602
    C      0.97907714     -1.66311185      0.23103459
    N      1.16281654     -1.63971306     -0.90050590
    C     -1.94139141     -4.08135233      0.39654410
    H     -2.92453966     -4.49467851      0.48303788
    H     -1.94645825     -3.07179375      0.75103654
    H     -1.25801851     -4.66119439      0.98108132
    C     -1.50264574     -4.10494222     -1.07944566
    N     -1.17597965     -4.12250597     -2.17838712
    C     -5.15699623      1.79141399     -1.36059293
    H     -6.12459963      1.75342544     -0.90539988
    H     -4.90900229      2.80734528     -1.58704761
    H     -4.42986471      1.38842359     -0.68696278
    C     -5.16782239      0.96391097     -2.65933137
    N     -5.17588296      0.34779735     -3.62630117
    C     -2.26134622      0.03586099      3.92430797
    H     -3.20078347      0.42907143      3.59606511
    H     -1.46928459      0.49606763      3.37136374
    H     -2.13394505      0.24001009      4.96689666
    C     -2.23259787     -1.48624648      3.69200991
    N     -2.21119343     -2.61952468      3.51905344
    C     -5.19061571     -1.88788927      1.69120578
    H     -5.28877552     -2.32195615      2.66426836
    H     -4.23322279     -2.13792908      1.28404735
    H     -5.96019905     -2.26749816      1.05203626
    C     -5.31964460     -0.35693128      1.79665332
    N     -5.41571246      0.78293653      1.87516380
    C      0.77338216      1.97198966      5.52844302
    H     -0.17364176      2.15987361      5.98968644
    H      0.83528204      2.51338828      4.60759828
    H      1.55808866      2.29005933      6.18263449
    C      0.91790860      0.46458269      5.24837816
    N      1.02551510     -0.65775033      5.03985714
    C     -2.44900795      1.55044973     -5.53937636
    H     -2.92722849      1.91837900     -6.42302411
    H     -1.48047232      1.99561690     -5.44629567
    H     -3.04026659      1.80056697     -4.68336603
    C     -2.30372447      0.02021412     -5.63356589
    N     -2.19555431     -1.11911585     -5.70369429
    C      0.14779195      4.22166510     -3.20711071
    H      0.58040309      4.81394313     -2.42803786
    H     -0.12985574      4.85457714     -4.02395415
    H      0.86096874      3.49813031     -3.54293116
    C     -1.10168323      3.49965522     -2.66941795
    N     -2.03197429      2.96208604     -2.26908125
    C     -2.48669512      3.09353403      1.17107060
    H     -3.41932259      2.56918136      1.18373766
    H     -1.75805655      2.51267306      0.64515667
    H     -2.61385045      4.03565255      0.68000714
    C     -2.01009412      3.32826951      2.61652926
    N     -1.65524301      3.50304074      3.69273893
