120
Energy:   -589.44310386
    C      5.31839373     -3.24800329     -0.55554823
    H      6.36410369     -3.43400285     -0.42595257
    H      5.02583453     -3.53056429     -1.54522872
    H      4.76319051     -3.82066689      0.15768727
    C      5.03349674     -1.74941617     -0.34419456
    N      4.82137799     -0.63364995     -0.18683215
    C      0.29514219     -2.30980427     -4.62458426
    H      1.26101707     -2.69378540     -4.87864015
    H     -0.43390327     -2.70076722     -5.30321507
    H      0.04621214     -2.60276037     -3.62603048
    C      0.31255810     -0.77282355     -4.71938377
    N      0.32552503      0.37152846     -4.78996632
    C      1.49047359      5.26425326      1.33496594
    H      1.33798883      5.85086964      2.21674244
    H      2.38882633      5.58039311      0.84719852
    H      1.57474912      4.23193395      1.60350565
    C      0.29568540      5.45072757      0.38138925
    N     -0.59388872      5.58956616     -0.32859194
    C     -1.98821996     -0.48762832     -1.96075572
    H     -1.07164164     -0.06239160     -2.31283255
    H     -2.81210124      0.09184208     -2.32177204
    H     -2.07544260     -1.49257621     -2.31764653
    C     -1.99609903     -0.48728181     -0.42077591
    N     -2.00196535     -0.48702382      0.72580905
    C      2.04199029     -4.70446865     -2.23462929
    H      1.16963403     -5.20724530     -2.59672095
    H      2.91607666     -5.23521074     -2.54956569
    H      2.06851023     -3.70917996     -2.62654280
    C      2.00133125     -4.64944585     -0.69614973
    N      1.97105875     -4.60847887      0.44931822
    C      0.28490174      2.69023891     -2.35217671
    H      1.16660414      2.40588483     -2.88756799
    H      0.15636556      3.75067464     -2.41425421
    H     -0.56548700      2.20219911     -2.78061018
    C      0.42482974      2.27567325     -0.87564176
    N      0.52901250      1.96701027      0.22370563
    C     -4.62064278     -3.26843339     -2.97506340
    H     -5.04014879     -2.43566464     -3.49985965
    H     -5.19618777     -4.14657423     -3.18125682
    H     -3.61114465     -3.42020262     -3.29565460
    C     -4.64143589     -2.98469677     -1.46157037
    N     -4.65691730     -2.77344196     -0.33470600
    C      2.16420255     -3.89750080      3.90832386
    H      1.45608311     -4.09490410      3.13082853
    H      1.79033061     -3.12104758      4.54254721
    H      2.31792374     -4.78578895      4.48470312
    C      3.50022006     -3.45242813      3.28497201
    N      4.49494583     -3.12105129      2.82085823
    C      1.48756202      2.93735931      5.88508368
    H      0.50165149      3.26728029      5.63203672
    H      1.83794083      3.48129957      6.73729420
    H      1.46636140      1.89215377      6.11310782
    C      2.43276733      3.18396746      4.69454962
    N      3.13651565      3.36757843      3.80814290
    C      4.15186560      2.53306331      0.68898264
    H      3.35336326      1.91129470      1.03639882
    H      4.34987754      3.29655288      1.41201378
    H      5.03065399      1.93924161      0.54754064
    C      3.75132379      3.18375155     -0.64809292
    N      3.45310221      3.66821853     -1.64360646
    C      3.54213676      0.50741359     -3.21869524
    H      2.96909401      0.61529829     -2.32154248
    H      3.01680724      0.95935538     -4.03397225
    H      4.49068033      0.98708399     -3.09589255
    C      3.75777848     -0.98868755     -3.51327973
    N      3.91833355     -2.10260286     -3.73261127
    C      1.63937551     -1.16154929      1.24270642
    H      1.07147899     -1.91876749      1.74171976
    H      1.33623321     -0.19785882      1.59527487
    H      2.68019519     -1.30440424      1.44564965
    C      1.39501758     -1.25311085     -0.27502402
    N      1.21308200     -1.32128259     -1.40504332
    C     -1.43000188     -3.97481129      0.94189092
    H     -2.43202305     -4.15544328      1.27086786
    H     -1.11352310     -3.00888427      1.27614421
    H     -0.78117122     -4.72280732      1.34737803
    C     -1.37716432     -4.02849405     -0.59626588
    N     -1.33782436     -4.06846330     -1.74149354
    C     -5.43272226      0.73205770     -0.07983956
    H     -5.53683046     -0.17446807      0.47897408
    H     -6.20604996      1.41568355      0.20215168
    H     -4.47790789      1.16951268      0.12476189
    C     -5.54408961      0.42325826     -1.58444590
    N     -5.62700766      0.19334304     -2.70469370
    C     -0.73520600      0.43232321      3.77061154
    H     -1.64400094      0.85829405      4.14147643
    H     -0.59235009      0.72784744      2.75220263
    H      0.08758542      0.77778540      4.36100907
    C     -0.81703108     -1.10330040      3.85285989
    N     -0.87795357     -2.24664198      3.91409753
    C     -4.24162247     -1.95226397      2.97691889
    H     -3.92959284     -2.41089381      3.89190324
    H     -3.53711986     -2.18122403      2.20480979
    H     -5.20605577     -2.32518855      2.70179210
    C     -4.31660613     -0.42591318      3.16726257
    N     -4.37243487      0.71052436      3.30898210
    C      4.96343096      0.22679825      3.47962882
    H      5.11685977      1.28496011      3.43896853
    H      4.99772735     -0.17688618      2.48929467
    H      5.73101819     -0.22229298      4.07462967
    C      3.58849276     -0.06880486      4.10713480
    N      2.56478878     -0.28889481      4.57434152
    C     -3.22084637      1.26453319     -5.14763639
    H     -2.28076312      1.67147680     -4.83854001
    H     -3.97333488      1.52112748     -4.43152222
    H     -3.48631603      1.66588861     -6.10332398
    C     -3.10876448     -0.26811987     -5.24769765
    N     -3.02531443     -1.40924973     -5.32219781
    C     -3.15136758      5.40801836     -2.41978046
    H     -3.29824519      5.95383544     -1.51125920
    H     -3.94551563      5.63007001     -3.10163163
    H     -2.21635320      5.68910034     -2.85754766
    C     -3.14271581      3.89831078     -2.11595785
    N     -3.13627418      2.77426487     -1.88974812
    C     -2.54404541      3.12377825      1.53347804
    H     -3.50608326      2.93081008      1.96026445
    H     -2.16590580      2.22808069      1.08667225
    H     -2.63127735      3.88539477      0.78699968
    C     -1.57811791      3.59448545      2.63666379
    N     -0.85894098      3.94494837      3.45803573
