
                                 *****************
                                 * O   R   C   A *
                                 *****************

           --- An Ab Initio, DFT and Semiempirical electronic structure package ---

                  #######################################################
                  #                        -***-                        #
                  #          Department of theory and spectroscopy      #
                  #               Directorship: Frank Neese             #
                  #        Max Planck Institute fuer Kohlenforschung    #
                  #                Kaiser Wilhelm Platz 1               #
                  #                 D-45470 Muelheim/Ruhr               #
                  #                      Germany                        #
                  #                                                     #
                  #                  All rights reserved                #
                  #                        -***-                        #
                  #######################################################


                         Program Version 4.2.0 -  RELEASE  -


 With contributions from (in alphabetic order):
   Daniel Aravena         : Magnetic Suceptibility
   Michael Atanasov       : Ab Initio Ligand Field Theory (pilot matlab implementation)
   Alexander A. Auer      : GIAO ZORA, VPT2
   Ute Becker             : Parallelization
   Giovanni Bistoni       : ED, misc. LED, open-shell LED, HFLED
   Martin Brehm           : Molecular dynamics
   Dmytro Bykov           : SCF Hessian
   Vijay G. Chilkuri      : MRCI spin determinant printing, contributions to CSF-ICE
   Dipayan Datta          : RHF DLPNO-CCSD density
   Achintya Kumar Dutta   : EOM-CC, STEOM-CC
   Dmitry Ganyushin       : Spin-Orbit,Spin-Spin,Magnetic field MRCI
   Miquel Garcia          : C-PCM Hessian, Gaussian charge scheme
   Yang Guo               : DLPNO-NEVPT2, CIM, IAO-localization
   Andreas Hansen         : Spin unrestricted coupled pair/coupled cluster methods
   Benjamin Helmich-Paris : CASSCF linear response (MC-RPA)
   Lee Huntington         : MR-EOM, pCC
   Robert Izsak           : Overlap fitted RIJCOSX, COSX-SCS-MP3, EOM
   Christian Kollmar      : KDIIS, OOCD, Brueckner-CCSD(T), CCSD density
   Simone Kossmann        : Meta GGA functionals, TD-DFT gradient, OOMP2, MP2 Hessian
   Martin Krupicka        : AUTO-CI
   Lucas Lang             : DCDCAS
   Dagmar Lenk            : GEPOL surface, SMD
   Dimitrios Liakos       : Extrapolation schemes; Compound Job, initial MDCI parallelization
   Dimitrios Manganas     : Further ROCIS development; embedding schemes
   Dimitrios Pantazis     : SARC Basis sets
   Taras Petrenko         : DFT Hessian,TD-DFT gradient, ASA, ECA, R-Raman, ABS, FL, XAS/XES, NRVS
   Peter Pinski           : DLPNO-MP2, DLPNO-MP2 Gradient
   Christoph Reimann      : Effective Core Potentials
   Marius Retegan         : Local ZFS, SOC
   Christoph Riplinger    : Optimizer, TS searches, QM/MM, DLPNO-CCSD(T), (RO)-DLPNO pert. Triples
   Tobias Risthaus        : Range-separated hybrids, TD-DFT gradient, RPA, STAB
   Michael Roemelt        : Original ROCIS implementation
   Masaaki Saitow         : Open-shell DLPNO-CCSD energy and density
   Barbara Sandhoefer     : DKH picture change effects
   Avijit Sen             : IP-ROCIS
   Kantharuban Sivalingam : CASSCF convergence, NEVPT2, FIC-MRCI
   Bernardo de Souza      : ESD, SOC TD-DFT
   Georgi Stoychev        : AutoAux, RI-MP2 NMR
   Willem Van den Heuvel  : Paramagnetic NMR
   Boris Wezisla          : Elementary symmetry handling
   Frank Wennmohs         : Technical directorship


 We gratefully acknowledge several colleagues who have allowed us to
 interface, adapt or use parts of their codes:
   Stefan Grimme, W. Hujo, H. Kruse,             : VdW corrections, initial TS optimization,
                  C. Bannwarth                     DFT functionals, gCP, sTDA/sTD-DF
   Ed Valeev, F. Pavosevic, A. Kumar             : LibInt (2-el integral package), F12 methods
   Garnet Chan, S. Sharma, J. Yang, R. Olivares  : DMRG
   Ulf Ekstrom                                   : XCFun DFT Library
   Mihaly Kallay                                 : mrcc  (arbitrary order and MRCC methods)
   Andreas Klamt, Michael Diedenhofen            : otool_cosmo (COSMO solvation model)
   Jiri Pittner, Ondrej Demel                    : Mk-CCSD
   Frank Weinhold                                : gennbo (NPA and NBO analysis)
   Christopher J. Cramer and Donald G. Truhlar   : smd solvation model
   Lars Goerigk                                  : TD-DFT with DH, B97 family of functionals
   V. Asgeirsson, H. Jonsson                     : NEB implementation
   FAccTs GmbH                                   : IRC, NEB, NEB-TS, Multilevel, MM, QM/MM, CI optimization
   S Lehtola, MJT Oliveira, MAL Marques          : LibXC Library


 Your calculation uses the libint2 library for the computation of 2-el integrals
 For citations please refer to: http://libint.valeyev.net

 Your ORCA version has been built with support for libXC version: 4.2.3
 For citations please refer to: https://tddft.org/programs/libxc/

 This ORCA versions uses:
   CBLAS   interface :  Fast vector & matrix operations
   LAPACKE interface :  Fast linear algebra routines
   SCALAPACK package :  Parallel linear algebra routines


----- Orbital basis set information -----
Your calculation utilizes the basis: def2-TZVP
   F. Weigend and R. Ahlrichs, Phys. Chem. Chem. Phys. 7, 3297 (2005).

================================================================================
                                        WARNINGS
                       Please study these warnings very carefully!
================================================================================


WARNING: The frozen-core approximation for MP2-gradient calculations is turned on by default.

INFO   : the flag for use of LIBINT has been found!

================================================================================
                                       INPUT FILE
================================================================================
NAME = 12meoh.boyd.etal.mol0,2,11-orca.engrad-mp2.def2tzvp.frozencore.inp
|  1> # 12meoh.boyd.etal.mol0,2,11
|  2> ! MP2 def2-TZVP EnGrad TightSCF
|  3> 
|  4> %pal
|  5>     nprocs 6
|  6> end
|  7> 
|  8> %maxcore 8000
|  9> 
| 10> %scf
| 11>     ConvForced true
| 12> end
| 13> 
| 14> *xyz 0 1
| 15> O  -1.776108874  -2.741384797  -1.019308298
| 16> H  -2.520094035  -2.452295987  -0.420778302
| 17> C  -2.174025166  -3.952700964  -1.647004581
| 18> H  -1.359803895  -4.272673416  -2.304149236
| 19> H  -3.075973971  -3.808692420  -2.256751112
| 20> H  -2.370225393  -4.752784761  -0.918966137
| 21> O  -3.839777402   2.233595098   0.660436763
| 22> H  -2.958345897   1.907036203   0.973588449
| 23> C  -3.600368059   3.168790682  -0.390480452
| 24> H  -4.551709193   3.344148967  -0.901254863
| 25> H  -2.868237594   2.789240199  -1.113617525
| 26> H  -3.243594915   4.128998607   0.009549480
| 27> O   3.252955559   0.588596242   1.858934315
| 28> H   3.621209177  -0.251605199   1.476063364
| 29> C   4.040824528   0.944288422   2.989639460
| 30> H   3.670521436   1.902573549   3.363847391
| 31> H   5.103749934   1.055868619   2.734277559
| 32> H   3.948540682   0.200279590   3.792908518
| 33> *
| 34> 
| 35>                          ****END OF INPUT****
================================================================================

                     *******************************
                     * Energy+Gradient Calculation *
                     *******************************

---------------------------------
CARTESIAN COORDINATES (ANGSTROEM)
---------------------------------
  O     -1.776109   -2.741385   -1.019308
  H     -2.520094   -2.452296   -0.420778
  C     -2.174025   -3.952701   -1.647005
  H     -1.359804   -4.272673   -2.304149
  H     -3.075974   -3.808692   -2.256751
  H     -2.370225   -4.752785   -0.918966
  O     -3.839777    2.233595    0.660437
  H     -2.958346    1.907036    0.973588
  C     -3.600368    3.168791   -0.390480
  H     -4.551709    3.344149   -0.901255
  H     -2.868238    2.789240   -1.113618
  H     -3.243595    4.128999    0.009549
  O      3.252956    0.588596    1.858934
  H      3.621209   -0.251605    1.476063
  C      4.040825    0.944288    2.989639
  H      3.670521    1.902574    3.363847
  H      5.103750    1.055869    2.734278
  H      3.948541    0.200280    3.792909

----------------------------
CARTESIAN COORDINATES (A.U.)
----------------------------
  NO LB      ZA    FRAG     MASS         X           Y           Z
   0 O     8.0000    0    15.999   -3.356359   -5.180466   -1.926214
   1 H     1.0000    0     1.008   -4.762288   -4.634168   -0.795156
   2 C     6.0000    0    12.011   -4.108312   -7.469522   -3.112388
   3 H     1.0000    0     1.008   -2.569657   -8.074183   -4.354211
   4 H     1.0000    0     1.008   -5.812748   -7.197386   -4.264642
   5 H     1.0000    0     1.008   -4.479077   -8.981462   -1.736594
   6 O     8.0000    0    15.999   -7.256128    4.220883    1.248045
   7 H     1.0000    0     1.008   -5.590464    3.603776    1.839816
   8 C     6.0000    0    12.011   -6.803710    5.988147   -0.737901
   9 H     1.0000    0     1.008   -8.601484    6.319526   -1.703125
  10 H     1.0000    0     1.008   -5.420184    5.270900   -2.104432
  11 H     1.0000    0     1.008   -6.129506    7.802677    0.018046
  12 O     8.0000    0    15.999    6.147195    1.112286    3.512877
  13 H     1.0000    0     1.008    6.843094   -0.475465    2.789356
  14 C     6.0000    0    12.011    7.636052    1.784447    5.649600
  15 H     1.0000    0     1.008    6.936280    3.595343    6.356750
  16 H     1.0000    0     1.008    9.644690    1.995303    5.167036
  17 H     1.0000    0     1.008    7.461661    0.378474    7.167558

--------------------------------
INTERNAL COORDINATES (ANGSTROEM)
--------------------------------
 O      0   0   0     0.000000000000     0.00000000     0.00000000
 H      1   0   0     0.997659468941     0.00000000     0.00000000
 C      1   2   0     1.421135762539   107.64775557     0.00000000
 H      3   1   2     1.094156179795   107.82879233   180.01581697
 H      3   1   2     1.098198952673   111.31077271    61.21076131
 H      3   1   2     1.099394645811   112.19621244   299.46622341
 O      2   1   3     4.986799120318   126.84869235   212.82780023
 H      7   2   1     0.990770502364    61.53546056   293.76482454
 C      7   2   1     1.427001964481   114.31418478    31.17169484
 H      9   7   2     1.093933718418   107.63861717   100.26577469
 H      9   7   2     1.096813937399   111.76190604   340.41991201
 H      9   7   2     1.099686447133   111.02456630   218.49347372
 O      8   7   2     6.411114334538   166.74146658   102.67052314
 H     13   8   7     0.994051987447   118.65553607   264.39273292
 C     13   8   7     1.423287941407   126.48533459   116.55103088
 H     15  13   8     1.093373833690   107.66487715   326.86747658
 H     15  13   8     1.098849516342   112.09953284   207.54810530
 H     15  13   8     1.098775058812   111.41155745    85.53764741

---------------------------
INTERNAL COORDINATES (A.U.)
---------------------------
 O      0   0   0     0.000000000000     0.00000000     0.00000000
 H      1   0   0     1.885303171211     0.00000000     0.00000000
 C      1   2   0     2.685557390320   107.64775557     0.00000000
 H      3   1   2     2.067655527549   107.82879233   180.01581697
 H      3   1   2     2.075295261111   111.31077271    61.21076131
 H      3   1   2     2.077554793683   112.19621244   299.46622341
 O      2   1   3     9.423684622280   126.84869235   212.82780023
 H      7   2   1     1.872284911036    61.53546056   293.76482454
 C      7   2   1     2.696642905436   114.31418478    31.17169484
 H      9   7   2     2.067235136471   107.63861717   100.26577469
 H      9   7   2     2.072677961553   111.76190604   340.41991201
 H      9   7   2     2.078106218267   111.02456630   218.49347372
 O      8   7   2    12.115250305533   166.74146658   102.67052314
 H     13   8   7     1.878486019156   118.65553607   264.39273292
 C     13   8   7     2.689624418973   126.48533459   116.55103088
 H     15  13   8     2.066177107669   107.66487715   326.86747658
 H     15  13   8     2.076524648278   112.09953284   207.54810530
 H     15  13   8     2.076383943937   111.41155745    85.53764741

---------------------
BASIS SET INFORMATION
---------------------
There are 3 groups of distinct atoms

 Group   1 Type O   : 11s6p2d1f contracted to 5s3p2d1f pattern {62111/411/11/1}
 Group   2 Type H   : 5s1p contracted to 3s1p pattern {311/1}
 Group   3 Type C   : 11s6p2d1f contracted to 5s3p2d1f pattern {62111/411/11/1}

Atom   0O    basis set group =>   1
Atom   1H    basis set group =>   2
Atom   2C    basis set group =>   3
Atom   3H    basis set group =>   2
Atom   4H    basis set group =>   2
Atom   5H    basis set group =>   2
Atom   6O    basis set group =>   1
Atom   7H    basis set group =>   2
Atom   8C    basis set group =>   3
Atom   9H    basis set group =>   2
Atom  10H    basis set group =>   2
Atom  11H    basis set group =>   2
Atom  12O    basis set group =>   1
Atom  13H    basis set group =>   2
Atom  14C    basis set group =>   3
Atom  15H    basis set group =>   2
Atom  16H    basis set group =>   2
Atom  17H    basis set group =>   2


           ************************************************************
           *        Program running with 6 parallel MPI-processes     *
           *              working on a common directory               *
           ************************************************************
------------------------------------------------------------------------------
                           ORCA GTO INTEGRAL CALCULATION
------------------------------------------------------------------------------

                         BASIS SET STATISTICS AND STARTUP INFO

 # of primitive gaussian shells          ...  192
 # of primitive gaussian functions       ...  372
 # of contracted shells                  ...  114
 # of contracted basis functions         ...  258
 Highest angular momentum                ...    3
 Maximum contraction depth               ...    6
 Integral package used                   ... LIBINT
 Integral threshhold            Thresh   ...  2.500e-11
 Primitive cut-off              TCut     ...  2.500e-12


------------------------------ INTEGRAL EVALUATION ----------------------------


 * One electron integrals 
 Pre-screening matrix                    ... done
 Shell pair data                         ... done (   0.001 sec)



           ************************************************************
           *        Program running with 6 parallel MPI-processes     *
           *              working on a common directory               *
           ************************************************************
-------------------------------------------------------------------------------
                                 ORCA SCF
-------------------------------------------------------------------------------

------------
SCF SETTINGS
------------
Hamiltonian:
 Ab initio Hamiltonian  Method          .... Hartree-Fock(GTOs)


General Settings:
 Integral files         IntName         .... 12meoh.boyd.etal.mol0,2,11-orca.engrad-mp2.def2tzvp.frozencore
 Hartree-Fock type      HFTyp           .... RHF
 Total Charge           Charge          ....    0
 Multiplicity           Mult            ....    1
 Number of Electrons    NEL             ....   54
 Basis Dimension        Dim             ....  258
 Nuclear Repulsion      ENuc            ....    189.7210106615 Eh

Convergence Acceleration:
 DIIS                   CNVDIIS         .... on
   Start iteration      DIISMaxIt       ....    12
   Startup error        DIISStart       ....  0.200000
   # of expansion vecs  DIISMaxEq       ....     5
   Bias factor          DIISBfac        ....   1.050
   Max. coefficient     DIISMaxC        ....  10.000
 Newton-Raphson         CNVNR           .... off
 SOSCF                  CNVSOSCF        .... on
   Start iteration      SOSCFMaxIt      ....   150
   Startup grad/error   SOSCFStart      ....  0.003300
 Level Shifting         CNVShift        .... on
   Level shift para.    LevelShift      ....    0.2500
   Turn off err/grad.   ShiftErr        ....    0.0010
 Zerner damping         CNVZerner       .... off
 Static damping         CNVDamp         .... on
   Fraction old density DampFac         ....    0.7000
   Max. Damping (<1)    DampMax         ....    0.9800
   Min. Damping (>=0)   DampMin         ....    0.0000
   Turn off err/grad.   DampErr         ....    0.1000
 Fernandez-Rico         CNVRico         .... off

SCF Procedure:
 Maximum # iterations   MaxIter         ....   125
 SCF integral mode      SCFMode         .... Direct
   Integral package                     .... LIBINT
 Reset frequency        DirectResetFreq ....    20
 Integral Threshold     Thresh          ....  2.500e-11 Eh
 Primitive CutOff       TCut            ....  2.500e-12 Eh

Convergence Tolerance:
 Convergence Check Mode ConvCheckMode   .... Total+1el-Energy
 Convergence forced     ConvForced      .... 1
 Energy Change          TolE            ....  1.000e-08 Eh
 1-El. energy change                    ....  1.000e-05 Eh
 Orbital Gradient       TolG            ....  1.000e-05
 Orbital Rotation angle TolX            ....  1.000e-05
 DIIS Error             TolErr          ....  5.000e-07


Diagonalization of the overlap matrix:
Smallest eigenvalue                        ... 1.676e-03
Time for diagonalization                   ...    0.010 sec
Threshold for overlap eigenvalues          ... 1.000e-08
Number of eigenvalues below threshold      ... 0
Time for construction of square roots      ...    0.005 sec
Total time needed                          ...    0.015 sec

-------------------
DFT GRID GENERATION
-------------------

General Integration Accuracy     IntAcc      ...  4.340
Radial Grid Type                 RadialGrid  ... Gauss-Chebyshev
Angular Grid (max. acc.)         AngularGrid ... Lebedev-110
Angular grid pruning method      GridPruning ... 3 (G Style)
Weight generation scheme         WeightScheme... Becke
Basis function cutoff            BFCut       ...    1.0000e-11
Integration weight cutoff        WCut        ...    1.0000e-14
Grids for H and He will be reduced by one unit

# of grid points (after initial pruning)     ...  19644 (   0.0 sec)
# of grid points (after weights+screening)   ...  18912 (   0.0 sec)
nearest neighbour list constructed           ...    0.0 sec
Grid point re-assignment to atoms done       ...    0.0 sec
Grid point division into batches done        ...    0.0 sec
Reduced shell lists constructed in    0.0 sec

Total number of grid points                  ...    18912
Total number of batches                      ...      304
Average number of points per batch           ...       62
Average number of grid points per atom       ...     1051
Average number of shells per batch           ...    49.48 (43.40%)
Average number of basis functions per batch  ...   103.87 (40.26%)
Average number of large shells per batch     ...    35.65 (72.06%)
Average number of large basis fcns per batch ...    80.62 (77.62%)
Maximum spatial batch extension              ...  13.56, 17.82, 16.71 au
Average spatial batch extension              ...   0.52,  0.53,  0.54 au

Time for grid setup =    0.053 sec

------------------------------
INITIAL GUESS: MODEL POTENTIAL
------------------------------
Loading Hartree-Fock densities                     ... done
Calculating cut-offs                               ... done
Setting up the integral package                    ... done
Initializing the effective Hamiltonian             ... done
Starting the Coulomb interaction                   ... done (   0.0 sec)
Reading the grid                                   ... done
Mapping shells                                     ... done
Starting the XC term evaluation                    ... done (   0.0 sec)
Transforming the Hamiltonian                       ... done (   0.0 sec)
Diagonalizing the Hamiltonian                      ... done (   0.0 sec)
Back transforming the eigenvectors                 ... done (   0.0 sec)
Now organizing SCF variables                       ... done
                      ------------------
                      INITIAL GUESS DONE (   0.2 sec)
                      ------------------
--------------
SCF ITERATIONS
--------------
ITER       Energy         Delta-E        Max-DP      RMS-DP      [F,P]     Damp
               ***  Starting incremental Fock matrix formation  ***
  0   -344.9084664826   0.000000000000 0.03661357  0.00076704  0.2886668 0.7000
  1   -345.0396874846  -0.131221002048 0.02524694  0.00056730  0.2178192 0.7000
                               ***Turning on DIIS***
  2   -345.1153501759  -0.075662691281 0.01493295  0.00034923  0.1628332 0.7000
  3   -345.9917477708  -0.876397594888 0.00746164  0.00019376  0.1199767 0.7000
  4   -345.8394113638   0.152336406975 0.01638889  0.00046133  0.0845795 0.0000
  5   -345.2993840940   0.540027269803 0.00212149  0.00006103  0.0060825 0.0000
                      *** Initiating the SOSCF procedure ***
                           *** Shutting down DIIS ***
                      *** Re-Reading the Fockian *** 
                      *** Removing any level shift *** 
ITER      Energy       Delta-E        Grad      Rot      Max-DP    RMS-DP
  6   -345.27423468   0.0251494150  0.000794  0.000794  0.000792  0.000031
               *** Restarting incremental Fock matrix formation ***
  7   -345.26898602   0.0052486594  0.000322  0.000367  0.000475  0.000017
  8   -345.26899285  -0.0000068267  0.000197  0.000213  0.000312  0.000012
  9   -345.26899452  -0.0000016729  0.000030  0.000028  0.000052  0.000002
 10   -345.26899457  -0.0000000483  0.000007  0.000014  0.000016  0.000001
                 **** Energy Check signals convergence ****
              ***Rediagonalizing the Fockian in SOSCF/NRSCF***

               *****************************************************
               *                     SUCCESS                       *
               *           SCF CONVERGED AFTER  11 CYCLES          *
               *****************************************************


----------------
TOTAL SCF ENERGY
----------------

Total Energy       :         -345.26899457 Eh           -9395.24699 eV

Components:
Nuclear Repulsion  :          189.72101066 Eh            5162.57116 eV
Electronic Energy  :         -534.99000523 Eh          -14557.81815 eV
One Electron Energy:         -848.46913918 Eh          -23088.01905 eV
Two Electron Energy:          313.47913395 Eh            8530.20090 eV

Virial components:
Potential Energy   :         -689.88616122 Eh          -18772.75684 eV
Kinetic Energy     :          344.61716665 Eh            9377.50985 eV
Virial Ratio       :            2.00189146


---------------
SCF CONVERGENCE
---------------

  Last Energy change         ...   -3.8743e-09  Tolerance :   1.0000e-08
  Last MAX-Density change    ...    4.4788e-06  Tolerance :   1.0000e-07
  Last RMS-Density change    ...    1.2955e-07  Tolerance :   5.0000e-09
  Last Orbital Gradient      ...    2.0633e-06  Tolerance :   1.0000e-05
  Last Orbital Rotation      ...    5.2502e-06  Tolerance :   1.0000e-05

             **** THE GBW FILE WAS UPDATED (12meoh.boyd.etal.mol0,2,11-orca.engrad-mp2.def2tzvp.frozencore.gbw) ****
             **** DENSITY FILE WAS UPDATED (12meoh.boyd.etal.mol0,2,11-orca.engrad-mp2.def2tzvp.frozencore.scfp) ****
             **** ENERGY FILE WAS UPDATED (12meoh.boyd.etal.mol0,2,11-orca.engrad-mp2.def2tzvp.frozencore.en.tmp) ****
             **** THE GBW FILE WAS UPDATED (12meoh.boyd.etal.mol0,2,11-orca.engrad-mp2.def2tzvp.frozencore.gbw) ****
             **** DENSITY FILE WAS UPDATED (12meoh.boyd.etal.mol0,2,11-orca.engrad-mp2.def2tzvp.frozencore.scfp) ****
----------------
ORBITAL ENERGIES
----------------

  NO   OCC          E(Eh)            E(eV) 
   0   2.0000     -20.556827      -559.3797 
   1   2.0000     -20.556582      -559.3730 
   2   2.0000     -20.553340      -559.2848 
   3   2.0000     -11.271469      -306.7123 
   4   2.0000     -11.270339      -306.6815 
   5   2.0000     -11.267935      -306.6161 
   6   2.0000      -1.346159       -36.6308 
   7   2.0000      -1.345741       -36.6195 
   8   2.0000      -1.342811       -36.5398 
   9   2.0000      -0.919479       -25.0203 
  10   2.0000      -0.917876       -24.9767 
  11   2.0000      -0.915860       -24.9218 
  12   2.0000      -0.681250       -18.5377 
  13   2.0000      -0.680227       -18.5099 
  14   2.0000      -0.677890       -18.4463 
  15   2.0000      -0.616728       -16.7820 
  16   2.0000      -0.616004       -16.7623 
  17   2.0000      -0.612919       -16.6784 
  18   2.0000      -0.590618       -16.0715 
  19   2.0000      -0.590014       -16.0551 
  20   2.0000      -0.586429       -15.9575 
  21   2.0000      -0.499875       -13.6023 
  22   2.0000      -0.499060       -13.5801 
  23   2.0000      -0.498007       -13.5514 
  24   2.0000      -0.448777       -12.2118 
  25   2.0000      -0.447628       -12.1806 
  26   2.0000      -0.445589       -12.1251 
  27   0.0000       0.126738         3.4487 
  28   0.0000       0.136137         3.7045 
  29   0.0000       0.147747         4.0204 
  30   0.0000       0.175314         4.7705 
  31   0.0000       0.176275         4.7967 
  32   0.0000       0.184370         5.0170 
  33   0.0000       0.229035         6.2324 
  34   0.0000       0.230064         6.2604 
  35   0.0000       0.230849         6.2817 
  36   0.0000       0.231704         6.3050 
  37   0.0000       0.232191         6.3182 
  38   0.0000       0.235917         6.4196 
  39   0.0000       0.254885         6.9358 
  40   0.0000       0.255790         6.9604 
  41   0.0000       0.260454         7.0873 
  42   0.0000       0.329938         8.9781 
  43   0.0000       0.332766         9.0550 
  44   0.0000       0.339212         9.2304 
  45   0.0000       0.339629         9.2418 
  46   0.0000       0.341366         9.2890 
  47   0.0000       0.343630         9.3506 
  48   0.0000       0.460650        12.5349 
  49   0.0000       0.461188        12.5496 
  50   0.0000       0.465372        12.6634 
  51   0.0000       0.521404        14.1881 
  52   0.0000       0.521928        14.2024 
  53   0.0000       0.524094        14.2613 
  54   0.0000       0.566580        15.4174 
  55   0.0000       0.571255        15.5446 
  56   0.0000       0.583487        15.8775 
  57   0.0000       0.609626        16.5888 
  58   0.0000       0.610168        16.6035 
  59   0.0000       0.614089        16.7102 
  60   0.0000       0.620688        16.8898 
  61   0.0000       0.621283        16.9060 
  62   0.0000       0.625819        17.0294 
  63   0.0000       0.658182        17.9100 
  64   0.0000       0.658219        17.9110 
  65   0.0000       0.660310        17.9679 
  66   0.0000       0.683851        18.6085 
  67   0.0000       0.684613        18.6293 
  68   0.0000       0.686966        18.6933 
  69   0.0000       0.705697        19.2030 
  70   0.0000       0.707525        19.2527 
  71   0.0000       0.710176        19.3249 
  72   0.0000       0.765140        20.8205 
  73   0.0000       0.765658        20.8346 
  74   0.0000       0.777458        21.1557 
  75   0.0000       0.882148        24.0045 
  76   0.0000       0.882324        24.0092 
  77   0.0000       0.884051        24.0562 
  78   0.0000       0.923339        25.1253 
  79   0.0000       0.923522        25.1303 
  80   0.0000       0.923775        25.1372 
  81   0.0000       0.952912        25.9300 
  82   0.0000       0.952977        25.9318 
  83   0.0000       0.953917        25.9574 
  84   0.0000       1.091159        29.6920 
  85   0.0000       1.092079        29.7170 
  86   0.0000       1.092299        29.7230 
  87   0.0000       1.115749        30.3611 
  88   0.0000       1.116391        30.3785 
  89   0.0000       1.130120        30.7521 
  90   0.0000       1.245847        33.9012 
  91   0.0000       1.247631        33.9498 
  92   0.0000       1.248354        33.9694 
  93   0.0000       1.535386        41.7800 
  94   0.0000       1.535958        41.7956 
  95   0.0000       1.536065        41.7985 
  96   0.0000       1.657086        45.0916 
  97   0.0000       1.659008        45.1439 
  98   0.0000       1.659837        45.1664 
  99   0.0000       1.706221        46.4286 
 100   0.0000       1.706770        46.4436 
 101   0.0000       1.708047        46.4783 
 102   0.0000       1.774895        48.2974 
 103   0.0000       1.775723        48.3199 
 104   0.0000       1.778277        48.3894 
 105   0.0000       1.792243        48.7694 
 106   0.0000       1.792924        48.7879 
 107   0.0000       1.793511        48.8039 
 108   0.0000       1.793687        48.8087 
 109   0.0000       1.794449        48.8294 
 110   0.0000       1.808955        49.2242 
 111   0.0000       1.837250        49.9941 
 112   0.0000       1.841175        50.1009 
 113   0.0000       1.853901        50.4472 
 114   0.0000       1.861885        50.6645 
 115   0.0000       1.863272        50.7022 
 116   0.0000       1.866324        50.7853 
 117   0.0000       1.962530        53.4031 
 118   0.0000       1.963714        53.4354 
 119   0.0000       1.969360        53.5890 
 120   0.0000       2.137989        58.1776 
 121   0.0000       2.140133        58.2360 
 122   0.0000       2.143969        58.3404 
 123   0.0000       2.208140        60.0865 
 124   0.0000       2.208464        60.0954 
 125   0.0000       2.210575        60.1528 
 126   0.0000       2.244239        61.0688 
 127   0.0000       2.244324        61.0712 
 128   0.0000       2.251305        61.2611 
 129   0.0000       2.288372        62.2698 
 130   0.0000       2.289487        62.3001 
 131   0.0000       2.292382        62.3789 
 132   0.0000       2.300645        62.6037 
 133   0.0000       2.304763        62.7158 
 134   0.0000       2.310126        62.8617 
 135   0.0000       2.442580        66.4660 
 136   0.0000       2.445833        66.5545 
 137   0.0000       2.454776        66.7978 
 138   0.0000       2.529461        68.8301 
 139   0.0000       2.550377        69.3993 
 140   0.0000       2.555836        69.5478 
 141   0.0000       2.556418        69.5637 
 142   0.0000       2.563263        69.7499 
 143   0.0000       2.565385        69.8077 
 144   0.0000       2.592987        70.5588 
 145   0.0000       2.593794        70.5807 
 146   0.0000       2.613240        71.1099 
 147   0.0000       2.631399        71.6040 
 148   0.0000       2.633355        71.6572 
 149   0.0000       2.634913        71.6996 
 150   0.0000       2.696061        73.3636 
 151   0.0000       2.696350        73.3714 
 152   0.0000       2.702018        73.5256 
 153   0.0000       2.780176        75.6524 
 154   0.0000       2.780256        75.6546 
 155   0.0000       2.783192        75.7345 
 156   0.0000       2.840287        77.2881 
 157   0.0000       2.840418        77.2917 
 158   0.0000       2.844256        77.3962 
 159   0.0000       2.900302        78.9212 
 160   0.0000       2.901716        78.9597 
 161   0.0000       2.902630        78.9846 
 162   0.0000       3.044263        82.8386 
 163   0.0000       3.047384        82.9235 
 164   0.0000       3.047591        82.9292 
 165   0.0000       3.103074        84.4389 
 166   0.0000       3.110787        84.6488 
 167   0.0000       3.111800        84.6764 
 168   0.0000       3.136684        85.3535 
 169   0.0000       3.138392        85.4000 
 170   0.0000       3.160914        86.0128 
 171   0.0000       3.243553        88.2616 
 172   0.0000       3.245875        88.3248 
 173   0.0000       3.246818        88.3504 
 174   0.0000       3.356042        91.3225 
 175   0.0000       3.357578        91.3643 
 176   0.0000       3.361067        91.4593 
 177   0.0000       3.420855        93.0862 
 178   0.0000       3.420937        93.0884 
 179   0.0000       3.424423        93.1833 
 180   0.0000       3.537930        96.2720 
 181   0.0000       3.539138        96.3048 
 182   0.0000       3.539925        96.3263 
 183   0.0000       3.638649        99.0127 
 184   0.0000       3.638846        99.0180 
 185   0.0000       3.647295        99.2479 
 186   0.0000       3.667612        99.8008 
 187   0.0000       3.670958        99.8919 
 188   0.0000       3.671925        99.9181 
 189   0.0000       3.723106       101.3109 
 190   0.0000       3.723949       101.3338 
 191   0.0000       3.738875       101.7400 
 192   0.0000       3.861541       105.0779 
 193   0.0000       3.862696       105.1093 
 194   0.0000       3.865510       105.1859 
 195   0.0000       3.888921       105.8229 
 196   0.0000       3.890021       105.8528 
 197   0.0000       3.892869       105.9303 
 198   0.0000       3.903031       106.2069 
 199   0.0000       3.903621       106.2229 
 200   0.0000       3.904441       106.2453 
 201   0.0000       4.251407       115.6867 
 202   0.0000       4.251785       115.6969 
 203   0.0000       4.259143       115.8972 
 204   0.0000       4.495579       122.3309 
 205   0.0000       4.497356       122.3793 
 206   0.0000       4.512380       122.7881 
 207   0.0000       4.534888       123.4006 
 208   0.0000       4.536147       123.4348 
 209   0.0000       4.536205       123.4364 
 210   0.0000       4.709483       128.1516 
 211   0.0000       4.709923       128.1635 
 212   0.0000       4.712581       128.2358 
 213   0.0000       4.867465       132.4504 
 214   0.0000       4.868922       132.4901 
 215   0.0000       4.870620       132.5363 
 216   0.0000       5.693056       154.9159 
 217   0.0000       5.696247       155.0028 
 218   0.0000       5.697890       155.0475 
 219   0.0000       5.768467       156.9680 
 220   0.0000       5.773496       157.1048 
 221   0.0000       5.773639       157.1087 
 222   0.0000       5.877022       159.9219 
 223   0.0000       5.880071       160.0049 
 224   0.0000       5.885463       160.1516 
 225   0.0000       6.157474       167.5534 
 226   0.0000       6.163329       167.7127 
 227   0.0000       6.167539       167.8273 
 228   0.0000       6.170470       167.9070 
 229   0.0000       6.172619       167.9655 
 230   0.0000       6.176986       168.0843 
 231   0.0000       6.322230       172.0366 
 232   0.0000       6.325241       172.1186 
 233   0.0000       6.328372       172.2038 
 234   0.0000       6.653592       181.0534 
 235   0.0000       6.664234       181.3430 
 236   0.0000       6.669587       181.4887 
 237   0.0000       6.948594       189.0809 
 238   0.0000       6.949753       189.1124 
 239   0.0000       6.952257       189.1805 
 240   0.0000       7.151245       194.5953 
 241   0.0000       7.154111       194.6733 
 242   0.0000       7.162188       194.8930 
 243   0.0000       7.218296       196.4198 
 244   0.0000       7.219951       196.4648 
 245   0.0000       7.221331       196.5024 
 246   0.0000       7.457100       202.9180 
 247   0.0000       7.459233       202.9761 
 248   0.0000       7.460328       203.0059 
 249   0.0000       7.589627       206.5243 
 250   0.0000       7.591433       206.5734 
 251   0.0000       7.595243       206.6771 
 252   0.0000      23.355213       635.5277 
 253   0.0000      23.361331       635.6941 
 254   0.0000      23.367059       635.8500 
 255   0.0000      45.144514      1228.4447 
 256   0.0000      45.148027      1228.5403 
 257   0.0000      45.153697      1228.6946 

                    ********************************
                    * MULLIKEN POPULATION ANALYSIS *
                    ********************************

-----------------------
MULLIKEN ATOMIC CHARGES
-----------------------
   0 O :   -0.545876
   1 H :    0.331746
   2 C :   -0.074880
   3 H :    0.106905
   4 H :    0.091681
   5 H :    0.090376
   6 O :   -0.549998
   7 H :    0.332343
   8 C :   -0.077107
   9 H :    0.105996
  10 H :    0.097670
  11 H :    0.091144
  12 O :   -0.545911
  13 H :    0.331085
  14 C :   -0.074849
  15 H :    0.107440
  16 H :    0.091284
  17 H :    0.090951
Sum of atomic charges:    0.0000000

--------------------------------
MULLIKEN REDUCED ORBITAL CHARGES
--------------------------------
  0 O s       :     3.806015  s :     3.806015
      pz      :     1.631895  p :     4.705424
      px      :     1.581719
      py      :     1.491809
      dz2     :     0.002592  d :     0.032709
      dxz     :     0.009560
      dyz     :     0.004674
      dx2y2   :     0.008356
      dxy     :     0.007527
      f0      :     0.000294  f :     0.001728
      f+1     :     0.000124
      f-1     :     0.000212
      f+2     :     0.000475
      f-2     :     0.000322
      f+3     :     0.000152
      f-3     :     0.000148
  1 H s       :     0.625835  s :     0.625835
      pz      :     0.015881  p :     0.042420
      px      :     0.015019
      py      :     0.011519
  2 C s       :     3.193440  s :     3.193440
      pz      :     0.967743  p :     2.757256
      px      :     1.025274
      py      :     0.764239
      dz2     :     0.013222  d :     0.115241
      dxz     :     0.026260
      dyz     :     0.028033
      dx2y2   :     0.026063
      dxy     :     0.021664
      f0      :     0.000508  f :     0.008941
      f+1     :     0.000224
      f-1     :     0.001992
      f+2     :     0.002323
      f-2     :     0.001507
      f+3     :     0.001133
      f-3     :     0.001255
  3 H s       :     0.871971  s :     0.871971
      pz      :     0.007725  p :     0.021124
      px      :     0.009676
      py      :     0.003724
  4 H s       :     0.888201  s :     0.888201
      pz      :     0.006915  p :     0.020119
      px      :     0.010754
      py      :     0.002450
  5 H s       :     0.889581  s :     0.889581
      pz      :     0.007579  p :     0.020043
      px      :     0.003643
      py      :     0.008820
  6 O s       :     3.805342  s :     3.805342
      pz      :     1.583514  p :     4.710442
      px      :     1.486766
      py      :     1.640162
      dz2     :     0.005450  d :     0.032488
      dxz     :     0.006258
      dyz     :     0.006922
      dx2y2   :     0.008310
      dxy     :     0.005548
      f0      :     0.000220  f :     0.001725
      f+1     :     0.000107
      f-1     :     0.000436
      f+2     :     0.000336
      f-2     :     0.000279
      f+3     :     0.000117
      f-3     :     0.000231
  7 H s       :     0.624539  s :     0.624539
      pz      :     0.012740  p :     0.043119
      px      :     0.016779
      py      :     0.013600
  8 C s       :     3.195891  s :     3.195891
      pz      :     0.830396  p :     2.757943
      px      :     1.050458
      py      :     0.877089
      dz2     :     0.024663  d :     0.114392
      dxz     :     0.031503
      dyz     :     0.018575
      dx2y2   :     0.021468
      dxy     :     0.018183
      f0      :     0.001633  f :     0.008881
      f+1     :     0.000451
      f-1     :     0.001765
      f+2     :     0.002067
      f-2     :     0.001817
      f+3     :     0.000737
      f-3     :     0.000411
  9 H s       :     0.872901  s :     0.872901
      pz      :     0.005558  p :     0.021104
      px      :     0.012146
      py      :     0.003399
 10 H s       :     0.882293  s :     0.882293
      pz      :     0.007932  p :     0.020036
      px      :     0.008208
      py      :     0.003896
 11 H s       :     0.888581  s :     0.888581
      pz      :     0.003879  p :     0.020275
      px      :     0.004474
      py      :     0.011922
 12 O s       :     3.804827  s :     3.804827
      pz      :     1.512222  p :     4.706849
      px      :     1.683397
      py      :     1.511231
      dz2     :     0.005808  d :     0.032501
      dxz     :     0.010050
      dyz     :     0.004127
      dx2y2   :     0.005780
      dxy     :     0.006736
      f0      :     0.000234  f :     0.001735
      f+1     :     0.000355
      f-1     :     0.000215
      f+2     :     0.000320
      f-2     :     0.000300
      f+3     :     0.000269
      f-3     :     0.000041
 13 H s       :     0.626085  s :     0.626085
      pz      :     0.012862  p :     0.042830
      px      :     0.012017
      py      :     0.017950
 14 C s       :     3.193624  s :     3.193624
      pz      :     0.800209  p :     2.757370
      px      :     0.921965
      py      :     1.035195
      dz2     :     0.029553  d :     0.114942
      dxz     :     0.017266
      dyz     :     0.031631
      dx2y2   :     0.026567
      dxy     :     0.009924
      f0      :     0.001789  f :     0.008914
      f+1     :     0.001625
      f-1     :     0.001121
      f+2     :     0.001946
      f-2     :     0.001276
      f+3     :     0.000859
      f-3     :     0.000297
 15 H s       :     0.871403  s :     0.871403
      pz      :     0.004275  p :     0.021157
      px      :     0.004323
      py      :     0.012559
 16 H s       :     0.888685  s :     0.888685
      pz      :     0.002860  p :     0.020031
      px      :     0.013699
      py      :     0.003472
 17 H s       :     0.888907  s :     0.888907
      pz      :     0.009022  p :     0.020141
      px      :     0.003058
      py      :     0.008061


                     *******************************
                     * LOEWDIN POPULATION ANALYSIS *
                     *******************************

----------------------
LOEWDIN ATOMIC CHARGES
----------------------
   0 O :   -0.130141
   1 H :    0.192657
   2 C :   -0.338959
   3 H :    0.100865
   4 H :    0.087958
   5 H :    0.087589
   6 O :   -0.133715
   7 H :    0.188365
   8 C :   -0.332683
   9 H :    0.100043
  10 H :    0.089521
  11 H :    0.088500
  12 O :   -0.130013
  13 H :    0.189968
  14 C :   -0.336615
  15 H :    0.100951
  16 H :    0.087854
  17 H :    0.087855

-------------------------------
LOEWDIN REDUCED ORBITAL CHARGES
-------------------------------
  0 O s       :     3.395784  s :     3.395784
      pz      :     1.579943  p :     4.661403
      px      :     1.570002
      py      :     1.511459
      dz2     :     0.007019  d :     0.068816
      dxz     :     0.016348
      dyz     :     0.014057
      dx2y2   :     0.015042
      dxy     :     0.016350
      f0      :     0.000466  f :     0.004138
      f+1     :     0.000226
      f-1     :     0.000626
      f+2     :     0.000952
      f-2     :     0.000591
      f+3     :     0.000611
      f-3     :     0.000666
  1 H s       :     0.664661  s :     0.664661
      pz      :     0.050049  p :     0.142682
      px      :     0.061532
      py      :     0.031101
  2 C s       :     2.861845  s :     2.861845
      pz      :     1.029022  p :     2.993293
      px      :     1.075500
      py      :     0.888771
      dz2     :     0.041917  d :     0.426008
      dxz     :     0.092561
      dyz     :     0.112192
      dx2y2   :     0.103010
      dxy     :     0.076329
      f0      :     0.006045  f :     0.057812
      f+1     :     0.002268
      f-1     :     0.014300
      f+2     :     0.007674
      f-2     :     0.007644
      f+3     :     0.010013
      f-3     :     0.009867
  3 H s       :     0.840523  s :     0.840523
      pz      :     0.021010  p :     0.058612
      px      :     0.026776
      py      :     0.010827
  4 H s       :     0.853481  s :     0.853481
      pz      :     0.020222  p :     0.058560
      px      :     0.029478
      py      :     0.008860
  5 H s       :     0.854023  s :     0.854023
      pz      :     0.021945  p :     0.058388
      px      :     0.012628
      py      :     0.023815
  6 O s       :     3.395810  s :     3.395810
      pz      :     1.570049  p :     4.665874
      px      :     1.487740
      py      :     1.608085
      dz2     :     0.013292  d :     0.067931
      dxz     :     0.014455
      dyz     :     0.014960
      dx2y2   :     0.012927
      dxy     :     0.012298
      f0      :     0.000616  f :     0.004099
      f+1     :     0.000397
      f-1     :     0.000843
      f+2     :     0.000752
      f-2     :     0.000566
      f+3     :     0.000372
      f-3     :     0.000554
  7 H s       :     0.665689  s :     0.665689
      pz      :     0.035509  p :     0.145947
      px      :     0.072614
      py      :     0.037823
  8 C s       :     2.863441  s :     2.863441
      pz      :     0.935014  p :     2.992025
      px      :     1.090514
      py      :     0.966497
      dz2     :     0.088191  d :     0.420306
      dxz     :     0.105282
      dyz     :     0.091831
      dx2y2   :     0.077417
      dxy     :     0.057584
      f0      :     0.013046  f :     0.056910
      f+1     :     0.003503
      f-1     :     0.012582
      f+2     :     0.008849
      f-2     :     0.009783
      f+3     :     0.004951
      f-3     :     0.004195
  9 H s       :     0.841265  s :     0.841265
      pz      :     0.015445  p :     0.058692
      px      :     0.032550
      py      :     0.010698
 10 H s       :     0.851495  s :     0.851495
      pz      :     0.022453  p :     0.058983
      px      :     0.023679
      py      :     0.012852
 11 H s       :     0.853137  s :     0.853137
      pz      :     0.012505  p :     0.058364
      px      :     0.014709
      py      :     0.031150
 12 O s       :     3.394471  s :     3.394471
      pz      :     1.515525  p :     4.662937
      px      :     1.666812
      py      :     1.480600
      dz2     :     0.014343  d :     0.068497
      dxz     :     0.017887
      dyz     :     0.014804
      dx2y2   :     0.011639
      dxy     :     0.009824
      f0      :     0.000771  f :     0.004108
      f+1     :     0.000781
      f-1     :     0.000455
      f+2     :     0.000578
      f-2     :     0.000775
      f+3     :     0.000630
      f-3     :     0.000117
 13 H s       :     0.665671  s :     0.665671
      pz      :     0.035485  p :     0.144360
      px      :     0.041697
      py      :     0.067179
 14 C s       :     2.862201  s :     2.862201
      pz      :     0.911088  p :     2.992991
      px      :     1.008608
      py      :     1.073295
      dz2     :     0.110251  d :     0.423993
      dxz     :     0.084766
      dyz     :     0.104853
      dx2y2   :     0.090255
      dxy     :     0.033868
      f0      :     0.013463  f :     0.057430
      f+1     :     0.012322
      f-1     :     0.005870
      f+2     :     0.009072
      f-2     :     0.009445
      f+3     :     0.004309
      f-3     :     0.002951
 15 H s       :     0.840292  s :     0.840292
      pz      :     0.012192  p :     0.058757
      px      :     0.013766
      py      :     0.032799
 16 H s       :     0.853651  s :     0.853651
      pz      :     0.010037  p :     0.058495
      px      :     0.036005
      py      :     0.012453
 17 H s       :     0.853672  s :     0.853672
      pz      :     0.024337  p :     0.058473
      px      :     0.010754
      py      :     0.023382


                      *****************************
                      * MAYER POPULATION ANALYSIS *
                      *****************************

  NA   - Mulliken gross atomic population
  ZA   - Total nuclear charge
  QA   - Mulliken gross atomic charge
  VA   - Mayer's total valence
  BVA  - Mayer's bonded valence
  FA   - Mayer's free valence

  ATOM       NA         ZA         QA         VA         BVA        FA
  0 O      8.5459     8.0000    -0.5459     1.7936     1.7936    -0.0000
  1 H      0.6683     1.0000     0.3317     0.8967     0.8967    -0.0000
  2 C      6.0749     6.0000    -0.0749     3.9016     3.9016    -0.0000
  3 H      0.8931     1.0000     0.1069     0.9621     0.9621    -0.0000
  4 H      0.9083     1.0000     0.0917     0.9614     0.9614     0.0000
  5 H      0.9096     1.0000     0.0904     0.9608     0.9608     0.0000
  6 O      8.5500     8.0000    -0.5500     1.7907     1.7907    -0.0000
  7 H      0.6677     1.0000     0.3323     0.8970     0.8970     0.0000
  8 C      6.0771     6.0000    -0.0771     3.8987     3.8987     0.0000
  9 H      0.8940     1.0000     0.1060     0.9615     0.9615    -0.0000
 10 H      0.9023     1.0000     0.0977     0.9623     0.9623     0.0000
 11 H      0.9089     1.0000     0.0911     0.9604     0.9604     0.0000
 12 O      8.5459     8.0000    -0.5459     1.7938     1.7938     0.0000
 13 H      0.6689     1.0000     0.3311     0.8975     0.8975     0.0000
 14 C      6.0748     6.0000    -0.0748     3.9012     3.9012    -0.0000
 15 H      0.8926     1.0000     0.1074     0.9621     0.9621    -0.0000
 16 H      0.9087     1.0000     0.0913     0.9613     0.9613    -0.0000
 17 H      0.9090     1.0000     0.0910     0.9609     0.9609     0.0000

  Mayer bond orders larger than 0.100000
B(  0-O ,  1-H ) :   0.8858 B(  0-O ,  2-C ) :   0.9348 B(  2-C ,  3-H ) :   0.9831 
B(  2-C ,  4-H ) :   0.9885 B(  2-C ,  5-H ) :   0.9871 B(  6-O ,  7-H ) :   0.8871 
B(  6-O ,  8-C ) :   0.9319 B(  8-C ,  9-H ) :   0.9836 B(  8-C , 10-H ) :   0.9886 
B(  8-C , 11-H ) :   0.9871 B( 12-O , 13-H ) :   0.8865 B( 12-O , 14-C ) :   0.9345 
B( 14-C , 15-H ) :   0.9832 B( 14-C , 16-H ) :   0.9875 B( 14-C , 17-H ) :   0.9877 


-------
TIMINGS
-------

Total SCF time: 0 days 0 hours 0 min 8 sec 

Total time                  ....       8.146 sec
Sum of individual times     ....       7.910 sec  ( 97.1%)

Fock matrix formation       ....       7.580 sec  ( 93.1%)
Diagonalization             ....       0.071 sec  (  0.9%)
Density matrix formation    ....       0.011 sec  (  0.1%)
Population analysis         ....       0.007 sec  (  0.1%)
Initial guess               ....       0.129 sec  (  1.6%)
Orbital Transformation      ....       0.000 sec  (  0.0%)
Orbital Orthonormalization  ....       0.000 sec  (  0.0%)
DIIS solution               ....       0.027 sec  (  0.3%)
SOSCF solution              ....       0.033 sec  (  0.4%)


           ************************************************************
           *        Program running with 6 parallel MPI-processes     *
           *              working on a common directory               *
           ************************************************************

------------------------------------------------------------------------------
                                ORCA  MP2 
------------------------------------------------------------------------------

Freezing NCore=12 chemical core electrons
MP2 will be done in the AO integral direct mode
The Q1-step will be done using symmetric double matrices
Dimension of the basis                    ...  258
Memory devoted for MP2                    ... 8000 MB   
Memory needed for all in one shot         ...  264 MB
Number of MOs that can be treated together...  120      
MP2 density construction                  ... relaxed
The MP2 gradient is requested => amplitudes will be stored on disk
Total number of MOs              ...   21
Number of MOs treated per batch  ...    4 
Number of batches necessary      ...    1 
OPERATORS   0/  0 PASS   0
-----------------------------------------------
 MP2 CORRELATION ENERGY   :     -1.251603920 Eh
-----------------------------------------------


---------------------
MP2 DENSITY FORMATION
---------------------

Completing the external part of the density      ... done
Storing the unrelaxed density                    ... done

Calculating G(D)                                 ... done
Completing the Lagrangian                        ... done
Solving the Z-vector equations                   ... 

------------------------------------------------------------------------------
                           ORCA CP-SCF CALCULATION
------------------------------------------------------------------------------

Input orbitals are from        ... 12meoh.boyd.etal.mol0,2,11-orca.engrad-mp2.def2tzvp.frozencore.gbw
Input Perturbation             ... 12meoh.boyd.etal.mol0,2,11-orca.engrad-mp2.def2tzvp.frozencore.pin.tmp
Wavefunction output            ... 12meoh.boyd.etal.mol0,2,11-orca.engrad-mp2.def2tzvp.frozencore.pout.tmp
Perturbation mode              ... Real perturbation (singlet)
Solver                         ... POPLE
Max. number of iterations      ... 128
Convergence tolerance          ... 1.000e-08
Integral handling              ... Direct
Number of perturbations        ... 1
Number of operators            ... 1
Orbital ranges used for CP-SCF:
 Operator 0:  Orbitals   0... 26  to  27...257
Variables per vector in CP-SCF ... 6237
Number of vectors sought       ... 1
     CP-SCF ITERATION   0: 
     CP-SCF ITERATION   1:      0.000356396622
     CP-SCF ITERATION   2:      0.000016838258
     CP-SCF ITERATION   3:      0.000002408195
     CP-SCF ITERATION   4:      0.000000153582
     CP-SCF ITERATION   5:      0.000000004648
                                                 ... done
Finalizing the relaxed density                   ... done
Transforming P to the AO basis                   ... done
Storing the relaxed density                      ... done

------------------------------------
ENERGY WEIGHTED DENSITY FINALIZATION
------------------------------------

Gathering the parts of the W-matrix              ...                                                      done
Forming the Z-density                            ... done
Transforming Z to the AO basis                   ... done
Calculating G(Z)                                 ... done
Finalizing the W-matrix                          ...                                                      done
Transforming W to the AO basis and storing       ... done

                *********************************************
                * UNRELAXED MP2 DENSITY POPULATION ANALYSIS *
                *********************************************

------------------------------------------------------------------------------
                           ORCA POPULATION ANALYSIS
------------------------------------------------------------------------------
Input electron density              ... 12meoh.boyd.etal.mol0,2,11-orca.engrad-mp2.def2tzvp.frozencore.pmp2ur
BaseName (.gbw .S,...)              ... 12meoh.boyd.etal.mol0,2,11-orca.engrad-mp2.def2tzvp.frozencore

                    ********************************
                    * MULLIKEN POPULATION ANALYSIS *
                    ********************************

-----------------------
MULLIKEN ATOMIC CHARGES
-----------------------
   0 O :   -0.534811
   1 H :    0.329019
   2 C :   -0.090848
   3 H :    0.109693
   4 H :    0.094104
   5 H :    0.092792
   6 O :   -0.538936
   7 H :    0.329686
   8 C :   -0.093116
   9 H :    0.108761
  10 H :    0.100060
  11 H :    0.093597
  12 O :   -0.534908
  13 H :    0.328423
  14 C :   -0.090811
  15 H :    0.110223
  16 H :    0.093693
  17 H :    0.093379
Sum of atomic charges:    0.0000000

--------------------------------
MULLIKEN REDUCED ORBITAL CHARGES
--------------------------------
  0 O s       :     3.800758  s :     3.800758
      pz      :     1.620247  p :     4.669712
      px      :     1.569656
      py      :     1.479809
      dz2     :     0.008285  d :     0.059957
      dxz     :     0.014863
      dyz     :     0.010225
      dx2y2   :     0.013692
      dxy     :     0.012893
      f0      :     0.000661  f :     0.004384
      f+1     :     0.000503
      f-1     :     0.000590
      f+2     :     0.000850
      f-2     :     0.000700
      f+3     :     0.000542
      f-3     :     0.000539
  1 H s       :     0.626851  s :     0.626851
      pz      :     0.016405  p :     0.044130
      px      :     0.015450
      py      :     0.012275
  2 C s       :     3.191555  s :     3.191555
      pz      :     0.964908  p :     2.751162
      px      :     1.021035
      py      :     0.765219
      dz2     :     0.018533  d :     0.135857
      dxz     :     0.030255
      dyz     :     0.031138
      dx2y2   :     0.029650
      dxy     :     0.026281
      f0      :     0.000959  f :     0.012275
      f+1     :     0.000764
      f-1     :     0.002476
      f+2     :     0.002724
      f-2     :     0.002010
      f+3     :     0.001605
      f-3     :     0.001736
  3 H s       :     0.866097  s :     0.866097
      pz      :     0.008747  p :     0.024211
      px      :     0.010614
      py      :     0.004849
  4 H s       :     0.882584  s :     0.882584
      pz      :     0.007970  p :     0.023311
      px      :     0.011723
      py      :     0.003619
  5 H s       :     0.883974  s :     0.883974
      pz      :     0.008613  p :     0.023234
      px      :     0.004795
      py      :     0.009827
  6 O s       :     3.800096  s :     3.800096
      pz      :     1.571266  p :     4.674710
      px      :     1.475744
      py      :     1.627700
      dz2     :     0.011029  d :     0.059749
      dxz     :     0.011704
      dyz     :     0.012358
      dx2y2   :     0.013623
      dxy     :     0.011035
      f0      :     0.000601  f :     0.004380
      f+1     :     0.000491
      f-1     :     0.000809
      f+2     :     0.000714
      f-2     :     0.000657
      f+3     :     0.000500
      f-3     :     0.000609
  7 H s       :     0.625483  s :     0.625483
      pz      :     0.013499  p :     0.044832
      px      :     0.016969
      py      :     0.014364
  8 C s       :     3.193972  s :     3.193972
      pz      :     0.830151  p :     2.751887
      px      :     1.045797
      py      :     0.875938
      dz2     :     0.029355  d :     0.135048
      dxz     :     0.035376
      dyz     :     0.021606
      dx2y2   :     0.025702
      dxy     :     0.023009
      f0      :     0.002096  f :     0.012209
      f+1     :     0.000997
      f-1     :     0.002190
      f+2     :     0.002474
      f-2     :     0.002295
      f+3     :     0.001229
      f-3     :     0.000929
  9 H s       :     0.867042  s :     0.867042
      pz      :     0.006642  p :     0.024196
      px      :     0.013025
      py      :     0.004529
 10 H s       :     0.876741  s :     0.876741
      pz      :     0.008940  p :     0.023199
      px      :     0.009233
      py      :     0.005026
 11 H s       :     0.882934  s :     0.882934
      pz      :     0.005001  p :     0.023469
      px      :     0.005607
      py      :     0.012862
 12 O s       :     3.799585  s :     3.799585
      pz      :     1.500446  p :     4.671170
      px      :     1.669978
      py      :     1.500747
      dz2     :     0.011356  d :     0.059762
      dxz     :     0.015333
      dyz     :     0.009686
      dx2y2   :     0.011273
      dxy     :     0.012114
      f0      :     0.000618  f :     0.004390
      f+1     :     0.000738
      f-1     :     0.000591
      f+2     :     0.000698
      f-2     :     0.000680
      f+3     :     0.000643
      f-3     :     0.000423
 13 H s       :     0.627040  s :     0.627040
      pz      :     0.013546  p :     0.044537
      px      :     0.012847
      py      :     0.018144
 14 C s       :     3.191727  s :     3.191727
      pz      :     0.800592  p :     2.751285
      px      :     0.919575
      py      :     1.031118
      dz2     :     0.033643  d :     0.135554
      dxz     :     0.021012
      dyz     :     0.035316
      dx2y2   :     0.030590
      dxy     :     0.014994
      f0      :     0.002285  f :     0.012244
      f+1     :     0.002030
      f-1     :     0.001616
      f+2     :     0.002413
      f-2     :     0.001739
      f+3     :     0.001326
      f-3     :     0.000834
 15 H s       :     0.865535  s :     0.865535
      pz      :     0.005388  p :     0.024242
      px      :     0.005410
      py      :     0.013444
 16 H s       :     0.883090  s :     0.883090
      pz      :     0.004018  p :     0.023217
      px      :     0.014581
      py      :     0.004619
 17 H s       :     0.883285  s :     0.883285
      pz      :     0.010027  p :     0.023336
      px      :     0.004221
      py      :     0.009087


                     *******************************
                     * LOEWDIN POPULATION ANALYSIS *
                     *******************************

----------------------
LOEWDIN ATOMIC CHARGES
----------------------
   0 O :   -0.122344
   1 H :    0.190761
   2 C :   -0.349540
   3 H :    0.102626
   4 H :    0.089417
   5 H :    0.089047
   6 O :   -0.125921
   7 H :    0.186575
   8 C :   -0.343392
   9 H :    0.101787
  10 H :    0.091027
  11 H :    0.089958
  12 O :   -0.122245
  13 H :    0.188143
  14 C :   -0.347240
  15 H :    0.102710
  16 H :    0.089321
  17 H :    0.089311

-------------------------------
LOEWDIN REDUCED ORBITAL CHARGES
-------------------------------
  0 O s       :     3.392313  s :     3.392313
      pz      :     1.568427  p :     4.625517
      px      :     1.558151
      py      :     1.498940
      dz2     :     0.012609  d :     0.097467
      dxz     :     0.022177
      dyz     :     0.020055
      dx2y2   :     0.020762
      dxy     :     0.021865
      f0      :     0.000873  f :     0.007047
      f+1     :     0.000620
      f-1     :     0.001022
      f+2     :     0.001395
      f-2     :     0.001022
      f+3     :     0.001033
      f-3     :     0.001081
  1 H s       :     0.662989  s :     0.662989
      pz      :     0.051222  p :     0.146250
      px      :     0.063050
      py      :     0.031979
  2 C s       :     2.860708  s :     2.860708
      pz      :     1.023828  p :     2.979446
      px      :     1.069257
      py      :     0.886360
      dz2     :     0.046609  d :     0.446691
      dxz     :     0.097043
      dyz     :     0.115666
      dx2y2   :     0.106922
      dxy     :     0.080452
      f0      :     0.006721  f :     0.062695
      f+1     :     0.002907
      f-1     :     0.014776
      f+2     :     0.008717
      f-2     :     0.008434
      f+3     :     0.010688
      f-3     :     0.010453
  3 H s       :     0.833749  s :     0.833749
      pz      :     0.022719  p :     0.063625
      px      :     0.028641
      py      :     0.012265
  4 H s       :     0.846778  s :     0.846778
      pz      :     0.021920  p :     0.063805
      px      :     0.031663
      py      :     0.010222
  5 H s       :     0.847328  s :     0.847328
      pz      :     0.023749  p :     0.063625
      px      :     0.013938
      py      :     0.025938
  6 O s       :     3.392347  s :     3.392347
      pz      :     1.557566  p :     4.629975
      px      :     1.476809
      py      :     1.595599
      dz2     :     0.018927  d :     0.096595
      dxz     :     0.019902
      dyz     :     0.021308
      dx2y2   :     0.018650
      dxy     :     0.017808
      f0      :     0.001021  f :     0.007005
      f+1     :     0.000796
      f-1     :     0.001278
      f+2     :     0.001184
      f-2     :     0.000984
      f+3     :     0.000773
      f-3     :     0.000968
  7 H s       :     0.663933  s :     0.663933
      pz      :     0.036404  p :     0.149492
      px      :     0.074360
      py      :     0.038729
  8 C s       :     2.862289  s :     2.862289
      pz      :     0.931724  p :     2.978248
      px      :     1.083928
      py      :     0.962596
      dz2     :     0.092192  d :     0.441075
      dxz     :     0.109219
      dyz     :     0.095639
      dx2y2   :     0.081927
      dxy     :     0.062098
      f0      :     0.013539  f :     0.061779
      f+1     :     0.004194
      f-1     :     0.013329
      f+2     :     0.009772
      f-2     :     0.010504
      f+3     :     0.005616
      f-3     :     0.004826
  9 H s       :     0.834498  s :     0.834498
      pz      :     0.017037  p :     0.063715
      px      :     0.034666
      py      :     0.012012
 10 H s       :     0.844784  s :     0.844784
      pz      :     0.024384  p :     0.064189
      px      :     0.025525
      py      :     0.014280
 11 H s       :     0.846455  s :     0.846455
      pz      :     0.013955  p :     0.063588
      px      :     0.016109
      py      :     0.033524
 12 O s       :     3.391014  s :     3.391014
      pz      :     1.503343  p :     4.627070
      px      :     1.653555
      py      :     1.470172
      dz2     :     0.020004  d :     0.097146
      dxz     :     0.023938
      dyz     :     0.020491
      dx2y2   :     0.017202
      dxy     :     0.015510
      f0      :     0.001182  f :     0.007016
      f+1     :     0.001229
      f-1     :     0.000856
      f+2     :     0.001005
      f-2     :     0.001198
      f+3     :     0.001038
      f-3     :     0.000509
 13 H s       :     0.663945  s :     0.663945
      pz      :     0.036405  p :     0.147912
      px      :     0.042766
      py      :     0.068741
 14 C s       :     2.861060  s :     2.861060
      pz      :     0.908268  p :     2.979168
      px      :     1.003745
      py      :     1.067155
      dz2     :     0.113962  d :     0.444704
      dxz     :     0.088881
      dyz     :     0.108481
      dx2y2   :     0.094546
      dxy     :     0.038833
      f0      :     0.013962  f :     0.062309
      f+1     :     0.013146
      f-1     :     0.006635
      f+2     :     0.009901
      f-2     :     0.010055
      f+3     :     0.005023
      f-3     :     0.003587
 15 H s       :     0.833522  s :     0.833522
      pz      :     0.013661  p :     0.063769
      px      :     0.015133
      py      :     0.034975
 16 H s       :     0.846952  s :     0.846952
      pz      :     0.011422  p :     0.063727
      px      :     0.038585
      py      :     0.013720
 17 H s       :     0.846976  s :     0.846976
      pz      :     0.026451  p :     0.063713
      px      :     0.012043
      py      :     0.025218


                      *****************************
                      * MAYER POPULATION ANALYSIS *
                      *****************************

  NA   - Mulliken gross atomic population
  ZA   - Total nuclear charge
  QA   - Mulliken gross atomic charge
  VA   - Mayer's total valence
  BVA  - Mayer's bonded valence
  FA   - Mayer's free valence

  ATOM       NA         ZA         QA         VA         BVA        FA
  0 O      8.5348     8.0000    -0.5348     2.0922     1.6875     0.4047
  1 H      0.6710     1.0000     0.3290     0.9032     0.8502     0.0530
  2 C      6.0908     6.0000    -0.0908     4.0063     3.7280     0.2783
  3 H      0.8903     1.0000     0.1097     0.9711     0.9241     0.0470
  4 H      0.9059     1.0000     0.0941     0.9714     0.9222     0.0491
  5 H      0.9072     1.0000     0.0928     0.9708     0.9215     0.0493
  6 O      8.5389     8.0000    -0.5389     2.0899     1.6851     0.4049
  7 H      0.6703     1.0000     0.3297     0.9034     0.8510     0.0524
  8 C      6.0931     6.0000    -0.0931     4.0037     3.7252     0.2786
  9 H      0.8912     1.0000     0.1088     0.9706     0.9235     0.0471
 10 H      0.8999     1.0000     0.1001     0.9721     0.9234     0.0487
 11 H      0.9064     1.0000     0.0936     0.9703     0.9212     0.0491
 12 O      8.5349     8.0000    -0.5349     2.0925     1.6880     0.4045
 13 H      0.6716     1.0000     0.3284     0.9040     0.8513     0.0527
 14 C      6.0908     6.0000    -0.0908     4.0059     3.7276     0.2783
 15 H      0.8898     1.0000     0.1102     0.9710     0.9241     0.0469
 16 H      0.9063     1.0000     0.0937     0.9712     0.9221     0.0492
 17 H      0.9066     1.0000     0.0934     0.9709     0.9217     0.0492

  Mayer bond orders larger than 0.100000
B(  0-O ,  1-H ) :   0.8403 B(  0-O ,  2-C ) :   0.8759 B(  2-C ,  3-H ) :   0.9457 
B(  2-C ,  4-H ) :   0.9503 B(  2-C ,  5-H ) :   0.9489 B(  6-O ,  7-H ) :   0.8421 
B(  6-O ,  8-C ) :   0.8728 B(  8-C ,  9-H ) :   0.9461 B(  8-C , 10-H ) :   0.9506 
B(  8-C , 11-H ) :   0.9488 B( 12-O , 13-H ) :   0.8412 B( 12-O , 14-C ) :   0.8755 
B( 14-C , 15-H ) :   0.9458 B( 14-C , 16-H ) :   0.9493 B( 14-C , 17-H ) :   0.9494 



                *******************************************
                * RELAXED MP2 DENSITY POPULATION ANALYSIS *
                *******************************************

------------------------------------------------------------------------------
                           ORCA POPULATION ANALYSIS
------------------------------------------------------------------------------
Input electron density              ... 12meoh.boyd.etal.mol0,2,11-orca.engrad-mp2.def2tzvp.frozencore.pmp2re
BaseName (.gbw .S,...)              ... 12meoh.boyd.etal.mol0,2,11-orca.engrad-mp2.def2tzvp.frozencore

                    ********************************
                    * MULLIKEN POPULATION ANALYSIS *
                    ********************************

-----------------------
MULLIKEN ATOMIC CHARGES
-----------------------
   0 O :   -0.497494
   1 H :    0.323620
   2 C :   -0.173028
   3 H :    0.127805
   4 H :    0.110306
   5 H :    0.108712
   6 O :   -0.501207
   7 H :    0.324009
   8 C :   -0.175248
   9 H :    0.126873
  10 H :    0.115885
  11 H :    0.109767
  12 O :   -0.497678
  13 H :    0.323094
  14 C :   -0.172781
  15 H :    0.128302
  16 H :    0.109631
  17 H :    0.109431
Sum of atomic charges:    0.0000000

--------------------------------
MULLIKEN REDUCED ORBITAL CHARGES
--------------------------------
  0 O s       :     3.802328  s :     3.802328
      pz      :     1.609208  p :     4.633022
      px      :     1.552529
      py      :     1.471285
      dz2     :     0.008367  d :     0.057815
      dxz     :     0.013983
      dyz     :     0.009926
      dx2y2   :     0.012956
      dxy     :     0.012583
      f0      :     0.000646  f :     0.004329
      f+1     :     0.000499
      f-1     :     0.000599
      f+2     :     0.000830
      f-2     :     0.000689
      f+3     :     0.000530
      f-3     :     0.000535
  1 H s       :     0.631687  s :     0.631687
      pz      :     0.016612  p :     0.044693
      px      :     0.015313
      py      :     0.012767
  2 C s       :     3.213660  s :     3.213660
      pz      :     0.989639  p :     2.821384
      px      :     1.048032
      py      :     0.783714
      dz2     :     0.020561  d :     0.126270
      dxz     :     0.025680
      dyz     :     0.026539
      dx2y2   :     0.026067
      dxy     :     0.027423
      f0      :     0.000913  f :     0.011714
      f+1     :     0.000738
      f-1     :     0.002346
      f+2     :     0.002545
      f-2     :     0.001956
      f+3     :     0.001574
      f-3     :     0.001643
  3 H s       :     0.849138  s :     0.849138
      pz      :     0.008313  p :     0.023057
      px      :     0.009854
      py      :     0.004890
  4 H s       :     0.867489  s :     0.867489
      pz      :     0.007592  p :     0.022205
      px      :     0.010747
      py      :     0.003865
  5 H s       :     0.869162  s :     0.869162
      pz      :     0.008109  p :     0.022126
      px      :     0.004984
      py      :     0.009034
  6 O s       :     3.801772  s :     3.801772
      pz      :     1.562086  p :     4.637485
      px      :     1.458032
      py      :     1.617367
      dz2     :     0.010855  d :     0.057625
      dxz     :     0.011569
      dyz     :     0.011497
      dx2y2   :     0.012866
      dxy     :     0.010838
      f0      :     0.000600  f :     0.004324
      f+1     :     0.000487
      f-1     :     0.000794
      f+2     :     0.000700
      f-2     :     0.000653
      f+3     :     0.000494
      f-3     :     0.000597
  7 H s       :     0.630557  s :     0.630557
      pz      :     0.014116  p :     0.045433
      px      :     0.016320
      py      :     0.014997
  8 C s       :     3.215997  s :     3.215997
      pz      :     0.850350  p :     2.821789
      px      :     1.072697
      py      :     0.898742
      dz2     :     0.030296  d :     0.125799
      dxz     :     0.032094
      dyz     :     0.017986
      dx2y2   :     0.023087
      dxy     :     0.022336
      f0      :     0.001973  f :     0.011663
      f+1     :     0.000992
      f-1     :     0.002096
      f+2     :     0.002317
      f-2     :     0.002225
      f+3     :     0.001186
      f-3     :     0.000872
  9 H s       :     0.850074  s :     0.850074
      pz      :     0.006457  p :     0.023053
      px      :     0.011882
      py      :     0.004715
 10 H s       :     0.862046  s :     0.862046
      pz      :     0.008301  p :     0.022069
      px      :     0.008665
      py      :     0.005104
 11 H s       :     0.867848  s :     0.867848
      pz      :     0.005024  p :     0.022384
      px      :     0.005671
      py      :     0.011690
 12 O s       :     3.801172  s :     3.801172
      pz      :     1.491906  p :     4.634537
      px      :     1.655268
      py      :     1.487363
      dz2     :     0.011089  d :     0.057634
      dxz     :     0.014270
      dyz     :     0.009676
      dx2y2   :     0.011039
      dxy     :     0.011561
      f0      :     0.000619  f :     0.004334
      f+1     :     0.000714
      f-1     :     0.000591
      f+2     :     0.000689
      f-2     :     0.000671
      f+3     :     0.000630
      f-3     :     0.000422
 13 H s       :     0.631798  s :     0.631798
      pz      :     0.013939  p :     0.045108
      px      :     0.013531
      py      :     0.017638
 14 C s       :     3.213738  s :     3.213738
      pz      :     0.820237  p :     2.821372
      px      :     0.944213
      py      :     1.056922
      dz2     :     0.032957  d :     0.125986
      dxz     :     0.020487
      dyz     :     0.031182
      dx2y2   :     0.026617
      dxy     :     0.014743
      f0      :     0.002155  f :     0.011685
      f+1     :     0.001970
      f-1     :     0.001527
      f+2     :     0.002334
      f-2     :     0.001643
      f+3     :     0.001251
      f-3     :     0.000805
 15 H s       :     0.848612  s :     0.848612
      pz      :     0.005377  p :     0.023085
      px      :     0.005427
      py      :     0.012281
 16 H s       :     0.868262  s :     0.868262
      pz      :     0.004205  p :     0.022107
      px      :     0.013086
      py      :     0.004816
 17 H s       :     0.868333  s :     0.868333
      pz      :     0.009240  p :     0.022236
      px      :     0.004472
      py      :     0.008524


                     *******************************
                     * LOEWDIN POPULATION ANALYSIS *
                     *******************************

----------------------
LOEWDIN ATOMIC CHARGES
----------------------
   0 O :   -0.109447
   1 H :    0.193331
   2 C :   -0.384429
   3 H :    0.109909
   4 H :    0.095500
   5 H :    0.095083
   6 O :   -0.112788
   7 H :    0.189101
   8 C :   -0.378339
   9 H :    0.108975
  10 H :    0.097243
  11 H :    0.095860
  12 O :   -0.109313
  13 H :    0.190765
  14 C :   -0.382134
  15 H :    0.109946
  16 H :    0.095428
  17 H :    0.095308

-------------------------------
LOEWDIN REDUCED ORBITAL CHARGES
-------------------------------
  0 O s       :     3.395265  s :     3.395265
      pz      :     1.564617  p :     4.610088
      px      :     1.551896
      py      :     1.493575
      dz2     :     0.012921  d :     0.096936
      dxz     :     0.021703
      dyz     :     0.019959
      dx2y2   :     0.020469
      dxy     :     0.021884
      f0      :     0.000881  f :     0.007159
      f+1     :     0.000626
      f-1     :     0.001048
      f+2     :     0.001419
      f-2     :     0.001040
      f+3     :     0.001042
      f-3     :     0.001103
  1 H s       :     0.659798  s :     0.659798
      pz      :     0.051321  p :     0.146870
      px      :     0.063355
      py      :     0.032194
  2 C s       :     2.866624  s :     2.866624
      pz      :     1.038299  p :     3.019372
      px      :     1.084157
      py      :     0.896916
      dz2     :     0.047366  d :     0.437278
      dxz     :     0.094015
      dyz     :     0.111083
      dx2y2   :     0.104658
      dxy     :     0.080156
      f0      :     0.006688  f :     0.061155
      f+1     :     0.002830
      f-1     :     0.014394
      f+2     :     0.008396
      f-2     :     0.008152
      f+3     :     0.010580
      f-3     :     0.010117
  3 H s       :     0.826107  s :     0.826107
      pz      :     0.022828  p :     0.063984
      px      :     0.028496
      py      :     0.012659
  4 H s       :     0.839936  s :     0.839936
      pz      :     0.022189  p :     0.064565
      px      :     0.031592
      py      :     0.010784
  5 H s       :     0.840545  s :     0.840545
      pz      :     0.023803  p :     0.064372
      px      :     0.014397
      py      :     0.026172
  6 O s       :     3.395289  s :     3.395289
      pz      :     1.551674  p :     4.614300
      px      :     1.473120
      py      :     1.589507
      dz2     :     0.019137  d :     0.096084
      dxz     :     0.019875
      dyz     :     0.020894
      dx2y2   :     0.018408
      dxy     :     0.017770
      f0      :     0.001045  f :     0.007114
      f+1     :     0.000795
      f-1     :     0.001307
      f+2     :     0.001209
      f-2     :     0.001005
      f+3     :     0.000774
      f-3     :     0.000981
  7 H s       :     0.660816  s :     0.660816
      pz      :     0.036709  p :     0.150083
      px      :     0.074234
      py      :     0.039139
  8 C s       :     2.868244  s :     2.868244
      pz      :     0.943751  p :     3.018222
      px      :     1.098884
      py      :     0.975586
      dz2     :     0.093519  d :     0.431608
      dxz     :     0.106100
      dyz     :     0.090556
      dx2y2   :     0.080359
      dxy     :     0.061074
      f0      :     0.013258  f :     0.060265
      f+1     :     0.004057
      f-1     :     0.013047
      f+2     :     0.009453
      f-2     :     0.010268
      f+3     :     0.005481
      f-3     :     0.004702
  9 H s       :     0.826936  s :     0.826936
      pz      :     0.017325  p :     0.064089
      px      :     0.034293
      py      :     0.012471
 10 H s       :     0.837857  s :     0.837857
      pz      :     0.024641  p :     0.064900
      px      :     0.025586
      py      :     0.014674
 11 H s       :     0.839825  s :     0.839825
      pz      :     0.014326  p :     0.064315
      px      :     0.016517
      py      :     0.033472
 12 O s       :     3.393953  s :     3.393953
      pz      :     1.498801  p :     4.611617
      px      :     1.643977
      py      :     1.468838
      dz2     :     0.020138  d :     0.096616
      dxz     :     0.023457
      dyz     :     0.020534
      dx2y2   :     0.017075
      dxy     :     0.015413
      f0      :     0.001207  f :     0.007127
      f+1     :     0.001250
      f-1     :     0.000867
      f+2     :     0.001025
      f-2     :     0.001222
      f+3     :     0.001042
      f-3     :     0.000514
 13 H s       :     0.660716  s :     0.660716
      pz      :     0.036512  p :     0.148519
      px      :     0.043600
      py      :     0.068408
 14 C s       :     2.866977  s :     2.866977
      pz      :     0.919649  p :     3.019090
      px      :     1.017439
      py      :     1.082002
      dz2     :     0.114455  d :     0.435289
      dxz     :     0.086688
      dyz     :     0.104636
      dx2y2   :     0.091469
      dxy     :     0.038041
      f0      :     0.013547  f :     0.060779
      f+1     :     0.012950
      f-1     :     0.006433
      f+2     :     0.009642
      f-2     :     0.009806
      f+3     :     0.004916
      f-3     :     0.003484
 15 H s       :     0.825930  s :     0.825930
      pz      :     0.014024  p :     0.064124
      px      :     0.015463
      py      :     0.034637
 16 H s       :     0.840103  s :     0.840103
      pz      :     0.011926  p :     0.064469
      px      :     0.038346
      py      :     0.014197
 17 H s       :     0.840231  s :     0.840231
      pz      :     0.026663  p :     0.064461
      px      :     0.012536
      py      :     0.025262


                      *****************************
                      * MAYER POPULATION ANALYSIS *
                      *****************************

  NA   - Mulliken gross atomic population
  ZA   - Total nuclear charge
  QA   - Mulliken gross atomic charge
  VA   - Mayer's total valence
  BVA  - Mayer's bonded valence
  FA   - Mayer's free valence

  ATOM       NA         ZA         QA         VA         BVA        FA
  0 O      8.4975     8.0000    -0.4975     2.1465     1.7483     0.3982
  1 H      0.6764     1.0000     0.3236     0.9058     0.8527     0.0531
  2 C      6.1730     6.0000    -0.1730     4.0277     3.7517     0.2760
  3 H      0.8722     1.0000     0.1278     0.9627     0.9162     0.0464
  4 H      0.8897     1.0000     0.1103     0.9641     0.9156     0.0485
  5 H      0.8913     1.0000     0.1087     0.9635     0.9148     0.0486
  6 O      8.5012     8.0000    -0.5012     2.1443     1.7460     0.3983
  7 H      0.6760     1.0000     0.3240     0.9061     0.8536     0.0525
  8 C      6.1752     6.0000    -0.1752     4.0265     3.7502     0.2763
  9 H      0.8731     1.0000     0.1269     0.9620     0.9155     0.0465
 10 H      0.8841     1.0000     0.1159     0.9660     0.9179     0.0481
 11 H      0.8902     1.0000     0.1098     0.9617     0.9132     0.0485
 12 O      8.4977     8.0000    -0.4977     2.1467     1.7487     0.3980
 13 H      0.6769     1.0000     0.3231     0.9064     0.8536     0.0528
 14 C      6.1728     6.0000    -0.1728     4.0276     3.7515     0.2760
 15 H      0.8717     1.0000     0.1283     0.9626     0.9162     0.0464
 16 H      0.8904     1.0000     0.1096     0.9643     0.9158     0.0486
 17 H      0.8906     1.0000     0.1094     0.9633     0.9147     0.0486

  Mayer bond orders larger than 0.100000
B(  0-O ,  1-H ) :   0.8406 B(  0-O ,  2-C ) :   0.9275 B(  2-C ,  3-H ) :   0.9376 
B(  2-C ,  4-H ) :   0.9398 B(  2-C ,  5-H ) :   0.9382 B(  6-O ,  7-H ) :   0.8426 
B(  6-O ,  8-C ) :   0.9250 B(  8-C ,  9-H ) :   0.9380 B(  8-C , 10-H ) :   0.9411 
B(  8-C , 11-H ) :   0.9378 B( 12-O , 13-H ) :   0.8415 B( 12-O , 14-C ) :   0.9272 
B( 14-C , 15-H ) :   0.9378 B( 14-C , 16-H ) :   0.9389 B( 14-C , 17-H ) :   0.9388 



----------------------------------
MP2 DERIVATIVE INTEGRAL GENERATION
----------------------------------


Input Wavefunction Amplitudes       ... 12meoh.boyd.etal.mol0,2,11-orca.engrad-mp2.def2tzvp.frozencore.mp2tsaa.tmp
Input Correlated Electron Density   ... 12meoh.boyd.etal.mol0,2,11-orca.engrad-mp2.def2tzvp.frozencore.pmp2re
Input Energy Weighted Density       ... 12meoh.boyd.etal.mol0,2,11-orca.engrad-mp2.def2tzvp.frozencore.wmp2.tmp
Input SCF Electron Density          ... 12meoh.boyd.etal.mol0,2,11-orca.engrad-mp2.def2tzvp.frozencore.scfp

One-Electron Terms    ...
                        ... One-Electron Terms done
Prescreening matrices              ... done

Batch handling in the gradient evaluation:
Memory available                      ... 8000.0 MB
Memory per occupied orbital in Q2     ...   10.7 MB
Memory per occupied orbital in Q3     ...    0.1 MB
Total memory requirement per |i>      ...   10.8 MB
Max. Number of orbitals possible      ...    743
Number of orbitals treated per batch  ...     21
Number of batches to be done          ...      1
Batch   0: i=    6 ...    26

---------------------------------------
MP2 TOTAL ENERGY:     -346.520598492 Eh
---------------------------------------

The final MP2 gradient
  0:   0.01965425  -0.00799014  -0.01759658
  1:  -0.02232315   0.00964539   0.01888966
  2:   0.00459719   0.00208485   0.00050171
  3:   0.00216605  -0.00284483  -0.00336837
  4:  -0.00260937   0.00144209  -0.00076253
  5:  -0.00139852  -0.00247913   0.00232204
  6:  -0.02047664   0.00813549  -0.00429069
  7:   0.02204550  -0.00967846   0.00786222
  8:  -0.00204763  -0.00209801  -0.00289236
  9:  -0.00322782   0.00221597  -0.00231845
 10:   0.00294063  -0.00144516  -0.00078102
 11:   0.00055262   0.00309117   0.00244646
 12:  -0.00959871   0.01949969   0.00987248
 13:   0.00946773  -0.02358719  -0.01227983
 14:  -0.00224864   0.00368570  -0.00139779
 15:  -0.00016504   0.00333992   0.00291329
 16:   0.00343068  -0.00031686  -0.00080453
 17:  -0.00075914  -0.00270051   0.00168431

-----------------------------------
NORM OF THE MP2 GRADIENT:  0.066492
-----------------------------------

-------------------------   --------------------
FINAL SINGLE POINT ENERGY      -346.520598491801
-------------------------   --------------------


                            ***************************************
                            *     ORCA property calculations      *
                            ***************************************

                                    ---------------------
                                    Active property flags
                                    ---------------------
   (+) Dipole Moment


------------------------------------------------------------------------------
                       ORCA ELECTRIC PROPERTIES CALCULATION
------------------------------------------------------------------------------

Dipole Moment Calculation                       ... on
Quadrupole Moment Calculation                   ... off
Polarizability Calculation                      ... off
GBWName                                         ... 12meoh.boyd.etal.mol0,2,11-orca.engrad-mp2.def2tzvp.frozencore.gbw
Electron density file                           ... 12meoh.boyd.etal.mol0,2,11-orca.engrad-mp2.def2tzvp.frozencore.scfp
The origin for moment calculation is the CENTER OF MASS  = (-1.283393,  0.059125  0.784506)

-------------
DIPOLE MOMENT
-------------
                                X             Y             Z
Electronic contribution:     -0.83286       0.02240       0.59431
Nuclear contribution   :      1.44536      -0.54936      -0.50941
                        -----------------------------------------
Total Dipole Moment    :      0.61251      -0.52696       0.08490
                        -----------------------------------------
Magnitude (a.u.)       :      0.81244
Magnitude (Debye)      :      2.06505



--------------------
Rotational spectrum 
--------------------
 
Rotational constants in cm-1:     0.023873     0.014500     0.009244 
Rotational constants in MHz :   715.695467   434.705267   277.126481 

 Dipole components along the rotational axes: 
x,y,z [a.u.] :     0.498785     0.641070     0.017259 
x,y,z [Debye]:     1.267810     1.629471     0.043869 

 

                         *** MP2 UNRELAXED DENSITY ***

------------------------------------------------------------------------------
                       ORCA ELECTRIC PROPERTIES CALCULATION
------------------------------------------------------------------------------

Dipole Moment Calculation                       ... on
Quadrupole Moment Calculation                   ... off
Polarizability Calculation                      ... off
GBWName                                         ... 12meoh.boyd.etal.mol0,2,11-orca.engrad-mp2.def2tzvp.frozencore.gbw
Electron density file                           ... 12meoh.boyd.etal.mol0,2,11-orca.engrad-mp2.def2tzvp.frozencore.pmp2ur
The origin for moment calculation is the CENTER OF MASS  = (-1.283393,  0.059125  0.784506)

-------------
DIPOLE MOMENT
-------------
                                X             Y             Z
Electronic contribution:     -0.84474       0.03065       0.59436
Nuclear contribution   :      1.44536      -0.54936      -0.50941
                        -----------------------------------------
Total Dipole Moment    :      0.60063      -0.51871       0.08494
                        -----------------------------------------
Magnitude (a.u.)       :      0.79814
Magnitude (Debye)      :      2.02871



--------------------
Rotational spectrum 
--------------------
 
Rotational constants in cm-1:     0.023873     0.014500     0.009244 
Rotational constants in MHz :   715.695467   434.705267   277.126481 

 Dipole components along the rotational axes: 
x,y,z [a.u.] :     0.489511     0.630113     0.019025 
x,y,z [Debye]:     1.244239     1.601620     0.048359 

 

                           *** MP2 RELAXED DENSITY ***

------------------------------------------------------------------------------
                       ORCA ELECTRIC PROPERTIES CALCULATION
------------------------------------------------------------------------------

Dipole Moment Calculation                       ... on
Quadrupole Moment Calculation                   ... off
Polarizability Calculation                      ... off
GBWName                                         ... 12meoh.boyd.etal.mol0,2,11-orca.engrad-mp2.def2tzvp.frozencore.gbw
Electron density file                           ... 12meoh.boyd.etal.mol0,2,11-orca.engrad-mp2.def2tzvp.frozencore.pmp2re
The origin for moment calculation is the CENTER OF MASS  = (-1.283393,  0.059125  0.784506)

-------------
DIPOLE MOMENT
-------------
                                X             Y             Z
Electronic contribution:     -0.86118       0.03859       0.59617
Nuclear contribution   :      1.44536      -0.54936      -0.50941
                        -----------------------------------------
Total Dipole Moment    :      0.58419      -0.51077       0.08676
                        -----------------------------------------
Magnitude (a.u.)       :      0.78082
Magnitude (Debye)      :      1.98469



--------------------
Rotational spectrum 
--------------------
 
Rotational constants in cm-1:     0.023873     0.014500     0.009244 
Rotational constants in MHz :   715.695467   434.705267   277.126481 

 Dipole components along the rotational axes: 
x,y,z [a.u.] :     0.476871     0.617816     0.024090 
x,y,z [Debye]:     1.212111     1.570363     0.061233 

 

Timings for individual modules:

Sum of individual times         ...       36.575 sec (=   0.610 min)
GTO integral calculation        ...        0.948 sec (=   0.016 min)   2.6 %
SCF iterations                  ...        8.829 sec (=   0.147 min)  24.1 %
MP2 module                      ...       26.798 sec (=   0.447 min)  73.3 %
                             ****ORCA TERMINATED NORMALLY****
TOTAL RUN TIME: 0 days 0 hours 0 minutes 37 seconds 439 msec
