
                                 *****************
                                 * O   R   C   A *
                                 *****************

           --- An Ab Initio, DFT and Semiempirical electronic structure package ---

                  #######################################################
                  #                        -***-                        #
                  #          Department of theory and spectroscopy      #
                  #               Directorship: Frank Neese             #
                  #        Max Planck Institute fuer Kohlenforschung    #
                  #                Kaiser Wilhelm Platz 1               #
                  #                 D-45470 Muelheim/Ruhr               #
                  #                      Germany                        #
                  #                                                     #
                  #                  All rights reserved                #
                  #                        -***-                        #
                  #######################################################


                         Program Version 4.2.0 -  RELEASE  -


 With contributions from (in alphabetic order):
   Daniel Aravena         : Magnetic Suceptibility
   Michael Atanasov       : Ab Initio Ligand Field Theory (pilot matlab implementation)
   Alexander A. Auer      : GIAO ZORA, VPT2
   Ute Becker             : Parallelization
   Giovanni Bistoni       : ED, misc. LED, open-shell LED, HFLED
   Martin Brehm           : Molecular dynamics
   Dmytro Bykov           : SCF Hessian
   Vijay G. Chilkuri      : MRCI spin determinant printing, contributions to CSF-ICE
   Dipayan Datta          : RHF DLPNO-CCSD density
   Achintya Kumar Dutta   : EOM-CC, STEOM-CC
   Dmitry Ganyushin       : Spin-Orbit,Spin-Spin,Magnetic field MRCI
   Miquel Garcia          : C-PCM Hessian, Gaussian charge scheme
   Yang Guo               : DLPNO-NEVPT2, CIM, IAO-localization
   Andreas Hansen         : Spin unrestricted coupled pair/coupled cluster methods
   Benjamin Helmich-Paris : CASSCF linear response (MC-RPA)
   Lee Huntington         : MR-EOM, pCC
   Robert Izsak           : Overlap fitted RIJCOSX, COSX-SCS-MP3, EOM
   Christian Kollmar      : KDIIS, OOCD, Brueckner-CCSD(T), CCSD density
   Simone Kossmann        : Meta GGA functionals, TD-DFT gradient, OOMP2, MP2 Hessian
   Martin Krupicka        : AUTO-CI
   Lucas Lang             : DCDCAS
   Dagmar Lenk            : GEPOL surface, SMD
   Dimitrios Liakos       : Extrapolation schemes; Compound Job, initial MDCI parallelization
   Dimitrios Manganas     : Further ROCIS development; embedding schemes
   Dimitrios Pantazis     : SARC Basis sets
   Taras Petrenko         : DFT Hessian,TD-DFT gradient, ASA, ECA, R-Raman, ABS, FL, XAS/XES, NRVS
   Peter Pinski           : DLPNO-MP2, DLPNO-MP2 Gradient
   Christoph Reimann      : Effective Core Potentials
   Marius Retegan         : Local ZFS, SOC
   Christoph Riplinger    : Optimizer, TS searches, QM/MM, DLPNO-CCSD(T), (RO)-DLPNO pert. Triples
   Tobias Risthaus        : Range-separated hybrids, TD-DFT gradient, RPA, STAB
   Michael Roemelt        : Original ROCIS implementation
   Masaaki Saitow         : Open-shell DLPNO-CCSD energy and density
   Barbara Sandhoefer     : DKH picture change effects
   Avijit Sen             : IP-ROCIS
   Kantharuban Sivalingam : CASSCF convergence, NEVPT2, FIC-MRCI
   Bernardo de Souza      : ESD, SOC TD-DFT
   Georgi Stoychev        : AutoAux, RI-MP2 NMR
   Willem Van den Heuvel  : Paramagnetic NMR
   Boris Wezisla          : Elementary symmetry handling
   Frank Wennmohs         : Technical directorship


 We gratefully acknowledge several colleagues who have allowed us to
 interface, adapt or use parts of their codes:
   Stefan Grimme, W. Hujo, H. Kruse,             : VdW corrections, initial TS optimization,
                  C. Bannwarth                     DFT functionals, gCP, sTDA/sTD-DF
   Ed Valeev, F. Pavosevic, A. Kumar             : LibInt (2-el integral package), F12 methods
   Garnet Chan, S. Sharma, J. Yang, R. Olivares  : DMRG
   Ulf Ekstrom                                   : XCFun DFT Library
   Mihaly Kallay                                 : mrcc  (arbitrary order and MRCC methods)
   Andreas Klamt, Michael Diedenhofen            : otool_cosmo (COSMO solvation model)
   Jiri Pittner, Ondrej Demel                    : Mk-CCSD
   Frank Weinhold                                : gennbo (NPA and NBO analysis)
   Christopher J. Cramer and Donald G. Truhlar   : smd solvation model
   Lars Goerigk                                  : TD-DFT with DH, B97 family of functionals
   V. Asgeirsson, H. Jonsson                     : NEB implementation
   FAccTs GmbH                                   : IRC, NEB, NEB-TS, Multilevel, MM, QM/MM, CI optimization
   S Lehtola, MJT Oliveira, MAL Marques          : LibXC Library


 Your calculation uses the libint2 library for the computation of 2-el integrals
 For citations please refer to: http://libint.valeyev.net

 Your ORCA version has been built with support for libXC version: 4.2.3
 For citations please refer to: https://tddft.org/programs/libxc/

 This ORCA versions uses:
   CBLAS   interface :  Fast vector & matrix operations
   LAPACKE interface :  Fast linear algebra routines
   SCALAPACK package :  Parallel linear algebra routines


----- Orbital basis set information -----
Your calculation utilizes the basis: def2-TZVP
   F. Weigend and R. Ahlrichs, Phys. Chem. Chem. Phys. 7, 3297 (2005).

================================================================================
                                        WARNINGS
                       Please study these warnings very carefully!
================================================================================


WARNING: The frozen-core approximation for MP2-gradient calculations is turned on by default.

INFO   : the flag for use of LIBINT has been found!

================================================================================
                                       INPUT FILE
================================================================================
NAME = 4mecn.malloum.etal.4-orca.engrad-mp2.def2tzvp.inp
|  1> ! MP2 def2-TZVP EnGrad TightSCF FrozenCore
|  2> 
|  3> %pal
|  4>     nprocs 12
|  5> end
|  6> 
|  7> %maxcore 8000
|  8> 
|  9> %scf
| 10>     ConvForced true
| 11> end
| 12> 
| 13> *xyz 0 1
| 14> C     4.965254    -1.339584    -0.044182
| 15> H     5.314737    -1.841863     0.861417
| 16> H     5.681198    -1.519605    -0.850122
| 17> H     3.989147    -1.742947    -0.329017
| 18> C     4.834832     0.095061     0.198140
| 19> N     4.719616     1.235344     0.387883
| 20> C     1.441127     1.882863    -0.329419
| 21> H     1.359621     2.357060    -1.310892
| 22> H     2.333451     2.260555     0.177544
| 23> H     0.543957     2.109134     0.253372
| 24> C     1.556674     0.436463    -0.488846
| 25> N     1.649881    -0.716148    -0.609375
| 26> C    -1.441125    -1.882860     0.329422
| 27> H    -1.359625    -2.357055     1.310897
| 28> H    -0.543950    -2.109132    -0.253362
| 29> H    -2.333445    -2.260554    -0.177546
| 30> C    -1.556674    -0.436460     0.488846
| 31> N    -1.649882     0.716151     0.609372
| 32> C    -4.965259     1.339581     0.044180
| 33> H    -5.314744     1.841858    -0.861419
| 34> H    -3.989153     1.742948     0.329016
| 35> H    -5.681203     1.519600     0.850120
| 36> C    -4.834832    -0.095064    -0.198140
| 37> N    -4.719611    -1.235346    -0.387883
| 38> *
| 39> 
| 40>                          ****END OF INPUT****
================================================================================

                     *******************************
                     * Energy+Gradient Calculation *
                     *******************************

---------------------------------
CARTESIAN COORDINATES (ANGSTROEM)
---------------------------------
  C      4.965254   -1.339584   -0.044182
  H      5.314737   -1.841863    0.861417
  H      5.681198   -1.519605   -0.850122
  H      3.989147   -1.742947   -0.329017
  C      4.834832    0.095061    0.198140
  N      4.719616    1.235344    0.387883
  C      1.441127    1.882863   -0.329419
  H      1.359621    2.357060   -1.310892
  H      2.333451    2.260555    0.177544
  H      0.543957    2.109134    0.253372
  C      1.556674    0.436463   -0.488846
  N      1.649881   -0.716148   -0.609375
  C     -1.441125   -1.882860    0.329422
  H     -1.359625   -2.357055    1.310897
  H     -0.543950   -2.109132   -0.253362
  H     -2.333445   -2.260554   -0.177546
  C     -1.556674   -0.436460    0.488846
  N     -1.649882    0.716151    0.609372
  C     -4.965259    1.339581    0.044180
  H     -5.314744    1.841858   -0.861419
  H     -3.989153    1.742948    0.329016
  H     -5.681203    1.519600    0.850120
  C     -4.834832   -0.095064   -0.198140
  N     -4.719611   -1.235346   -0.387883

----------------------------
CARTESIAN COORDINATES (A.U.)
----------------------------
  NO LB      ZA    FRAG     MASS         X           Y           Z
   0 C     6.0000    0    12.011    9.382970   -2.531447   -0.083492
   1 H     1.0000    0     1.008   10.043397   -3.480617    1.627842
   2 H     1.0000    0     1.008   10.735908   -2.871637   -1.606498
   3 H     1.0000    0     1.008    7.538395   -3.293692   -0.621752
   4 C     6.0000    0    12.011    9.136508    0.179639    0.374430
   5 N     7.0000    0    14.007    8.918782    2.334462    0.732993
   6 C     6.0000    0    12.011    2.723335    3.558095   -0.622512
   7 H     1.0000    0     1.008    2.569311    4.454198   -2.477227
   8 H     1.0000    0     1.008    4.409583    4.271830    0.335510
   9 H     1.0000    0     1.008    1.027930    3.985686    0.478804
  10 C     6.0000    0    12.011    2.941688    0.824796   -0.923785
  11 N     7.0000    0    14.007    3.117823   -1.353324   -1.151552
  12 C     6.0000    0    12.011   -2.723332   -3.558090    0.622517
  13 H     1.0000    0     1.008   -2.569319   -4.454188    2.477236
  14 H     1.0000    0     1.008   -1.027917   -3.985682   -0.478785
  15 H     1.0000    0     1.008   -4.409572   -4.271828   -0.335513
  16 C     6.0000    0    12.011   -2.941688   -0.824790    0.923785
  17 N     7.0000    0    14.007   -3.117825    1.353329    1.151546
  18 C     6.0000    0    12.011   -9.382980    2.531441    0.083488
  19 H     1.0000    0     1.008  -10.043411    3.480607   -1.627846
  20 H     1.0000    0     1.008   -7.538407    3.293694    0.621750
  21 H     1.0000    0     1.008  -10.735918    2.871628    1.606494
  22 C     6.0000    0    12.011   -9.136508   -0.179645   -0.374430
  23 N     7.0000    0    14.007   -8.918772   -2.334466   -0.732993

--------------------------------
INTERNAL COORDINATES (ANGSTROEM)
--------------------------------
 C      0   0   0     0.000000000000     0.00000000     0.00000000
 H      1   0   0     1.092946526565     0.00000000     0.00000000
 H      1   2   0     1.092942201206   109.01660737     0.00000000
 H      1   2   3     1.093900161095   109.36723164   119.54650109
 C      1   2   3     1.460799823998   110.02538231   239.25095197
 N      5   1   2     1.161689482088   179.41358354   238.28281828
 C      6   5   1     3.417936970994   104.28892950   359.50529615
 H      7   6   5     1.093066911298   110.00786359   257.17534138
 H      7   6   5     1.093574346448    35.45821422   162.06285594
 H      7   6   5     1.093507166882   135.58839747   106.73086374
 C      7   6   5     1.459740058208    76.07084760     3.43342171
 N     11   7   6     1.162637906664   179.67555970    65.98339879
 C     12  11   7     3.434657885465   103.66680786    81.89360960
 H     13  12  11     1.093067392090   109.00731495   253.16847710
 H     13  12  11     1.093507745407    35.53624982   156.63054585
 H     13  12  11     1.093574091253   136.46327183   103.28082804
 C     13  12  11     1.459739888876    76.37919861   359.66964659
 N     17  13  12     1.162637675831   179.67553540    81.80972045
 C     18  17  13     3.420501661145   103.96133192    68.79628332
 H     19  18  17     1.092946246965   122.04669727   251.03573224
 H     19  18  17     1.093901004123    32.78485965   175.47761111
 H     19  18  17     1.092941871783   122.89514751   101.41100898
 C     19  18  17     1.460799938648    76.22378595   356.25303986
 N     23  19  18     1.161688996425   179.41355162     2.22789133

---------------------------
INTERNAL COORDINATES (A.U.)
---------------------------
 C      0   0   0     0.000000000000     0.00000000     0.00000000
 H      1   0   0     2.065369614229     0.00000000     0.00000000
 H      1   2   0     2.065361440484   109.01660737     0.00000000
 H      1   2   3     2.067171722321   109.36723164   119.54650109
 C      1   2   3     2.760511603837   110.02538231   239.25095197
 N      5   1   2     2.195274973803   179.41358354   238.28281828
 C      6   5   1     6.458964818183   104.28892950   359.50529615
 H      7   6   5     2.065597108404   110.00786359   257.17534138
 H      7   6   5     2.066556021868    35.45821422   162.06285594
 H      7   6   5     2.066429070887   135.58839747   106.73086374
 C      7   6   5     2.758508936728    76.07084760     3.43342171
 N     11   7   6     2.197067236510   179.67555970    65.98339879
 C     12  11   7     6.490562767242   103.66680786    81.89360960
 H     13  12  11     2.065598016969   109.00731495   253.16847710
 H     13  12  11     2.066430164141    35.53624982   156.63054585
 H     13  12  11     2.066555539620   136.46327183   103.28082804
 C     13  12  11     2.758508616737    76.37919861   359.66964659
 N     17  13  12     2.197066800299   179.67553540    81.80972045
 C     18  17  13     6.463811380186   103.96133192    68.79628332
 H     19  18  17     2.065369085861   122.04669727   251.03573224
 H     19  18  17     2.067173315414    32.78485965   175.47761111
 H     19  18  17     2.065360817966   122.89514751   101.41100898
 C     19  18  17     2.760511820494    76.22378595   356.25303986
 N     23  19  18     2.195274056032   179.41355162     2.22789133

---------------------
BASIS SET INFORMATION
---------------------
There are 3 groups of distinct atoms

 Group   1 Type C   : 11s6p2d1f contracted to 5s3p2d1f pattern {62111/411/11/1}
 Group   2 Type H   : 5s1p contracted to 3s1p pattern {311/1}
 Group   3 Type N   : 11s6p2d1f contracted to 5s3p2d1f pattern {62111/411/11/1}

Atom   0C    basis set group =>   1
Atom   1H    basis set group =>   2
Atom   2H    basis set group =>   2
Atom   3H    basis set group =>   2
Atom   4C    basis set group =>   1
Atom   5N    basis set group =>   3
Atom   6C    basis set group =>   1
Atom   7H    basis set group =>   2
Atom   8H    basis set group =>   2
Atom   9H    basis set group =>   2
Atom  10C    basis set group =>   1
Atom  11N    basis set group =>   3
Atom  12C    basis set group =>   1
Atom  13H    basis set group =>   2
Atom  14H    basis set group =>   2
Atom  15H    basis set group =>   2
Atom  16C    basis set group =>   1
Atom  17N    basis set group =>   3
Atom  18C    basis set group =>   1
Atom  19H    basis set group =>   2
Atom  20H    basis set group =>   2
Atom  21H    basis set group =>   2
Atom  22C    basis set group =>   1
Atom  23N    basis set group =>   3


           ************************************************************
           *        Program running with 12 parallel MPI-processes    *
           *              working on a common directory               *
           ************************************************************
------------------------------------------------------------------------------
                           ORCA GTO INTEGRAL CALCULATION
------------------------------------------------------------------------------

                         BASIS SET STATISTICS AND STARTUP INFO

 # of primitive gaussian shells          ...  312
 # of primitive gaussian functions       ...  648
 # of contracted shells                  ...  180
 # of contracted basis functions         ...  444
 Highest angular momentum                ...    3
 Maximum contraction depth               ...    6
 Integral package used                   ... LIBINT
 Integral threshhold            Thresh   ...  2.500e-11
 Primitive cut-off              TCut     ...  2.500e-12


------------------------------ INTEGRAL EVALUATION ----------------------------


 * One electron integrals 
 Pre-screening matrix                    ... done
 Shell pair data                         ... done (   0.003 sec)



           ************************************************************
           *        Program running with 12 parallel MPI-processes    *
           *              working on a common directory               *
           ************************************************************
-------------------------------------------------------------------------------
                                 ORCA SCF
-------------------------------------------------------------------------------

------------
SCF SETTINGS
------------
Hamiltonian:
 Ab initio Hamiltonian  Method          .... Hartree-Fock(GTOs)


General Settings:
 Integral files         IntName         .... 4mecn.malloum.etal.4-orca.engrad-mp2.def2tzvp
 Hartree-Fock type      HFTyp           .... RHF
 Total Charge           Charge          ....    0
 Multiplicity           Mult            ....    1
 Number of Electrons    NEL             ....   88
 Basis Dimension        Dim             ....  444
 Nuclear Repulsion      ENuc            ....    541.3778209549 Eh

Convergence Acceleration:
 DIIS                   CNVDIIS         .... on
   Start iteration      DIISMaxIt       ....    12
   Startup error        DIISStart       ....  0.200000
   # of expansion vecs  DIISMaxEq       ....     5
   Bias factor          DIISBfac        ....   1.050
   Max. coefficient     DIISMaxC        ....  10.000
 Newton-Raphson         CNVNR           .... off
 SOSCF                  CNVSOSCF        .... on
   Start iteration      SOSCFMaxIt      ....   150
   Startup grad/error   SOSCFStart      ....  0.003300
 Level Shifting         CNVShift        .... on
   Level shift para.    LevelShift      ....    0.2500
   Turn off err/grad.   ShiftErr        ....    0.0010
 Zerner damping         CNVZerner       .... off
 Static damping         CNVDamp         .... on
   Fraction old density DampFac         ....    0.7000
   Max. Damping (<1)    DampMax         ....    0.9800
   Min. Damping (>=0)   DampMin         ....    0.0000
   Turn off err/grad.   DampErr         ....    0.1000
 Fernandez-Rico         CNVRico         .... off

SCF Procedure:
 Maximum # iterations   MaxIter         ....   125
 SCF integral mode      SCFMode         .... Direct
   Integral package                     .... LIBINT
 Reset frequency        DirectResetFreq ....    20
 Integral Threshold     Thresh          ....  2.500e-11 Eh
 Primitive CutOff       TCut            ....  2.500e-12 Eh

Convergence Tolerance:
 Convergence Check Mode ConvCheckMode   .... Total+1el-Energy
 Convergence forced     ConvForced      .... 1
 Energy Change          TolE            ....  1.000e-08 Eh
 1-El. energy change                    ....  1.000e-05 Eh
 Orbital Gradient       TolG            ....  1.000e-05
 Orbital Rotation angle TolX            ....  1.000e-05
 DIIS Error             TolErr          ....  5.000e-07


Diagonalization of the overlap matrix:
Smallest eigenvalue                        ... 1.556e-04
Time for diagonalization                   ...    0.052 sec
Threshold for overlap eigenvalues          ... 1.000e-08
Number of eigenvalues below threshold      ... 0
Time for construction of square roots      ...    0.066 sec
Total time needed                          ...    0.118 sec

-------------------
DFT GRID GENERATION
-------------------

General Integration Accuracy     IntAcc      ...  4.340
Radial Grid Type                 RadialGrid  ... Gauss-Chebyshev
Angular Grid (max. acc.)         AngularGrid ... Lebedev-110
Angular grid pruning method      GridPruning ... 3 (G Style)
Weight generation scheme         WeightScheme... Becke
Basis function cutoff            BFCut       ...    1.0000e-11
Integration weight cutoff        WCut        ...    1.0000e-14
Grids for H and He will be reduced by one unit

# of grid points (after initial pruning)     ...  29584 (   0.0 sec)
# of grid points (after weights+screening)   ...  27580 (   0.0 sec)
nearest neighbour list constructed           ...    0.0 sec
Grid point re-assignment to atoms done       ...    0.0 sec
Grid point division into batches done        ...    0.0 sec
Reduced shell lists constructed in    0.0 sec

Total number of grid points                  ...    27580
Total number of batches                      ...      442
Average number of points per batch           ...       62
Average number of grid points per atom       ...     1149
Average number of shells per batch           ...    57.87 (32.15%)
Average number of basis functions per batch  ...   133.87 (30.15%)
Average number of large shells per batch     ...    39.82 (68.80%)
Average number of large basis fcns per batch ...    92.29 (68.94%)
Maximum spatial batch extension              ...  18.17, 22.36, 15.03 au
Average spatial batch extension              ...   0.47,  0.48,  0.40 au

Time for grid setup =    0.129 sec

------------------------------
INITIAL GUESS: MODEL POTENTIAL
------------------------------
Loading Hartree-Fock densities                     ... done
Calculating cut-offs                               ... done
Setting up the integral package                    ... done
Initializing the effective Hamiltonian             ... done
Starting the Coulomb interaction                   ... done (   0.0 sec)
Reading the grid                                   ... done
Mapping shells                                     ... done
Starting the XC term evaluation                    ... done (   0.1 sec)
Transforming the Hamiltonian                       ... done (   0.1 sec)
Diagonalizing the Hamiltonian                      ... done (   0.1 sec)
Back transforming the eigenvectors                 ... done (   0.0 sec)
Now organizing SCF variables                       ... done
                      ------------------
                      INITIAL GUESS DONE (   0.4 sec)
                      ------------------
--------------
SCF ITERATIONS
--------------
ITER       Energy         Delta-E        Max-DP      RMS-DP      [F,P]     Damp
               ***  Starting incremental Fock matrix formation  ***
  0   -527.2960027608   0.000000000000 0.03667330  0.00070858  0.2666903 0.7000
  1   -527.5166610950  -0.220658334243 0.02627072  0.00055383  0.1875362 0.7000
                               ***Turning on DIIS***
  2   -527.6471455579  -0.130484462896 0.01576157  0.00037404  0.1416625 0.7000
  3   -528.9226736822  -1.275528124343 0.01038980  0.00025393  0.1052254 0.7000
  4   -528.8407422262   0.081931456079 0.02796428  0.00061981  0.0741998 0.0000
  5   -527.9530712809   0.887670945302 0.00469804  0.00008759  0.0057190 0.0000
                      *** Initiating the SOSCF procedure ***
                           *** Shutting down DIIS ***
                      *** Re-Reading the Fockian *** 
                      *** Removing any level shift *** 
ITER      Energy       Delta-E        Grad      Rot      Max-DP    RMS-DP
  6   -527.92738172   0.0256895607  0.001370  0.001370  0.003341  0.000053
               *** Restarting incremental Fock matrix formation ***
  7   -527.91699564   0.0103860752  0.000491  0.000727  0.002209  0.000037
  8   -527.91702148  -0.0000258388  0.000269  0.000597  0.001928  0.000032
  9   -527.91702801  -0.0000065305  0.000115  0.000143  0.000573  0.000008
 10   -527.91702879  -0.0000007784  0.000024  0.000044  0.000089  0.000001
 11   -527.91702886  -0.0000000666  0.000023  0.000071  0.000053  0.000001
 12   -527.91702889  -0.0000000332  0.000008  0.000013  0.000043  0.000001
 13   -527.91702890  -0.0000000047  0.000003  0.000004  0.000010  0.000000
                  ***Gradient check signals convergence***
              ***Rediagonalizing the Fockian in SOSCF/NRSCF***

               *****************************************************
               *                     SUCCESS                       *
               *           SCF CONVERGED AFTER  14 CYCLES          *
               *****************************************************


----------------
TOTAL SCF ENERGY
----------------

Total Energy       :         -527.91702890 Eh          -14365.35268 eV

Components:
Nuclear Repulsion  :          541.37782095 Eh           14731.63945 eV
Electronic Energy  :        -1069.29484986 Eh          -29096.99213 eV
One Electron Energy:        -1788.55330333 Eh          -48669.00967 eV
Two Electron Energy:          719.25845347 Eh           19572.01754 eV

Virial components:
Potential Energy   :        -1054.79653153 Eh          -28702.47283 eV
Kinetic Energy     :          526.87950263 Eh           14337.12015 eV
Virial Ratio       :            2.00196919


---------------
SCF CONVERGENCE
---------------

  Last Energy change         ...   -4.5250e-09  Tolerance :   1.0000e-08
  Last MAX-Density change    ...    3.5708e-06  Tolerance :   1.0000e-07
  Last RMS-Density change    ...    4.8069e-08  Tolerance :   5.0000e-09
  Last Orbital Gradient      ...    1.2343e-06  Tolerance :   1.0000e-05
  Last Orbital Rotation      ...    3.6621e-06  Tolerance :   1.0000e-05

             **** THE GBW FILE WAS UPDATED (4mecn.malloum.etal.4-orca.engrad-mp2.def2tzvp.gbw) ****
             **** DENSITY FILE WAS UPDATED (4mecn.malloum.etal.4-orca.engrad-mp2.def2tzvp.scfp) ****
             **** ENERGY FILE WAS UPDATED (4mecn.malloum.etal.4-orca.engrad-mp2.def2tzvp.en.tmp) ****
             **** THE GBW FILE WAS UPDATED (4mecn.malloum.etal.4-orca.engrad-mp2.def2tzvp.gbw) ****
             **** DENSITY FILE WAS UPDATED (4mecn.malloum.etal.4-orca.engrad-mp2.def2tzvp.scfp) ****
----------------
ORBITAL ENERGIES
----------------

  NO   OCC          E(Eh)            E(eV) 
   0   2.0000     -15.568655      -423.6446 
   1   2.0000     -15.568655      -423.6446 
   2   2.0000     -15.566505      -423.5861 
   3   2.0000     -15.566504      -423.5861 
   4   2.0000     -11.282367      -307.0088 
   5   2.0000     -11.282366      -307.0088 
   6   2.0000     -11.280251      -306.9512 
   7   2.0000     -11.280251      -306.9512 
   8   2.0000     -11.274156      -306.7854 
   9   2.0000     -11.274156      -306.7854 
  10   2.0000     -11.262869      -306.4782 
  11   2.0000     -11.262869      -306.4782 
  12   2.0000      -1.219225       -33.1768 
  13   2.0000      -1.217376       -33.1265 
  14   2.0000      -1.215040       -33.0629 
  15   2.0000      -1.213434       -33.0192 
  16   2.0000      -1.031427       -28.0666 
  17   2.0000      -1.031397       -28.0658 
  18   2.0000      -1.024480       -27.8775 
  19   2.0000      -1.022373       -27.8202 
  20   2.0000      -0.690910       -18.8006 
  21   2.0000      -0.690783       -18.7972 
  22   2.0000      -0.684434       -18.6244 
  23   2.0000      -0.680985       -18.5305 
  24   2.0000      -0.627344       -17.0709 
  25   2.0000      -0.624731       -16.9998 
  26   2.0000      -0.620741       -16.8912 
  27   2.0000      -0.620695       -16.8900 
  28   2.0000      -0.616724       -16.7819 
  29   2.0000      -0.611137       -16.6299 
  30   2.0000      -0.609207       -16.5774 
  31   2.0000      -0.605037       -16.4639 
  32   2.0000      -0.559834       -15.2339 
  33   2.0000      -0.555925       -15.1275 
  34   2.0000      -0.554432       -15.0869 
  35   2.0000      -0.553634       -15.0651 
  36   2.0000      -0.462319       -12.5803 
  37   2.0000      -0.461366       -12.5544 
  38   2.0000      -0.460721       -12.5369 
  39   2.0000      -0.460022       -12.5178 
  40   2.0000      -0.457665       -12.4537 
  41   2.0000      -0.457490       -12.4489 
  42   2.0000      -0.455610       -12.3978 
  43   2.0000      -0.452122       -12.3029 
  44   0.0000       0.128414         3.4943 
  45   0.0000       0.133809         3.6411 
  46   0.0000       0.148766         4.0481 
  47   0.0000       0.157774         4.2932 
  48   0.0000       0.174191         4.7400 
  49   0.0000       0.175249         4.7688 
  50   0.0000       0.175660         4.7800 
  51   0.0000       0.177156         4.8207 
  52   0.0000       0.181724         4.9450 
  53   0.0000       0.191589         5.2134 
  54   0.0000       0.194086         5.2814 
  55   0.0000       0.199392         5.4257 
  56   0.0000       0.210556         5.7295 
  57   0.0000       0.214741         5.8434 
  58   0.0000       0.223910         6.0929 
  59   0.0000       0.226770         6.1707 
  60   0.0000       0.227774         6.1981 
  61   0.0000       0.231308         6.2942 
  62   0.0000       0.247573         6.7368 
  63   0.0000       0.254982         6.9384 
  64   0.0000       0.265452         7.2233 
  65   0.0000       0.271341         7.3836 
  66   0.0000       0.274441         7.4679 
  67   0.0000       0.280277         7.6267 
  68   0.0000       0.293509         7.9868 
  69   0.0000       0.306248         8.3334 
  70   0.0000       0.307559         8.3691 
  71   0.0000       0.322137         8.7658 
  72   0.0000       0.325374         8.8539 
  73   0.0000       0.328475         8.9383 
  74   0.0000       0.335955         9.1418 
  75   0.0000       0.337805         9.1921 
  76   0.0000       0.344155         9.3649 
  77   0.0000       0.349592         9.5129 
  78   0.0000       0.350206         9.5296 
  79   0.0000       0.356619         9.7041 
  80   0.0000       0.397436        10.8148 
  81   0.0000       0.398563        10.8454 
  82   0.0000       0.406653        11.0656 
  83   0.0000       0.411481        11.1970 
  84   0.0000       0.437345        11.9008 
  85   0.0000       0.442531        12.0419 
  86   0.0000       0.457649        12.4533 
  87   0.0000       0.470668        12.8075 
  88   0.0000       0.474425        12.9098 
  89   0.0000       0.482370        13.1260 
  90   0.0000       0.502991        13.6871 
  91   0.0000       0.517267        14.0756 
  92   0.0000       0.524876        14.2826 
  93   0.0000       0.533176        14.5085 
  94   0.0000       0.538518        14.6538 
  95   0.0000       0.544973        14.8295 
  96   0.0000       0.557884        15.1808 
  97   0.0000       0.564602        15.3636 
  98   0.0000       0.578183        15.7332 
  99   0.0000       0.580022        15.7832 
 100   0.0000       0.596372        16.2281 
 101   0.0000       0.601025        16.3547 
 102   0.0000       0.606362        16.5000 
 103   0.0000       0.606710        16.5094 
 104   0.0000       0.614284        16.7155 
 105   0.0000       0.615571        16.7505 
 106   0.0000       0.631210        17.1761 
 107   0.0000       0.631976        17.1969 
 108   0.0000       0.660269        17.9668 
 109   0.0000       0.660630        17.9767 
 110   0.0000       0.667151        18.1541 
 111   0.0000       0.668932        18.2026 
 112   0.0000       0.684875        18.6364 
 113   0.0000       0.685830        18.6624 
 114   0.0000       0.690967        18.8022 
 115   0.0000       0.705184        19.1890 
 116   0.0000       0.717871        19.5343 
 117   0.0000       0.721228        19.6256 
 118   0.0000       0.733658        19.9638 
 119   0.0000       0.746717        20.3192 
 120   0.0000       0.748719        20.3737 
 121   0.0000       0.762092        20.7376 
 122   0.0000       0.777011        21.1435 
 123   0.0000       0.790470        21.5098 
 124   0.0000       0.792811        21.5735 
 125   0.0000       0.794421        21.6173 
 126   0.0000       0.812980        22.1223 
 127   0.0000       0.829828        22.5808 
 128   0.0000       0.835035        22.7224 
 129   0.0000       0.841221        22.8908 
 130   0.0000       0.847493        23.0614 
 131   0.0000       0.863420        23.4949 
 132   0.0000       0.879759        23.9395 
 133   0.0000       0.904401        24.6100 
 134   0.0000       0.921940        25.0873 
 135   0.0000       0.922988        25.1158 
 136   0.0000       0.924264        25.1505 
 137   0.0000       0.939117        25.5547 
 138   0.0000       0.941679        25.6244 
 139   0.0000       0.963156        26.2088 
 140   0.0000       0.992803        27.0155 
 141   0.0000       1.037346        28.2276 
 142   0.0000       1.046685        28.4817 
 143   0.0000       1.052649        28.6440 
 144   0.0000       1.074918        29.2500 
 145   0.0000       1.101889        29.9839 
 146   0.0000       1.102288        29.9948 
 147   0.0000       1.118971        30.4488 
 148   0.0000       1.131634        30.7933 
 149   0.0000       1.135335        30.8940 
 150   0.0000       1.149159        31.2702 
 151   0.0000       1.152932        31.3729 
 152   0.0000       1.162131        31.6232 
 153   0.0000       1.177718        32.0473 
 154   0.0000       1.181912        32.1614 
 155   0.0000       1.194239        32.4969 
 156   0.0000       1.334379        36.3103 
 157   0.0000       1.335816        36.3494 
 158   0.0000       1.348051        36.6823 
 159   0.0000       1.348620        36.6978 
 160   0.0000       1.394389        37.9433 
 161   0.0000       1.409588        38.3568 
 162   0.0000       1.415912        38.5289 
 163   0.0000       1.421587        38.6834 
 164   0.0000       1.423183        38.7268 
 165   0.0000       1.431822        38.9619 
 166   0.0000       1.447300        39.3830 
 167   0.0000       1.451384        39.4942 
 168   0.0000       1.456202        39.6253 
 169   0.0000       1.472336        40.0643 
 170   0.0000       1.472646        40.0727 
 171   0.0000       1.475182        40.1418 
 172   0.0000       1.475460        40.1493 
 173   0.0000       1.481748        40.3204 
 174   0.0000       1.490679        40.5634 
 175   0.0000       1.495472        40.6939 
 176   0.0000       1.498431        40.7744 
 177   0.0000       1.507681        41.0261 
 178   0.0000       1.520754        41.3818 
 179   0.0000       1.525073        41.4993 
 180   0.0000       1.548251        42.1301 
 181   0.0000       1.558456        42.4077 
 182   0.0000       1.582736        43.0684 
 183   0.0000       1.617976        44.0274 
 184   0.0000       1.693385        46.0794 
 185   0.0000       1.699327        46.2410 
 186   0.0000       1.715987        46.6944 
 187   0.0000       1.740004        47.3479 
 188   0.0000       1.740087        47.3502 
 189   0.0000       1.752764        47.6951 
 190   0.0000       1.762160        47.9508 
 191   0.0000       1.765708        48.0474 
 192   0.0000       1.772398        48.2294 
 193   0.0000       1.773879        48.2697 
 194   0.0000       1.778819        48.4041 
 195   0.0000       1.780679        48.4548 
 196   0.0000       1.805162        49.1210 
 197   0.0000       1.809756        49.2460 
 198   0.0000       1.813255        49.3412 
 199   0.0000       1.816516        49.4299 
 200   0.0000       1.826491        49.7013 
 201   0.0000       1.828126        49.7458 
 202   0.0000       1.846751        50.2527 
 203   0.0000       1.847091        50.2619 
 204   0.0000       1.863708        50.7141 
 205   0.0000       1.867814        50.8258 
 206   0.0000       1.880262        51.1645 
 207   0.0000       1.897776        51.6411 
 208   0.0000       1.940014        52.7905 
 209   0.0000       1.942373        52.8547 
 210   0.0000       1.961181        53.3664 
 211   0.0000       1.961697        53.3805 
 212   0.0000       1.980385        53.8890 
 213   0.0000       1.985422        54.0261 
 214   0.0000       1.989988        54.1503 
 215   0.0000       2.000492        54.4362 
 216   0.0000       2.014363        54.8136 
 217   0.0000       2.026203        55.1358 
 218   0.0000       2.059878        56.0521 
 219   0.0000       2.086452        56.7752 
 220   0.0000       2.230609        60.6979 
 221   0.0000       2.231217        60.7145 
 222   0.0000       2.237254        60.8788 
 223   0.0000       2.246294        61.1248 
 224   0.0000       2.256751        61.4093 
 225   0.0000       2.256952        61.4148 
 226   0.0000       2.260697        61.5167 
 227   0.0000       2.260960        61.5238 
 228   0.0000       2.272335        61.8334 
 229   0.0000       2.301436        62.6253 
 230   0.0000       2.311714        62.9049 
 231   0.0000       2.312428        62.9244 
 232   0.0000       2.357690        64.1560 
 233   0.0000       2.359845        64.2146 
 234   0.0000       2.380802        64.7849 
 235   0.0000       2.384601        64.8883 
 236   0.0000       2.537597        69.0515 
 237   0.0000       2.545205        69.2586 
 238   0.0000       2.570733        69.9532 
 239   0.0000       2.573185        70.0199 
 240   0.0000       2.575098        70.0720 
 241   0.0000       2.575120        70.0726 
 242   0.0000       2.588746        70.4434 
 243   0.0000       2.599386        70.7329 
 244   0.0000       2.605059        70.8873 
 245   0.0000       2.612037        71.0771 
 246   0.0000       2.624163        71.4071 
 247   0.0000       2.624551        71.4177 
 248   0.0000       2.629823        71.5611 
 249   0.0000       2.635138        71.7057 
 250   0.0000       2.643735        71.9397 
 251   0.0000       2.644928        71.9722 
 252   0.0000       2.649908        72.1077 
 253   0.0000       2.670787        72.6758 
 254   0.0000       2.680014        72.9269 
 255   0.0000       2.693251        73.2871 
 256   0.0000       2.698230        73.4226 
 257   0.0000       2.731349        74.3238 
 258   0.0000       2.750998        74.8585 
 259   0.0000       2.752337        74.8949 
 260   0.0000       2.752989        74.9127 
 261   0.0000       2.755317        74.9760 
 262   0.0000       2.760762        75.1242 
 263   0.0000       2.768158        75.3254 
 264   0.0000       2.779931        75.6458 
 265   0.0000       2.818409        76.6928 
 266   0.0000       2.823888        76.8419 
 267   0.0000       2.849732        77.5452 
 268   0.0000       2.913269        79.2741 
 269   0.0000       2.916899        79.3729 
 270   0.0000       2.918112        79.4059 
 271   0.0000       2.918237        79.4093 
 272   0.0000       2.922239        79.5182 
 273   0.0000       2.929379        79.7125 
 274   0.0000       2.933347        79.8204 
 275   0.0000       2.936689        79.9114 
 276   0.0000       2.953963        80.3814 
 277   0.0000       2.956579        80.4526 
 278   0.0000       2.958287        80.4991 
 279   0.0000       2.960789        80.5672 
 280   0.0000       2.977224        81.0144 
 281   0.0000       2.986856        81.2765 
 282   0.0000       3.000224        81.6402 
 283   0.0000       3.009320        81.8878 
 284   0.0000       3.030891        82.4747 
 285   0.0000       3.048475        82.9532 
 286   0.0000       3.056938        83.1835 
 287   0.0000       3.064117        83.3789 
 288   0.0000       3.090630        84.1003 
 289   0.0000       3.091009        84.1106 
 290   0.0000       3.111803        84.6765 
 291   0.0000       3.113230        84.7153 
 292   0.0000       3.118117        84.8483 
 293   0.0000       3.128884        85.1413 
 294   0.0000       3.140687        85.4624 
 295   0.0000       3.146162        85.6114 
 296   0.0000       3.226368        87.7939 
 297   0.0000       3.228020        87.8389 
 298   0.0000       3.245374        88.3111 
 299   0.0000       3.256905        88.6249 
 300   0.0000       3.264624        88.8349 
 301   0.0000       3.269477        88.9670 
 302   0.0000       3.271451        89.0207 
 303   0.0000       3.284913        89.3870 
 304   0.0000       3.288558        89.4862 
 305   0.0000       3.311180        90.1018 
 306   0.0000       3.313151        90.1554 
 307   0.0000       3.313486        90.1645 
 308   0.0000       3.330079        90.6161 
 309   0.0000       3.330454        90.6263 
 310   0.0000       3.356716        91.3409 
 311   0.0000       3.357239        91.3551 
 312   0.0000       3.362250        91.4915 
 313   0.0000       3.384795        92.1050 
 314   0.0000       3.404744        92.6478 
 315   0.0000       3.413259        92.8795 
 316   0.0000       3.451168        93.9111 
 317   0.0000       3.451398        93.9173 
 318   0.0000       3.455488        94.0286 
 319   0.0000       3.456928        94.0678 
 320   0.0000       3.470256        94.4305 
 321   0.0000       3.474865        94.5559 
 322   0.0000       3.504747        95.3690 
 323   0.0000       3.520342        95.7934 
 324   0.0000       3.545290        96.4722 
 325   0.0000       3.552379        96.6651 
 326   0.0000       3.573307        97.2346 
 327   0.0000       3.583877        97.5222 
 328   0.0000       3.653039        99.4043 
 329   0.0000       3.653425        99.4147 
 330   0.0000       3.660702        99.6128 
 331   0.0000       3.660712        99.6130 
 332   0.0000       3.678119       100.0867 
 333   0.0000       3.679136       100.1144 
 334   0.0000       3.692103       100.4672 
 335   0.0000       3.692927       100.4896 
 336   0.0000       3.791156       103.1626 
 337   0.0000       3.792201       103.1910 
 338   0.0000       3.797157       103.3259 
 339   0.0000       3.797347       103.3311 
 340   0.0000       3.800326       103.4121 
 341   0.0000       3.825531       104.0980 
 342   0.0000       3.844816       104.6228 
 343   0.0000       3.858652       104.9993 
 344   0.0000       3.929120       106.9168 
 345   0.0000       3.932096       106.9978 
 346   0.0000       3.947465       107.4160 
 347   0.0000       3.953171       107.5712 
 348   0.0000       3.954086       107.5961 
 349   0.0000       3.954381       107.6042 
 350   0.0000       3.965534       107.9077 
 351   0.0000       3.968631       107.9920 
 352   0.0000       3.970668       108.0474 
 353   0.0000       3.972703       108.1027 
 354   0.0000       3.982475       108.3687 
 355   0.0000       3.988399       108.5299 
 356   0.0000       4.237937       115.3201 
 357   0.0000       4.253922       115.7551 
 358   0.0000       4.254405       115.7683 
 359   0.0000       4.254623       115.7742 
 360   0.0000       4.265271       116.0639 
 361   0.0000       4.275372       116.3388 
 362   0.0000       4.286917       116.6529 
 363   0.0000       4.312081       117.3377 
 364   0.0000       4.342028       118.1526 
 365   0.0000       4.346269       118.2680 
 366   0.0000       4.348161       118.3195 
 367   0.0000       4.348175       118.3198 
 368   0.0000       4.348855       118.3383 
 369   0.0000       4.349228       118.3485 
 370   0.0000       4.353726       118.4709 
 371   0.0000       4.354759       118.4990 
 372   0.0000       4.572157       124.4147 
 373   0.0000       4.572720       124.4300 
 374   0.0000       4.593636       124.9992 
 375   0.0000       4.596986       125.0903 
 376   0.0000       4.742447       129.0485 
 377   0.0000       4.743731       129.0835 
 378   0.0000       4.744199       129.0962 
 379   0.0000       4.748616       129.2164 
 380   0.0000       4.759735       129.5190 
 381   0.0000       4.780870       130.0941 
 382   0.0000       4.782262       130.1320 
 383   0.0000       4.785297       130.2145 
 384   0.0000       4.854955       132.1100 
 385   0.0000       4.858125       132.1963 
 386   0.0000       4.876200       132.6881 
 387   0.0000       4.882177       132.8508 
 388   0.0000       4.966927       135.1569 
 389   0.0000       4.967851       135.1821 
 390   0.0000       4.974817       135.3717 
 391   0.0000       4.978065       135.4600 
 392   0.0000       4.985882       135.6727 
 393   0.0000       4.994602       135.9100 
 394   0.0000       5.005989       136.2199 
 395   0.0000       5.009151       136.3059 
 396   0.0000       5.064562       137.8137 
 397   0.0000       5.070184       137.9667 
 398   0.0000       5.071355       137.9986 
 399   0.0000       5.075001       138.0978 
 400   0.0000       5.078834       138.2021 
 401   0.0000       5.091360       138.5429 
 402   0.0000       5.096537       138.6838 
 403   0.0000       5.108517       139.0098 
 404   0.0000       5.230191       142.3207 
 405   0.0000       5.230505       142.3293 
 406   0.0000       5.247750       142.7985 
 407   0.0000       5.254248       142.9753 
 408   0.0000       5.555282       151.1669 
 409   0.0000       5.555299       151.1674 
 410   0.0000       5.563634       151.3942 
 411   0.0000       5.564402       151.4151 
 412   0.0000       5.584074       151.9504 
 413   0.0000       5.584271       151.9557 
 414   0.0000       5.607482       152.5873 
 415   0.0000       5.608596       152.6177 
 416   0.0000       6.025490       163.9619 
 417   0.0000       6.028397       164.0410 
 418   0.0000       6.032623       164.1560 
 419   0.0000       6.041151       164.3881 
 420   0.0000       6.089110       165.6931 
 421   0.0000       6.089513       165.7041 
 422   0.0000       6.094901       165.8507 
 423   0.0000       6.097722       165.9275 
 424   0.0000       6.107039       166.1810 
 425   0.0000       6.131251       166.8398 
 426   0.0000       6.169893       167.8913 
 427   0.0000       6.198114       168.6593 
 428   0.0000       6.485361       176.4756 
 429   0.0000       6.486727       176.5128 
 430   0.0000       6.500640       176.8914 
 431   0.0000       6.520028       177.4190 
 432   0.0000      23.462164       638.4379 
 433   0.0000      23.462975       638.4600 
 434   0.0000      23.479215       638.9019 
 435   0.0000      23.481601       638.9668 
 436   0.0000      24.367659       663.0777 
 437   0.0000      24.371395       663.1794 
 438   0.0000      24.382583       663.4838 
 439   0.0000      24.395355       663.8314 
 440   0.0000      33.436947       909.8656 
 441   0.0000      33.444169       910.0621 
 442   0.0000      33.485162       911.1776 
 443   0.0000      33.536983       912.5877 

                    ********************************
                    * MULLIKEN POPULATION ANALYSIS *
                    ********************************

-----------------------
MULLIKEN ATOMIC CHARGES
-----------------------
   0 C :   -0.183043
   1 H :    0.148524
   2 H :    0.148991
   3 H :    0.193609
   4 C :   -0.061084
   5 N :   -0.247225
   6 C :   -0.191989
   7 H :    0.141526
   8 H :    0.191039
   9 H :    0.185682
  10 C :   -0.002394
  11 N :   -0.323634
  12 C :   -0.191989
  13 H :    0.141526
  14 H :    0.185682
  15 H :    0.191038
  16 C :   -0.002395
  17 N :   -0.323634
  18 C :   -0.183043
  19 H :    0.148524
  20 H :    0.193609
  21 H :    0.148990
  22 C :   -0.061085
  23 N :   -0.247224
Sum of atomic charges:   -0.0000000

--------------------------------
MULLIKEN REDUCED ORBITAL CHARGES
--------------------------------
  0 C s       :     3.159563  s :     3.159563
      pz      :     1.063863  p :     2.958601
      px      :     1.104139
      py      :     0.790599
      dz2     :     0.009608  d :     0.061379
      dxz     :     0.013605
      dyz     :     0.011633
      dx2y2   :     0.015564
      dxy     :     0.010968
      f0      :     0.000191  f :     0.003501
      f+1     :     0.000755
      f-1     :     0.000583
      f+2     :     0.000639
      f-2     :     0.000156
      f+3     :     0.000210
      f-3     :     0.000967
  1 H s       :     0.829144  s :     0.829144
      pz      :     0.011310  p :     0.022332
      px      :     0.004908
      py      :     0.006114
  2 H s       :     0.828671  s :     0.828671
      pz      :     0.010011  p :     0.022338
      px      :     0.008582
      py      :     0.003746
  3 H s       :     0.783361  s :     0.783361
      pz      :     0.004444  p :     0.023031
      px      :     0.013662
      py      :     0.004924
  4 C s       :     3.249428  s :     3.249428
      pz      :     0.873877  p :     2.679346
      px      :     0.851351
      py      :     0.954119
      dz2     :     0.008311  d :     0.115093
      dxz     :     0.002734
      dyz     :     0.040926
      dx2y2   :     0.020610
      dxy     :     0.042512
      f0      :     0.002028  f :     0.017218
      f+1     :     0.000313
      f-1     :     0.002262
      f+2     :     0.003605
      f-2     :     0.000638
      f+3     :     0.005577
      f-3     :     0.002794
  5 N s       :     3.731410  s :     3.731410
      pz      :     1.088676  p :     3.459118
      px      :     1.097741
      py      :     1.272701
      dz2     :     0.004052  d :     0.053718
      dxz     :     0.000716
      dyz     :     0.019839
      dx2y2   :     0.008859
      dxy     :     0.020251
      f0      :     0.000365  f :     0.002979
      f+1     :     0.000062
      f-1     :     0.000390
      f+2     :     0.000639
      f-2     :     0.000101
      f+3     :     0.000979
      f-3     :     0.000444
  6 C s       :     3.166567  s :     3.166567
      pz      :     1.085378  p :     2.961265
      px      :     1.107661
      py      :     0.768226
      dz2     :     0.009862  d :     0.060659
      dxz     :     0.012750
      dyz     :     0.011278
      dx2y2   :     0.017390
      dxy     :     0.009379
      f0      :     0.000576  f :     0.003499
      f+1     :     0.000047
      f-1     :     0.000750
      f+2     :     0.000898
      f-2     :     0.000078
      f+3     :     0.000212
      f-3     :     0.000939
  7 H s       :     0.836014  s :     0.836014
      pz      :     0.012683  p :     0.022460
      px      :     0.003923
      py      :     0.005854
  8 H s       :     0.786087  s :     0.786087
      pz      :     0.006135  p :     0.022875
      px      :     0.011985
      py      :     0.004755
  9 H s       :     0.791500  s :     0.791500
      pz      :     0.006961  p :     0.022818
      px      :     0.012073
      py      :     0.003784
 10 C s       :     3.261064  s :     3.261064
      pz      :     0.851842  p :     2.607541
      px      :     0.823015
      py      :     0.932684
      dz2     :     0.006517  d :     0.116557
      dxz     :     0.001793
      dyz     :     0.044105
      dx2y2   :     0.020010
      dxy     :     0.044132
      f0      :     0.002287  f :     0.017233
      f+1     :     0.000363
      f-1     :     0.001769
      f+2     :     0.003862
      f-2     :     0.000352
      f+3     :     0.005885
      f-3     :     0.002715
 11 N s       :     3.762134  s :     3.762134
      pz      :     1.107250  p :     3.506081
      px      :     1.132280
      py      :     1.266551
      dz2     :     0.003212  d :     0.052452
      dxz     :     0.000389
      dyz     :     0.020156
      dx2y2   :     0.008274
      dxy     :     0.020420
      f0      :     0.000423  f :     0.002968
      f+1     :     0.000076
      f-1     :     0.000299
      f+2     :     0.000678
      f-2     :     0.000049
      f+3     :     0.001026
      f-3     :     0.000418
 12 C s       :     3.166567  s :     3.166567
      pz      :     1.085378  p :     2.961265
      px      :     1.107661
      py      :     0.768226
      dz2     :     0.009862  d :     0.060659
      dxz     :     0.012750
      dyz     :     0.011278
      dx2y2   :     0.017390
      dxy     :     0.009379
      f0      :     0.000576  f :     0.003499
      f+1     :     0.000047
      f-1     :     0.000750
      f+2     :     0.000898
      f-2     :     0.000078
      f+3     :     0.000212
      f-3     :     0.000939
 13 H s       :     0.836014  s :     0.836014
      pz      :     0.012683  p :     0.022460
      px      :     0.003923
      py      :     0.005854
 14 H s       :     0.791500  s :     0.791500
      pz      :     0.006961  p :     0.022818
      px      :     0.012074
      py      :     0.003784
 15 H s       :     0.786087  s :     0.786087
      pz      :     0.006135  p :     0.022875
      px      :     0.011985
      py      :     0.004755
 16 C s       :     3.261064  s :     3.261064
      pz      :     0.851842  p :     2.607541
      px      :     0.823015
      py      :     0.932685
      dz2     :     0.006517  d :     0.116557
      dxz     :     0.001793
      dyz     :     0.044105
      dx2y2   :     0.020010
      dxy     :     0.044132
      f0      :     0.002287  f :     0.017233
      f+1     :     0.000363
      f-1     :     0.001769
      f+2     :     0.003862
      f-2     :     0.000352
      f+3     :     0.005885
      f-3     :     0.002715
 17 N s       :     3.762133  s :     3.762133
      pz      :     1.107250  p :     3.506080
      px      :     1.132280
      py      :     1.266551
      dz2     :     0.003212  d :     0.052452
      dxz     :     0.000389
      dyz     :     0.020156
      dx2y2   :     0.008274
      dxy     :     0.020420
      f0      :     0.000423  f :     0.002968
      f+1     :     0.000076
      f-1     :     0.000299
      f+2     :     0.000678
      f-2     :     0.000049
      f+3     :     0.001026
      f-3     :     0.000418
 18 C s       :     3.159563  s :     3.159563
      pz      :     1.063863  p :     2.958601
      px      :     1.104138
      py      :     0.790599
      dz2     :     0.009608  d :     0.061379
      dxz     :     0.013605
      dyz     :     0.011633
      dx2y2   :     0.015564
      dxy     :     0.010968
      f0      :     0.000191  f :     0.003501
      f+1     :     0.000755
      f-1     :     0.000583
      f+2     :     0.000639
      f-2     :     0.000156
      f+3     :     0.000210
      f-3     :     0.000967
 19 H s       :     0.829144  s :     0.829144
      pz      :     0.011310  p :     0.022332
      px      :     0.004908
      py      :     0.006114
 20 H s       :     0.783361  s :     0.783361
      pz      :     0.004444  p :     0.023030
      px      :     0.013662
      py      :     0.004925
 21 H s       :     0.828671  s :     0.828671
      pz      :     0.010011  p :     0.022338
      px      :     0.008582
      py      :     0.003746
 22 C s       :     3.249428  s :     3.249428
      pz      :     0.873877  p :     2.679346
      px      :     0.851351
      py      :     0.954119
      dz2     :     0.008311  d :     0.115093
      dxz     :     0.002734
      dyz     :     0.040926
      dx2y2   :     0.020610
      dxy     :     0.042511
      f0      :     0.002028  f :     0.017218
      f+1     :     0.000313
      f-1     :     0.002262
      f+2     :     0.003605
      f-2     :     0.000638
      f+3     :     0.005577
      f-3     :     0.002794
 23 N s       :     3.731410  s :     3.731410
      pz      :     1.088676  p :     3.459118
      px      :     1.097741
      py      :     1.272701
      dz2     :     0.004052  d :     0.053718
      dxz     :     0.000716
      dyz     :     0.019839
      dx2y2   :     0.008859
      dxy     :     0.020251
      f0      :     0.000365  f :     0.002979
      f+1     :     0.000062
      f-1     :     0.000390
      f+2     :     0.000639
      f-2     :     0.000101
      f+3     :     0.000979
      f-3     :     0.000444


                     *******************************
                     * LOEWDIN POPULATION ANALYSIS *
                     *******************************

----------------------
LOEWDIN ATOMIC CHARGES
----------------------
   0 C :   -0.243176
   1 H :    0.140533
   2 H :    0.140605
   3 H :    0.148515
   4 C :   -0.181836
   5 N :   -0.005348
   6 C :   -0.240980
   7 H :    0.141596
   8 H :    0.147809
   9 H :    0.146369
  10 C :   -0.167349
  11 N :   -0.026740
  12 C :   -0.240980
  13 H :    0.141596
  14 H :    0.146369
  15 H :    0.147809
  16 C :   -0.167349
  17 N :   -0.026740
  18 C :   -0.243176
  19 H :    0.140533
  20 H :    0.148515
  21 H :    0.140605
  22 C :   -0.181836
  23 N :   -0.005348

-------------------------------
LOEWDIN REDUCED ORBITAL CHARGES
-------------------------------
  0 C s       :     2.817293  s :     2.817293
      pz      :     1.059413  p :     3.147797
      px      :     1.072279
      py      :     1.016105
      dz2     :     0.033659  d :     0.253718
      dxz     :     0.041249
      dyz     :     0.060824
      dx2y2   :     0.063368
      dxy     :     0.054618
      f0      :     0.002208  f :     0.024367
      f+1     :     0.002341
      f-1     :     0.004611
      f+2     :     0.003711
      f-2     :     0.001780
      f+3     :     0.004393
      f-3     :     0.005323
  1 H s       :     0.798596  s :     0.798596
      pz      :     0.030401  p :     0.060871
      px      :     0.015244
      py      :     0.015226
  2 H s       :     0.798517  s :     0.798517
      pz      :     0.026526  p :     0.060878
      px      :     0.023709
      py      :     0.010643
  3 H s       :     0.787699  s :     0.787699
      pz      :     0.013891  p :     0.063786
      px      :     0.036668
      py      :     0.013227
  4 C s       :     2.843774  s :     2.843774
      pz      :     0.832539  p :     2.830670
      px      :     0.817812
      py      :     1.180319
      dz2     :     0.042682  d :     0.448084
      dxz     :     0.007414
      dyz     :     0.141018
      dx2y2   :     0.114045
      dxy     :     0.142924
      f0      :     0.006225  f :     0.059307
      f+1     :     0.000911
      f-1     :     0.009425
      f+2     :     0.010983
      f-2     :     0.001784
      f+3     :     0.016126
      f-3     :     0.013853
  5 N s       :     3.306003  s :     3.306003
      pz      :     1.048152  p :     3.575310
      px      :     1.045179
      py      :     1.481979
      dz2     :     0.012313  d :     0.109516
      dxz     :     0.001091
      dyz     :     0.031917
      dx2y2   :     0.033289
      dxy     :     0.030906
      f0      :     0.001473  f :     0.014519
      f+1     :     0.000212
      f-1     :     0.002503
      f+2     :     0.002603
      f-2     :     0.000357
      f+3     :     0.003584
      f-3     :     0.003788
  6 C s       :     2.817050  s :     2.817050
      pz      :     1.065383  p :     3.149788
      px      :     1.074344
      py      :     1.010061
      dz2     :     0.034441  d :     0.249888
      dxz     :     0.035408
      dyz     :     0.061433
      dx2y2   :     0.069315
      dxy     :     0.049290
      f0      :     0.003291  f :     0.024253
      f+1     :     0.000488
      f-1     :     0.004908
      f+2     :     0.004058
      f-2     :     0.001628
      f+3     :     0.004582
      f-3     :     0.005298
  7 H s       :     0.797614  s :     0.797614
      pz      :     0.033343  p :     0.060789
      px      :     0.012916
      py      :     0.014529
  8 H s       :     0.788842  s :     0.788842
      pz      :     0.018224  p :     0.063349
      px      :     0.032402
      py      :     0.012724
  9 H s       :     0.790485  s :     0.790485
      pz      :     0.020198  p :     0.063146
      px      :     0.032207
      py      :     0.010740
 10 C s       :     2.845283  s :     2.845283
      pz      :     0.815192  p :     2.805233
      px      :     0.801073
      py      :     1.188967
      dz2     :     0.039499  d :     0.456840
      dxz     :     0.004553
      dyz     :     0.147792
      dx2y2   :     0.116375
      dxy     :     0.148621
      f0      :     0.006629  f :     0.059993
      f+1     :     0.001057
      f-1     :     0.008783
      f+2     :     0.011203
      f-2     :     0.000965
      f+3     :     0.017167
      f-3     :     0.014188
 11 N s       :     3.301452  s :     3.301452
      pz      :     1.054961  p :     3.604707
      px      :     1.058667
      py      :     1.491079
      dz2     :     0.011813  d :     0.106354
      dxz     :     0.000492
      dyz     :     0.030518
      dx2y2   :     0.033569
      dxy     :     0.029963
      f0      :     0.001474  f :     0.014228
      f+1     :     0.000231
      f-1     :     0.002427
      f+2     :     0.002470
      f-2     :     0.000163
      f+3     :     0.003560
      f-3     :     0.003902
 12 C s       :     2.817050  s :     2.817050
      pz      :     1.065383  p :     3.149789
      px      :     1.074344
      py      :     1.010061
      dz2     :     0.034442  d :     0.249888
      dxz     :     0.035408
      dyz     :     0.061433
      dx2y2   :     0.069315
      dxy     :     0.049290
      f0      :     0.003291  f :     0.024253
      f+1     :     0.000488
      f-1     :     0.004908
      f+2     :     0.004058
      f-2     :     0.001628
      f+3     :     0.004582
      f-3     :     0.005298
 13 H s       :     0.797614  s :     0.797614
      pz      :     0.033344  p :     0.060789
      px      :     0.012916
      py      :     0.014529
 14 H s       :     0.790485  s :     0.790485
      pz      :     0.020198  p :     0.063146
      px      :     0.032208
      py      :     0.010740
 15 H s       :     0.788842  s :     0.788842
      pz      :     0.018224  p :     0.063349
      px      :     0.032402
      py      :     0.012724
 16 C s       :     2.845283  s :     2.845283
      pz      :     0.815192  p :     2.805233
      px      :     0.801074
      py      :     1.188967
      dz2     :     0.039499  d :     0.456840
      dxz     :     0.004553
      dyz     :     0.147792
      dx2y2   :     0.116375
      dxy     :     0.148621
      f0      :     0.006629  f :     0.059993
      f+1     :     0.001057
      f-1     :     0.008783
      f+2     :     0.011203
      f-2     :     0.000965
      f+3     :     0.017167
      f-3     :     0.014188
 17 N s       :     3.301451  s :     3.301451
      pz      :     1.054961  p :     3.604707
      px      :     1.058667
      py      :     1.491079
      dz2     :     0.011813  d :     0.106354
      dxz     :     0.000492
      dyz     :     0.030518
      dx2y2   :     0.033569
      dxy     :     0.029963
      f0      :     0.001474  f :     0.014228
      f+1     :     0.000231
      f-1     :     0.002427
      f+2     :     0.002470
      f-2     :     0.000163
      f+3     :     0.003560
      f-3     :     0.003902
 18 C s       :     2.817293  s :     2.817293
      pz      :     1.059413  p :     3.147797
      px      :     1.072279
      py      :     1.016105
      dz2     :     0.033659  d :     0.253718
      dxz     :     0.041249
      dyz     :     0.060824
      dx2y2   :     0.063368
      dxy     :     0.054618
      f0      :     0.002208  f :     0.024367
      f+1     :     0.002341
      f-1     :     0.004611
      f+2     :     0.003711
      f-2     :     0.001780
      f+3     :     0.004393
      f-3     :     0.005323
 19 H s       :     0.798596  s :     0.798596
      pz      :     0.030401  p :     0.060871
      px      :     0.015244
      py      :     0.015226
 20 H s       :     0.787699  s :     0.787699
      pz      :     0.013891  p :     0.063786
      px      :     0.036668
      py      :     0.013227
 21 H s       :     0.798517  s :     0.798517
      pz      :     0.026526  p :     0.060878
      px      :     0.023709
      py      :     0.010643
 22 C s       :     2.843774  s :     2.843774
      pz      :     0.832539  p :     2.830670
      px      :     0.817812
      py      :     1.180319
      dz2     :     0.042682  d :     0.448084
      dxz     :     0.007415
      dyz     :     0.141018
      dx2y2   :     0.114045
      dxy     :     0.142924
      f0      :     0.006225  f :     0.059307
      f+1     :     0.000911
      f-1     :     0.009425
      f+2     :     0.010983
      f-2     :     0.001784
      f+3     :     0.016126
      f-3     :     0.013853
 23 N s       :     3.306002  s :     3.306002
      pz      :     1.048152  p :     3.575310
      px      :     1.045179
      py      :     1.481979
      dz2     :     0.012313  d :     0.109516
      dxz     :     0.001091
      dyz     :     0.031917
      dx2y2   :     0.033289
      dxy     :     0.030906
      f0      :     0.001473  f :     0.014519
      f+1     :     0.000212
      f-1     :     0.002503
      f+2     :     0.002603
      f-2     :     0.000357
      f+3     :     0.003584
      f-3     :     0.003788


                      *****************************
                      * MAYER POPULATION ANALYSIS *
                      *****************************

  NA   - Mulliken gross atomic population
  ZA   - Total nuclear charge
  QA   - Mulliken gross atomic charge
  VA   - Mayer's total valence
  BVA  - Mayer's bonded valence
  FA   - Mayer's free valence

  ATOM       NA         ZA         QA         VA         BVA        FA
  0 C      6.1830     6.0000    -0.1830     3.7919     3.7919    -0.0000
  1 H      0.8515     1.0000     0.1485     0.9633     0.9633    -0.0000
  2 H      0.8510     1.0000     0.1490     0.9633     0.9633    -0.0000
  3 H      0.8064     1.0000     0.1936     0.9616     0.9616    -0.0000
  4 C      6.0611     6.0000    -0.0611     3.8791     3.8791    -0.0000
  5 N      7.2472     7.0000    -0.2472     2.9960     2.9960    -0.0000
  6 C      6.1920     6.0000    -0.1920     3.7694     3.7694    -0.0000
  7 H      0.8585     1.0000     0.1415     0.9670     0.9670    -0.0000
  8 H      0.8090     1.0000     0.1910     0.9602     0.9602    -0.0000
  9 H      0.8143     1.0000     0.1857     0.9603     0.9603    -0.0000
 10 C      6.0024     6.0000    -0.0024     3.8161     3.8161    -0.0000
 11 N      7.3236     7.0000    -0.3236     2.9371     2.9371    -0.0000
 12 C      6.1920     6.0000    -0.1920     3.7694     3.7694     0.0000
 13 H      0.8585     1.0000     0.1415     0.9670     0.9670     0.0000
 14 H      0.8143     1.0000     0.1857     0.9603     0.9603    -0.0000
 15 H      0.8090     1.0000     0.1910     0.9602     0.9602    -0.0000
 16 C      6.0024     6.0000    -0.0024     3.8161     3.8161     0.0000
 17 N      7.3236     7.0000    -0.3236     2.9371     2.9371     0.0000
 18 C      6.1830     6.0000    -0.1830     3.7919     3.7919    -0.0000
 19 H      0.8515     1.0000     0.1485     0.9633     0.9633    -0.0000
 20 H      0.8064     1.0000     0.1936     0.9616     0.9616     0.0000
 21 H      0.8510     1.0000     0.1490     0.9633     0.9633    -0.0000
 22 C      6.0611     6.0000    -0.0611     3.8791     3.8791     0.0000
 23 N      7.2472     7.0000    -0.2472     2.9960     2.9960    -0.0000

  Mayer bond orders larger than 0.100000
B(  0-C ,  1-H ) :   0.9639 B(  0-C ,  2-H ) :   0.9641 B(  0-C ,  3-H ) :   0.9528 
B(  0-C ,  4-C ) :   0.9245 B(  4-C ,  5-N ) :   2.9645 B(  6-C ,  7-H ) :   0.9598 
B(  6-C ,  8-H ) :   0.9532 B(  6-C ,  9-H ) :   0.9552 B(  6-C , 10-C ) :   0.9207 
B( 10-C , 11-N ) :   2.8959 B( 12-C , 13-H ) :   0.9598 B( 12-C , 14-H ) :   0.9552 
B( 12-C , 15-H ) :   0.9532 B( 12-C , 16-C ) :   0.9207 B( 16-C , 17-N ) :   2.8959 
B( 18-C , 19-H ) :   0.9639 B( 18-C , 20-H ) :   0.9528 B( 18-C , 21-H ) :   0.9641 
B( 18-C , 22-C ) :   0.9245 B( 22-C , 23-N ) :   2.9645 

-------
TIMINGS
-------

Total SCF time: 0 days 0 hours 1 min 8 sec 

Total time                  ....      68.761 sec
Sum of individual times     ....      68.169 sec  ( 99.1%)

Fock matrix formation       ....      65.265 sec  ( 94.9%)
Diagonalization             ....       0.862 sec  (  1.3%)
Density matrix formation    ....       0.226 sec  (  0.3%)
Population analysis         ....       0.157 sec  (  0.2%)
Initial guess               ....       0.314 sec  (  0.5%)
Orbital Transformation      ....       0.000 sec  (  0.0%)
Orbital Orthonormalization  ....       0.000 sec  (  0.0%)
DIIS solution               ....       0.413 sec  (  0.6%)
SOSCF solution              ....       0.803 sec  (  1.2%)


           ************************************************************
           *        Program running with 12 parallel MPI-processes    *
           *              working on a common directory               *
           ************************************************************

------------------------------------------------------------------------------
                                ORCA  MP2 
------------------------------------------------------------------------------

Freezing NCore=24 chemical core electrons
MP2 will be done in the AO integral direct mode
The Q1-step will be done using symmetric double matrices
Dimension of the basis                    ...  444
Memory devoted for MP2                    ... 8000 MB   
Memory needed for all in one shot         ... 1005 MB
Number of MOs that can be treated together...   22      
MP2 density construction                  ... relaxed
The MP2 gradient is requested => amplitudes will be stored on disk
Total number of MOs              ...   32
Number of MOs treated per batch  ...    3 
Number of batches necessary      ...    1 
OPERATORS   0/  0 PASS   0
-----------------------------------------------
 MP2 CORRELATION ENERGY   :     -2.043225651 Eh
-----------------------------------------------


---------------------
MP2 DENSITY FORMATION
---------------------

Completing the external part of the density      ... done
Storing the unrelaxed density                    ... done

Calculating G(D)                                 ... done
Completing the Lagrangian                        ... done
Solving the Z-vector equations                   ... 

------------------------------------------------------------------------------
                           ORCA CP-SCF CALCULATION
------------------------------------------------------------------------------

Input orbitals are from        ... 4mecn.malloum.etal.4-orca.engrad-mp2.def2tzvp.gbw
Input Perturbation             ... 4mecn.malloum.etal.4-orca.engrad-mp2.def2tzvp.pin.tmp
Wavefunction output            ... 4mecn.malloum.etal.4-orca.engrad-mp2.def2tzvp.pout.tmp
Perturbation mode              ... Real perturbation (singlet)
Solver                         ... POPLE
Max. number of iterations      ... 128
Convergence tolerance          ... 1.000e-08
Integral handling              ... Direct
Number of perturbations        ... 1
Number of operators            ... 1
Orbital ranges used for CP-SCF:
 Operator 0:  Orbitals   0... 43  to  44...443
Variables per vector in CP-SCF ... 17600
Number of vectors sought       ... 1
     CP-SCF ITERATION   0: 
     CP-SCF ITERATION   1:      0.002115299806
     CP-SCF ITERATION   2:      0.000352006860
     CP-SCF ITERATION   3:      0.000021117759
     CP-SCF ITERATION   4:      0.000005289762
     CP-SCF ITERATION   5:      0.000002070862
     CP-SCF ITERATION   6:      0.000000169412
     CP-SCF ITERATION   7:      0.000000013191
     CP-SCF ITERATION   8:      0.000000000798
                                                 ... done
Finalizing the relaxed density                   ... done
Transforming P to the AO basis                   ... done
Storing the relaxed density                      ... done

------------------------------------
ENERGY WEIGHTED DENSITY FINALIZATION
------------------------------------

Gathering the parts of the W-matrix              ...                                                      done
Forming the Z-density                            ... done
Transforming Z to the AO basis                   ... done
Calculating G(Z)                                 ... done
Finalizing the W-matrix                          ...                                                      done
Transforming W to the AO basis and storing       ... done

                *********************************************
                * UNRELAXED MP2 DENSITY POPULATION ANALYSIS *
                *********************************************

------------------------------------------------------------------------------
                           ORCA POPULATION ANALYSIS
------------------------------------------------------------------------------
Input electron density              ... 4mecn.malloum.etal.4-orca.engrad-mp2.def2tzvp.pmp2ur
BaseName (.gbw .S,...)              ... 4mecn.malloum.etal.4-orca.engrad-mp2.def2tzvp

                    ********************************
                    * MULLIKEN POPULATION ANALYSIS *
                    ********************************

-----------------------
MULLIKEN ATOMIC CHARGES
-----------------------
   0 C :   -0.195446
   1 H :    0.151204
   2 H :    0.151663
   3 H :    0.195370
   4 C :   -0.071198
   5 N :   -0.231843
   6 C :   -0.203786
   7 H :    0.144344
   8 H :    0.193029
   9 H :    0.187671
  10 C :   -0.014098
  11 N :   -0.306909
  12 C :   -0.203787
  13 H :    0.144344
  14 H :    0.187671
  15 H :    0.193028
  16 C :   -0.014098
  17 N :   -0.306909
  18 C :   -0.195446
  19 H :    0.151204
  20 H :    0.195370
  21 H :    0.151662
  22 C :   -0.071198
  23 N :   -0.231842
Sum of atomic charges:   -0.0000000

--------------------------------
MULLIKEN REDUCED ORBITAL CHARGES
--------------------------------
  0 C s       :     3.157709  s :     3.157709
      pz      :     1.057378  p :     2.943369
      px      :     1.096607
      py      :     0.789385
      dz2     :     0.014646  d :     0.087028
      dxz     :     0.018961
      dyz     :     0.017329
      dx2y2   :     0.019086
      dxy     :     0.017006
      f0      :     0.000760  f :     0.007339
      f+1     :     0.001271
      f-1     :     0.001096
      f+2     :     0.001220
      f-2     :     0.000708
      f+3     :     0.000846
      f-3     :     0.001437
  1 H s       :     0.823617  s :     0.823617
      pz      :     0.012171  p :     0.025178
      px      :     0.005929
      py      :     0.007078
  2 H s       :     0.823155  s :     0.823155
      pz      :     0.010888  p :     0.025182
      px      :     0.009509
      py      :     0.004785
  3 H s       :     0.778897  s :     0.778897
      pz      :     0.005437  p :     0.025733
      px      :     0.014402
      py      :     0.005894
  4 C s       :     3.248407  s :     3.248407
      pz      :     0.874101  p :     2.672113
      px      :     0.852715
      py      :     0.945297
      dz2     :     0.012164  d :     0.130527
      dxz     :     0.007085
      dyz     :     0.043092
      dx2y2   :     0.023593
      dxy     :     0.044594
      f0      :     0.002369  f :     0.020151
      f+1     :     0.000597
      f-1     :     0.002761
      f+2     :     0.003979
      f-2     :     0.001164
      f+3     :     0.006000
      f-3     :     0.003281
  5 N s       :     3.719067  s :     3.719067
      pz      :     1.080860  p :     3.430725
      px      :     1.089316
      py      :     1.260549
      dz2     :     0.008817  d :     0.076341
      dxz     :     0.005685
      dyz     :     0.024003
      dx2y2   :     0.013336
      dxy     :     0.024500
      f0      :     0.000712  f :     0.005711
      f+1     :     0.000361
      f-1     :     0.000811
      f+2     :     0.001024
      f-2     :     0.000515
      f+3     :     0.001416
      f-3     :     0.000871
  6 C s       :     3.164518  s :     3.164518
      pz      :     1.078404  p :     2.945382
      px      :     1.099773
      py      :     0.767205
      dz2     :     0.014849  d :     0.086539
      dxz     :     0.018221
      dyz     :     0.017133
      dx2y2   :     0.020768
      dxy     :     0.015568
      f0      :     0.001117  f :     0.007347
      f+1     :     0.000634
      f-1     :     0.001237
      f+2     :     0.001468
      f-2     :     0.000626
      f+3     :     0.000853
      f-3     :     0.001412
  7 H s       :     0.830347  s :     0.830347
      pz      :     0.013509  p :     0.025309
      px      :     0.004973
      py      :     0.006827
  8 H s       :     0.781374  s :     0.781374
      pz      :     0.007082  p :     0.025598
      px      :     0.012780
      py      :     0.005736
  9 H s       :     0.786768  s :     0.786768
      pz      :     0.007888  p :     0.025561
      px      :     0.012864
      py      :     0.004808
 10 C s       :     3.259644  s :     3.259644
      pz      :     0.853201  p :     2.602629
      px      :     0.825927
      py      :     0.923501
      dz2     :     0.010437  d :     0.131675
      dxz     :     0.006159
      dyz     :     0.046125
      dx2y2   :     0.022859
      dxy     :     0.046095
      f0      :     0.002612  f :     0.020149
      f+1     :     0.000632
      f-1     :     0.002284
      f+2     :     0.004228
      f-2     :     0.000892
      f+3     :     0.006293
      f-3     :     0.003208
 11 N s       :     3.750392  s :     3.750392
      pz      :     1.098462  p :     3.475000
      px      :     1.122285
      py      :     1.254253
      dz2     :     0.008134  d :     0.075792
      dxz     :     0.005506
      dyz     :     0.024447
      dx2y2   :     0.012862
      dxy     :     0.024842
      f0      :     0.000770  f :     0.005725
      f+1     :     0.000375
      f-1     :     0.000722
      f+2     :     0.001070
      f-2     :     0.000468
      f+3     :     0.001468
      f-3     :     0.000850
 12 C s       :     3.164518  s :     3.164518
      pz      :     1.078404  p :     2.945382
      px      :     1.099773
      py      :     0.767205
      dz2     :     0.014849  d :     0.086539
      dxz     :     0.018221
      dyz     :     0.017133
      dx2y2   :     0.020768
      dxy     :     0.015568
      f0      :     0.001117  f :     0.007347
      f+1     :     0.000634
      f-1     :     0.001237
      f+2     :     0.001468
      f-2     :     0.000626
      f+3     :     0.000853
      f-3     :     0.001412
 13 H s       :     0.830348  s :     0.830348
      pz      :     0.013509  p :     0.025309
      px      :     0.004973
      py      :     0.006827
 14 H s       :     0.786768  s :     0.786768
      pz      :     0.007888  p :     0.025561
      px      :     0.012864
      py      :     0.004808
 15 H s       :     0.781374  s :     0.781374
      pz      :     0.007082  p :     0.025598
      px      :     0.012779
      py      :     0.005736
 16 C s       :     3.259644  s :     3.259644
      pz      :     0.853201  p :     2.602630
      px      :     0.825927
      py      :     0.923501
      dz2     :     0.010437  d :     0.131676
      dxz     :     0.006159
      dyz     :     0.046125
      dx2y2   :     0.022859
      dxy     :     0.046095
      f0      :     0.002612  f :     0.020149
      f+1     :     0.000632
      f-1     :     0.002284
      f+2     :     0.004228
      f-2     :     0.000892
      f+3     :     0.006293
      f-3     :     0.003208
 17 N s       :     3.750392  s :     3.750392
      pz      :     1.098462  p :     3.475000
      px      :     1.122285
      py      :     1.254254
      dz2     :     0.008134  d :     0.075792
      dxz     :     0.005506
      dyz     :     0.024447
      dx2y2   :     0.012862
      dxy     :     0.024842
      f0      :     0.000770  f :     0.005725
      f+1     :     0.000375
      f-1     :     0.000722
      f+2     :     0.001070
      f-2     :     0.000468
      f+3     :     0.001468
      f-3     :     0.000850
 18 C s       :     3.157709  s :     3.157709
      pz      :     1.057378  p :     2.943369
      px      :     1.096607
      py      :     0.789385
      dz2     :     0.014646  d :     0.087028
      dxz     :     0.018961
      dyz     :     0.017329
      dx2y2   :     0.019086
      dxy     :     0.017006
      f0      :     0.000760  f :     0.007339
      f+1     :     0.001271
      f-1     :     0.001096
      f+2     :     0.001220
      f-2     :     0.000708
      f+3     :     0.000846
      f-3     :     0.001437
 19 H s       :     0.823617  s :     0.823617
[...]
                     * LOEWDIN POPULATION ANALYSIS *
                     *******************************

----------------------
LOEWDIN ATOMIC CHARGES
----------------------
   0 C :   -0.281886
   1 H :    0.149433
   2 H :    0.149463
   3 H :    0.154605
   4 C :   -0.205928
   5 N :    0.033646
   6 C :   -0.279722
   7 H :    0.150842
   8 H :    0.154529
   9 H :    0.153096
  10 C :   -0.195984
  11 N :    0.017905
  12 C :   -0.279722
  13 H :    0.150843
  14 H :    0.153096
  15 H :    0.154529
  16 C :   -0.195984
  17 N :    0.017905
  18 C :   -0.281886
  19 H :    0.149432
  20 H :    0.154606
  21 H :    0.149463
  22 C :   -0.205928
  23 N :    0.033647

-------------------------------
LOEWDIN REDUCED ORBITAL CHARGES
-------------------------------
  0 C s       :     2.820614  s :     2.820614
      pz      :     1.061378  p :     3.159697
      px      :     1.071997
      py      :     1.026323
      dz2     :     0.036035  d :     0.271114
      dxz     :     0.043256
      dyz     :     0.066868
      dx2y2   :     0.062687
      dxy     :     0.062268
      f0      :     0.003023  f :     0.030461
      f+1     :     0.003063
      f-1     :     0.005395
      f+2     :     0.004770
      f-2     :     0.002491
      f+3     :     0.005731
      f-3     :     0.005987
  1 H s       :     0.784512  s :     0.784512
      pz      :     0.032035  p :     0.066055
      px      :     0.016924
      py      :     0.017096
  2 H s       :     0.784479  s :     0.784479
      pz      :     0.028080  p :     0.066058
      px      :     0.025365
      py      :     0.012613
  3 H s       :     0.776998  s :     0.776998
      pz      :     0.015527  p :     0.068397
      px      :     0.037751
      py      :     0.015119
  4 C s       :     2.844869  s :     2.844869
      pz      :     0.846265  p :     2.844058
      px      :     0.839695
      py      :     1.158098
      dz2     :     0.047347  d :     0.450371
      dxz     :     0.011188
      dyz     :     0.135354
      dx2y2   :     0.121385
      dxy     :     0.135096
      f0      :     0.007002  f :     0.066629
      f+1     :     0.001257
      f-1     :     0.010813
      f+2     :     0.012142
      f-2     :     0.002453
      f+3     :     0.017324
      f-3     :     0.015639
  5 N s       :     3.298727  s :     3.298727
      pz      :     1.033674  p :     3.511752
      px      :     1.024065
      py      :     1.454013
      dz2     :     0.017716  d :     0.136440
      dxz     :     0.006028
      dyz     :     0.036625
      dx2y2   :     0.040027
      dxy     :     0.036044
      f0      :     0.002048  f :     0.019434
      f+1     :     0.000552
      f-1     :     0.003257
      f+2     :     0.003388
      f-2     :     0.000850
      f+3     :     0.004664
      f-3     :     0.004676
  6 C s       :     2.820526  s :     2.820526
      pz      :     1.066239  p :     3.160934
      px      :     1.073472
      py      :     1.021223
      dz2     :     0.036305  d :     0.267890
      dxz     :     0.037988
      dyz     :     0.067891
      dx2y2   :     0.067951
      dxy     :     0.057755
      f0      :     0.004177  f :     0.030372
      f+1     :     0.001171
      f-1     :     0.005603
      f+2     :     0.005210
      f-2     :     0.002305
      f+3     :     0.006015
      f-3     :     0.005891
  7 H s       :     0.783087  s :     0.783087
      pz      :     0.035044  p :     0.066070
      px      :     0.014591
      py      :     0.016435
  8 H s       :     0.777352  s :     0.777352
      pz      :     0.019766  p :     0.068119
      px      :     0.033721
      py      :     0.014632
  9 H s       :     0.778973  s :     0.778973
      pz      :     0.021702  p :     0.067931
      px      :     0.033494
      py      :     0.012735
 10 C s       :     2.845281  s :     2.845281
      pz      :     0.832063  p :     2.826564
      px      :     0.830086
      py      :     1.164415
      dz2     :     0.044729  d :     0.457220
      dxz     :     0.008525
      dyz     :     0.140658
      dx2y2   :     0.123889
      dxy     :     0.139418
      f0      :     0.007347  f :     0.066919
      f+1     :     0.001378
      f-1     :     0.010212
      f+2     :     0.012237
      f-2     :     0.001608
      f+3     :     0.018093
      f-3     :     0.016043
 11 N s       :     3.294673  s :     3.294673
      pz      :     1.038676  p :     3.533275
      px      :     1.031723
      py      :     1.462875
      dz2     :     0.017409  d :     0.134911
      dxz     :     0.005581
      dyz     :     0.035488
      dx2y2   :     0.040540
      dxy     :     0.035893
      f0      :     0.002072  f :     0.019237
      f+1     :     0.000582
      f-1     :     0.003153
      f+2     :     0.003275
      f-2     :     0.000633
      f+3     :     0.004727
      f-3     :     0.004796
 12 C s       :     2.820527  s :     2.820527
      pz      :     1.066239  p :     3.160934
      px      :     1.073472
      py      :     1.021223
      dz2     :     0.036306  d :     0.267890
      dxz     :     0.037988
      dyz     :     0.067891
      dx2y2   :     0.067951
      dxy     :     0.057755
      f0      :     0.004177  f :     0.030372
      f+1     :     0.001171
      f-1     :     0.005603
      f+2     :     0.005210
      f-2     :     0.002305
      f+3     :     0.006015
      f-3     :     0.005891
 13 H s       :     0.783087  s :     0.783087
      pz      :     0.035044  p :     0.066070
      px      :     0.014591
      py      :     0.016435
 14 H s       :     0.778973  s :     0.778973
      pz      :     0.021702  p :     0.067931
      px      :     0.033494
      py      :     0.012735
 15 H s       :     0.777352  s :     0.777352
      pz      :     0.019766  p :     0.068119
      px      :     0.033721
      py      :     0.014632
 16 C s       :     2.845281  s :     2.845281
      pz      :     0.832063  p :     2.826564
      px      :     0.830086
      py      :     1.164415
      dz2     :     0.044729  d :     0.457220
      dxz     :     0.008525
      dyz     :     0.140658
      dx2y2   :     0.123890
      dxy     :     0.139418
      f0      :     0.007347  f :     0.066919
      f+1     :     0.001378
      f-1     :     0.010212
      f+2     :     0.012237
      f-2     :     0.001608
      f+3     :     0.018093
      f-3     :     0.016043
 17 N s       :     3.294673  s :     3.294673
      pz      :     1.038676  p :     3.533275
      px      :     1.031723
      py      :     1.462875
      dz2     :     0.017409  d :     0.134911
      dxz     :     0.005581
      dyz     :     0.035488
      dx2y2   :     0.040540
      dxy     :     0.035893
      f0      :     0.002072  f :     0.019237
      f+1     :     0.000582
      f-1     :     0.003153
      f+2     :     0.003275
      f-2     :     0.000633
      f+3     :     0.004727
      f-3     :     0.004796
 18 C s       :     2.820614  s :     2.820614
      pz      :     1.061378  p :     3.159697
      px      :     1.071996
      py      :     1.026323
      dz2     :     0.036035  d :     0.271114
      dxz     :     0.043256
      dyz     :     0.066868
      dx2y2   :     0.062687
      dxy     :     0.062269
      f0      :     0.003023  f :     0.030461
      f+1     :     0.003063
      f-1     :     0.005395
      f+2     :     0.004770
      f-2     :     0.002491
      f+3     :     0.005731
      f-3     :     0.005988
 19 H s       :     0.784512  s :     0.784512
      pz      :     0.032035  p :     0.066055
      px      :     0.016924
      py      :     0.017096
 20 H s       :     0.776997  s :     0.776997
      pz      :     0.015527  p :     0.068397
      px      :     0.037751
      py      :     0.015119
 21 H s       :     0.784479  s :     0.784479
      pz      :     0.028080  p :     0.066058
      px      :     0.025365
      py      :     0.012613
 22 C s       :     2.844868  s :     2.844868
      pz      :     0.846265  p :     2.844058
      px      :     0.839696
      py      :     1.158098
      dz2     :     0.047347  d :     0.450371
      dxz     :     0.011189
      dyz     :     0.135354
      dx2y2   :     0.121385
      dxy     :     0.135096
      f0      :     0.007002  f :     0.066629
      f+1     :     0.001257
      f-1     :     0.010813
      f+2     :     0.012142
      f-2     :     0.002453
      f+3     :     0.017324
      f-3     :     0.015639
 23 N s       :     3.298727  s :     3.298727
      pz      :     1.033674  p :     3.511752
      px      :     1.024065
      py      :     1.454013
      dz2     :     0.017716  d :     0.136440
      dxz     :     0.006028
      dyz     :     0.036625
      dx2y2   :     0.040027
      dxy     :     0.036044
      f0      :     0.002048  f :     0.019434
      f+1     :     0.000552
      f-1     :     0.003257
      f+2     :     0.003388
      f-2     :     0.000850
      f+3     :     0.004664
      f-3     :     0.004676


                      *****************************
                      * MAYER POPULATION ANALYSIS *
                      *****************************

  NA   - Mulliken gross atomic population
  ZA   - Total nuclear charge
  QA   - Mulliken gross atomic charge
  VA   - Mayer's total valence
  BVA  - Mayer's bonded valence
  FA   - Mayer's free valence

  ATOM       NA         ZA         QA         VA         BVA        FA
  0 C      6.2895     6.0000    -0.2895     3.9137     3.6305     0.2832
  1 H      0.8340     1.0000     0.1660     0.9648     0.9175     0.0473
  2 H      0.8337     1.0000     0.1663     0.9647     0.9174     0.0473
  3 H      0.7990     1.0000     0.2010     0.9716     0.9250     0.0466
  4 C      6.1090     6.0000    -0.1090     4.0970     3.6740     0.4230
  5 N      7.1353     7.0000    -0.1353     3.3095     2.8342     0.4753
  6 C      6.2921     6.0000    -0.2921     3.8946     3.6105     0.2841
  7 H      0.8393     1.0000     0.1607     0.9679     0.9201     0.0478
  8 H      0.8003     1.0000     0.1997     0.9689     0.9224     0.0465
  9 H      0.8062     1.0000     0.1938     0.9697     0.9228     0.0469
 10 C      6.0575     6.0000    -0.0575     4.0225     3.6033     0.4192
 11 N      7.2040     7.0000    -0.2040     3.2594     2.7769     0.4825
 12 C      6.2921     6.0000    -0.2921     3.8946     3.6105     0.2841
 13 H      0.8393     1.0000     0.1607     0.9679     0.9201     0.0478
 14 H      0.8062     1.0000     0.1938     0.9697     0.9228     0.0469
 15 H      0.8003     1.0000     0.1997     0.9689     0.9224     0.0465
 16 C      6.0575     6.0000    -0.0575     4.0225     3.6033     0.4192
 17 N      7.2040     7.0000    -0.2040     3.2594     2.7769     0.4825
 18 C      6.2895     6.0000    -0.2895     3.9137     3.6305     0.2832
 19 H      0.8340     1.0000     0.1660     0.9648     0.9175     0.0473
 20 H      0.7990     1.0000     0.2010     0.9716     0.9250     0.0466
 21 H      0.8337     1.0000     0.1663     0.9647     0.9174     0.0473
 22 C      6.1090     6.0000    -0.1090     4.0970     3.6740     0.4230
 23 N      7.1353     7.0000    -0.1353     3.3095     2.8342     0.4753

  Mayer bond orders larger than 0.100000
B(  0-C ,  1-H ) :   0.9168 B(  0-C ,  2-H ) :   0.9169 B(  0-C ,  3-H ) :   0.9042 
B(  0-C ,  4-C ) :   0.9005 B(  4-C ,  5-N ) :   2.7855 B(  6-C ,  7-H ) :   0.9135 
B(  6-C ,  8-H ) :   0.9042 B(  6-C ,  9-H ) :   0.9062 B(  6-C , 10-C ) :   0.8994 
B( 10-C , 11-N ) :   2.7099 B( 12-C , 13-H ) :   0.9135 B( 12-C , 14-H ) :   0.9062 
B( 12-C , 15-H ) :   0.9042 B( 12-C , 16-C ) :   0.8994 B( 16-C , 17-N ) :   2.7099 
B( 18-C , 19-H ) :   0.9168 B( 18-C , 20-H ) :   0.9042 B( 18-C , 21-H ) :   0.9169 
B( 18-C , 22-C ) :   0.9005 B( 22-C , 23-N ) :   2.7855 


----------------------------------
MP2 DERIVATIVE INTEGRAL GENERATION
----------------------------------


Input Wavefunction Amplitudes       ... 4mecn.malloum.etal.4-orca.engrad-mp2.def2tzvp.mp2tsaa.tmp
Input Correlated Electron Density   ... 4mecn.malloum.etal.4-orca.engrad-mp2.def2tzvp.pmp2re
Input Energy Weighted Density       ... 4mecn.malloum.etal.4-orca.engrad-mp2.def2tzvp.wmp2.tmp
Input SCF Electron Density          ... 4mecn.malloum.etal.4-orca.engrad-mp2.def2tzvp.scfp

One-Electron Terms    ...
                        ... One-Electron Terms done
Prescreening matrices              ... done

Batch handling in the gradient evaluation:
Memory available                      ... 8000.0 MB
Memory per occupied orbital in Q2     ...   48.1 MB
Memory per occupied orbital in Q3     ...    0.2 MB
Total memory requirement per |i>      ...   48.3 MB
Max. Number of orbitals possible      ...    165
Number of orbitals treated per batch  ...     32
Number of batches to be done          ...      1
Batch   0: i=   12 ...    43

---------------------------------------
MP2 TOTAL ENERGY:     -529.960254552 Eh
---------------------------------------

The final MP2 gradient
  0:   0.00055108  -0.00029792   0.00007039
  1:   0.00073294  -0.00138043   0.00195552
  2:   0.00154190  -0.00066122  -0.00185309
  3:  -0.00209049  -0.00116314  -0.00067512
  4:  -0.00188880   0.01824047   0.00303115
  5:   0.00175812  -0.01491541  -0.00244345
  6:  -0.00007286   0.00059185  -0.00025294
  7:  -0.00018064   0.00127266  -0.00203342
  8:   0.00189150   0.00108729   0.00118996
  9:  -0.00192936   0.00077386   0.00136815
 10:   0.00143626  -0.01760648  -0.00191474
 11:  -0.00121891   0.01432341   0.00144524
 12:   0.00007234  -0.00059155   0.00025265
 13:   0.00018071  -0.00127274   0.00203368
 14:   0.00192971  -0.00077401  -0.00136825
 15:  -0.00189138  -0.00108727  -0.00118990
 16:  -0.00143634   0.01760689   0.00191487
 17:   0.00121897  -0.01432391  -0.00144530
 18:  -0.00055168   0.00029793  -0.00007078
 19:  -0.00073295   0.00138038  -0.00195537
 20:   0.00209092   0.00116336   0.00067539
 21:  -0.00154169   0.00066115   0.00185295
 22:   0.00188888  -0.01824160  -0.00303115
 23:  -0.00175824   0.01491643   0.00244356

-----------------------------------
NORM OF THE MP2 GRADIENT:  0.047732
-----------------------------------

-------------------------   --------------------
FINAL SINGLE POINT ENERGY      -529.960254552474
-------------------------   --------------------


                            ***************************************
                            *     ORCA property calculations      *
                            ***************************************

                                    ---------------------
                                    Active property flags
                                    ---------------------
   (+) Dipole Moment


------------------------------------------------------------------------------
                       ORCA ELECTRIC PROPERTIES CALCULATION
------------------------------------------------------------------------------

Dipole Moment Calculation                       ... on
Quadrupole Moment Calculation                   ... off
Polarizability Calculation                      ... off
GBWName                                         ... 4mecn.malloum.etal.4-orca.engrad-mp2.def2tzvp.gbw
Electron density file                           ... 4mecn.malloum.etal.4-orca.engrad-mp2.def2tzvp.scfp
The origin for moment calculation is the CENTER OF MASS  = ( 0.000000,  0.000000 -0.000000)

-------------
DIPOLE MOMENT
-------------
                                X             Y             Z
Electronic contribution:      0.00000       0.00000      -0.00001
Nuclear contribution   :     -0.00001      -0.00000       0.00001
                        -----------------------------------------
Total Dipole Moment    :     -0.00000      -0.00000       0.00000
                        -----------------------------------------
Magnitude (a.u.)       :      0.00001
Magnitude (Debye)      :      0.00001



--------------------
Rotational spectrum 
--------------------
 
Rotational constants in cm-1:     0.062779     0.007795     0.007113 
Rotational constants in MHz :  1882.069521   233.673956   213.252125 

 Dipole components along the rotational axes: 
x,y,z [a.u.] :    -0.000005     0.000000     0.000003 
x,y,z [Debye]:    -0.000012     0.000001     0.000007 

 

                         *** MP2 UNRELAXED DENSITY ***

------------------------------------------------------------------------------
                       ORCA ELECTRIC PROPERTIES CALCULATION
------------------------------------------------------------------------------

Dipole Moment Calculation                       ... on
Quadrupole Moment Calculation                   ... off
Polarizability Calculation                      ... off
GBWName                                         ... 4mecn.malloum.etal.4-orca.engrad-mp2.def2tzvp.gbw
Electron density file                           ... 4mecn.malloum.etal.4-orca.engrad-mp2.def2tzvp.pmp2ur
The origin for moment calculation is the CENTER OF MASS  = ( 0.000000,  0.000000 -0.000000)

-------------
DIPOLE MOMENT
-------------
                                X             Y             Z
Electronic contribution:      0.00000       0.00000      -0.00001
Nuclear contribution   :     -0.00001      -0.00000       0.00001
                        -----------------------------------------
Total Dipole Moment    :     -0.00000      -0.00000       0.00000
                        -----------------------------------------
Magnitude (a.u.)       :      0.00001
Magnitude (Debye)      :      0.00001



--------------------
Rotational spectrum 
--------------------
 
Rotational constants in cm-1:     0.062779     0.007795     0.007113 
Rotational constants in MHz :  1882.069521   233.673956   213.252125 

 Dipole components along the rotational axes: 
x,y,z [a.u.] :    -0.000005     0.000000     0.000003 
x,y,z [Debye]:    -0.000012     0.000001     0.000006 

 

                           *** MP2 RELAXED DENSITY ***

------------------------------------------------------------------------------
                       ORCA ELECTRIC PROPERTIES CALCULATION
------------------------------------------------------------------------------

Dipole Moment Calculation                       ... on
Quadrupole Moment Calculation                   ... off
Polarizability Calculation                      ... off
GBWName                                         ... 4mecn.malloum.etal.4-orca.engrad-mp2.def2tzvp.gbw
Electron density file                           ... 4mecn.malloum.etal.4-orca.engrad-mp2.def2tzvp.pmp2re
The origin for moment calculation is the CENTER OF MASS  = ( 0.000000,  0.000000 -0.000000)

-------------
DIPOLE MOMENT
-------------
                                X             Y             Z
Electronic contribution:      0.00000       0.00000      -0.00001
Nuclear contribution   :     -0.00001      -0.00000       0.00001
                        -----------------------------------------
Total Dipole Moment    :     -0.00000      -0.00000       0.00000
                        -----------------------------------------
Magnitude (a.u.)       :      0.00000
Magnitude (Debye)      :      0.00001



--------------------
Rotational spectrum 
--------------------
 
Rotational constants in cm-1:     0.062779     0.007795     0.007113 
Rotational constants in MHz :  1882.069521   233.673956   213.252125 

 Dipole components along the rotational axes: 
x,y,z [a.u.] :    -0.000004     0.000000     0.000002 
x,y,z [Debye]:    -0.000011     0.000001     0.000006 

 

Timings for individual modules:

Sum of individual times         ...      496.910 sec (=   8.282 min)
GTO integral calculation        ...        3.093 sec (=   0.052 min)   0.6 %
SCF iterations                  ...       71.473 sec (=   1.191 min)  14.4 %
MP2 module                      ...      422.343 sec (=   7.039 min)  85.0 %
                             ****ORCA TERMINATED NORMALLY****
TOTAL RUN TIME: 0 days 0 hours 8 minutes 20 seconds 61 msec
