
                                 *****************
                                 * O   R   C   A *
                                 *****************

           --- An Ab Initio, DFT and Semiempirical electronic structure package ---

                  #######################################################
                  #                        -***-                        #
                  #          Department of theory and spectroscopy      #
                  #               Directorship: Frank Neese             #
                  #        Max Planck Institute fuer Kohlenforschung    #
                  #                Kaiser Wilhelm Platz 1               #
                  #                 D-45470 Muelheim/Ruhr               #
                  #                      Germany                        #
                  #                                                     #
                  #                  All rights reserved                #
                  #                        -***-                        #
                  #######################################################


                         Program Version 4.2.0 -  RELEASE  -


 With contributions from (in alphabetic order):
   Daniel Aravena         : Magnetic Suceptibility
   Michael Atanasov       : Ab Initio Ligand Field Theory (pilot matlab implementation)
   Alexander A. Auer      : GIAO ZORA, VPT2
   Ute Becker             : Parallelization
   Giovanni Bistoni       : ED, misc. LED, open-shell LED, HFLED
   Martin Brehm           : Molecular dynamics
   Dmytro Bykov           : SCF Hessian
   Vijay G. Chilkuri      : MRCI spin determinant printing, contributions to CSF-ICE
   Dipayan Datta          : RHF DLPNO-CCSD density
   Achintya Kumar Dutta   : EOM-CC, STEOM-CC
   Dmitry Ganyushin       : Spin-Orbit,Spin-Spin,Magnetic field MRCI
   Miquel Garcia          : C-PCM Hessian, Gaussian charge scheme
   Yang Guo               : DLPNO-NEVPT2, CIM, IAO-localization
   Andreas Hansen         : Spin unrestricted coupled pair/coupled cluster methods
   Benjamin Helmich-Paris : CASSCF linear response (MC-RPA)
   Lee Huntington         : MR-EOM, pCC
   Robert Izsak           : Overlap fitted RIJCOSX, COSX-SCS-MP3, EOM
   Christian Kollmar      : KDIIS, OOCD, Brueckner-CCSD(T), CCSD density
   Simone Kossmann        : Meta GGA functionals, TD-DFT gradient, OOMP2, MP2 Hessian
   Martin Krupicka        : AUTO-CI
   Lucas Lang             : DCDCAS
   Dagmar Lenk            : GEPOL surface, SMD
   Dimitrios Liakos       : Extrapolation schemes; Compound Job, initial MDCI parallelization
   Dimitrios Manganas     : Further ROCIS development; embedding schemes
   Dimitrios Pantazis     : SARC Basis sets
   Taras Petrenko         : DFT Hessian,TD-DFT gradient, ASA, ECA, R-Raman, ABS, FL, XAS/XES, NRVS
   Peter Pinski           : DLPNO-MP2, DLPNO-MP2 Gradient
   Christoph Reimann      : Effective Core Potentials
   Marius Retegan         : Local ZFS, SOC
   Christoph Riplinger    : Optimizer, TS searches, QM/MM, DLPNO-CCSD(T), (RO)-DLPNO pert. Triples
   Tobias Risthaus        : Range-separated hybrids, TD-DFT gradient, RPA, STAB
   Michael Roemelt        : Original ROCIS implementation
   Masaaki Saitow         : Open-shell DLPNO-CCSD energy and density
   Barbara Sandhoefer     : DKH picture change effects
   Avijit Sen             : IP-ROCIS
   Kantharuban Sivalingam : CASSCF convergence, NEVPT2, FIC-MRCI
   Bernardo de Souza      : ESD, SOC TD-DFT
   Georgi Stoychev        : AutoAux, RI-MP2 NMR
   Willem Van den Heuvel  : Paramagnetic NMR
   Boris Wezisla          : Elementary symmetry handling
   Frank Wennmohs         : Technical directorship


 We gratefully acknowledge several colleagues who have allowed us to
 interface, adapt or use parts of their codes:
   Stefan Grimme, W. Hujo, H. Kruse,             : VdW corrections, initial TS optimization,
                  C. Bannwarth                     DFT functionals, gCP, sTDA/sTD-DF
   Ed Valeev, F. Pavosevic, A. Kumar             : LibInt (2-el integral package), F12 methods
   Garnet Chan, S. Sharma, J. Yang, R. Olivares  : DMRG
   Ulf Ekstrom                                   : XCFun DFT Library
   Mihaly Kallay                                 : mrcc  (arbitrary order and MRCC methods)
   Andreas Klamt, Michael Diedenhofen            : otool_cosmo (COSMO solvation model)
   Jiri Pittner, Ondrej Demel                    : Mk-CCSD
   Frank Weinhold                                : gennbo (NPA and NBO analysis)
   Christopher J. Cramer and Donald G. Truhlar   : smd solvation model
   Lars Goerigk                                  : TD-DFT with DH, B97 family of functionals
   V. Asgeirsson, H. Jonsson                     : NEB implementation
   FAccTs GmbH                                   : IRC, NEB, NEB-TS, Multilevel, MM, QM/MM, CI optimization
   S Lehtola, MJT Oliveira, MAL Marques          : LibXC Library


 Your calculation uses the libint2 library for the computation of 2-el integrals
 For citations please refer to: http://libint.valeyev.net

 Your ORCA version has been built with support for libXC version: 4.2.3
 For citations please refer to: https://tddft.org/programs/libxc/

 This ORCA versions uses:
   CBLAS   interface :  Fast vector & matrix operations
   LAPACKE interface :  Fast linear algebra routines
   SCALAPACK package :  Parallel linear algebra routines


----- Orbital basis set information -----
Your calculation utilizes the basis: def2-TZVP
   F. Weigend and R. Ahlrichs, Phys. Chem. Chem. Phys. 7, 3297 (2005).

================================================================================
                                        WARNINGS
                       Please study these warnings very carefully!
================================================================================


WARNING: The frozen-core approximation for MP2-gradient calculations is turned on by default.

INFO   : the flag for use of LIBINT has been found!

================================================================================
                                       INPUT FILE
================================================================================
NAME = 12h2o.su.etal.mol3,6,9-orca.engrad-mp2.def2tzvp.frozencore.inp
|  1> # 12h2o.su.etal.mol3,6,9
|  2> ! MP2 def2-TZVP EnGrad TightSCF
|  3> 
|  4> %pal
|  5>     nprocs 6
|  6> end
|  7> 
|  8> %maxcore 8000
|  9> 
| 10> %scf
| 11>     ConvForced true
| 12> end
| 13> 
| 14> *xyz 0 1
| 15> O  -1.752130000  -0.741530000  -2.896280000
| 16> H  -2.036450000  -0.920500000  -1.984040000
| 17> H  -0.921210000  -1.242140000  -2.984230000
| 18> O   1.737840000   0.885520000  -0.052730000
| 19> H   2.090180000   1.032320000   0.841890000
| 20> H   0.839590000   1.284090000  -0.017130000
| 21> O   0.741530000  -1.752130000   2.896280000
| 22> H   0.920500000  -2.036450000   1.984040000
| 23> H   1.242140000  -0.921210000   2.984230000
| 24> *
| 25> 
| 26>                          ****END OF INPUT****
================================================================================

                     *******************************
                     * Energy+Gradient Calculation *
                     *******************************

---------------------------------
CARTESIAN COORDINATES (ANGSTROEM)
---------------------------------
  O     -1.752130   -0.741530   -2.896280
  H     -2.036450   -0.920500   -1.984040
  H     -0.921210   -1.242140   -2.984230
  O      1.737840    0.885520   -0.052730
  H      2.090180    1.032320    0.841890
  H      0.839590    1.284090   -0.017130
  O      0.741530   -1.752130    2.896280
  H      0.920500   -2.036450    1.984040
  H      1.242140   -0.921210    2.984230

----------------------------
CARTESIAN COORDINATES (A.U.)
----------------------------
  NO LB      ZA    FRAG     MASS         X           Y           Z
   0 O     8.0000    0    15.999   -3.311046   -1.401289   -5.473176
   1 H     1.0000    0     1.008   -3.848333   -1.739493   -3.749292
   2 H     1.0000    0     1.008   -1.740835   -2.347304   -5.639377
   3 O     8.0000    0    15.999    3.284042    1.673390   -0.099645
   4 H     1.0000    0     1.008    3.949868    1.950802    1.590942
   5 H     1.0000    0     1.008    1.586595    2.426578   -0.032371
   6 O     8.0000    0    15.999    1.401289   -3.311046    5.473176
   7 H     1.0000    0     1.008    1.739493   -3.848333    3.749292
   8 H     1.0000    0     1.008    2.347304   -1.740835    5.639377

--------------------------------
INTERNAL COORDINATES (ANGSTROEM)
--------------------------------
 O      0   0   0     0.000000000000     0.00000000     0.00000000
 H      1   0   0     0.972136791249     0.00000000     0.00000000
 H      1   2   0     0.974050112161   103.86323780     0.00000000
 O      3   1   2     4.493459271886   101.68575021   294.91231036
 H      4   3   1     0.972645187106   152.36095241    86.08323177
 H      4   3   1     0.983350632989    71.03375508     2.82414724
 O      5   4   3     3.713830488471   105.31291199     8.09673366
 H      7   5   4     0.972136791249    68.48990828    34.02125090
 H      7   5   4     0.974050112161    39.07978501   187.38149542

---------------------------
INTERNAL COORDINATES (A.U.)
---------------------------
 O      0   0   0     0.000000000000     0.00000000     0.00000000
 H      1   0   0     1.837072300170     0.00000000     0.00000000
 H      1   2   0     1.840687952699   103.86323780     0.00000000
 O      3   1   2     8.491407417794   101.68575021   294.91231036
 H      4   3   1     1.838033029106   152.36095241    86.08323177
 H      4   3   1     1.858263389967    71.03375508     2.82414724
 O      5   4   3     7.018122531018   105.31291199     8.09673366
 H      7   5   4     1.837072300170    68.48990828    34.02125090
 H      7   5   4     1.840687952699    39.07978501   187.38149542

---------------------
BASIS SET INFORMATION
---------------------
There are 2 groups of distinct atoms

 Group   1 Type O   : 11s6p2d1f contracted to 5s3p2d1f pattern {62111/411/11/1}
 Group   2 Type H   : 5s1p contracted to 3s1p pattern {311/1}

Atom   0O    basis set group =>   1
Atom   1H    basis set group =>   2
Atom   2H    basis set group =>   2
Atom   3O    basis set group =>   1
Atom   4H    basis set group =>   2
Atom   5H    basis set group =>   2
Atom   6O    basis set group =>   1
Atom   7H    basis set group =>   2
Atom   8H    basis set group =>   2


           ************************************************************
           *        Program running with 6 parallel MPI-processes     *
           *              working on a common directory               *
           ************************************************************
------------------------------------------------------------------------------
                           ORCA GTO INTEGRAL CALCULATION
------------------------------------------------------------------------------

                         BASIS SET STATISTICS AND STARTUP INFO

 # of primitive gaussian shells          ...   96
 # of primitive gaussian functions       ...  186
 # of contracted shells                  ...   57
 # of contracted basis functions         ...  129
 Highest angular momentum                ...    3
 Maximum contraction depth               ...    6
 Integral package used                   ... LIBINT
 Integral threshhold            Thresh   ...  2.500e-11
 Primitive cut-off              TCut     ...  2.500e-12


------------------------------ INTEGRAL EVALUATION ----------------------------


 * One electron integrals 
 Pre-screening matrix                    ... done
 Shell pair data                         ... done (   0.000 sec)



           ************************************************************
           *        Program running with 6 parallel MPI-processes     *
           *              working on a common directory               *
           ************************************************************
-------------------------------------------------------------------------------
                                 ORCA SCF
-------------------------------------------------------------------------------

------------
SCF SETTINGS
------------
Hamiltonian:
 Ab initio Hamiltonian  Method          .... Hartree-Fock(GTOs)


General Settings:
 Integral files         IntName         .... 12h2o.su.etal.mol3,6,9-orca.engrad-mp2.def2tzvp.frozencore
 Hartree-Fock type      HFTyp           .... RHF
 Total Charge           Charge          ....    0
 Multiplicity           Mult            ....    1
 Number of Electrons    NEL             ....   30
 Basis Dimension        Dim             ....  129
 Nuclear Repulsion      ENuc            ....     60.0901995264 Eh

Convergence Acceleration:
 DIIS                   CNVDIIS         .... on
   Start iteration      DIISMaxIt       ....    12
   Startup error        DIISStart       ....  0.200000
   # of expansion vecs  DIISMaxEq       ....     5
   Bias factor          DIISBfac        ....   1.050
   Max. coefficient     DIISMaxC        ....  10.000
 Newton-Raphson         CNVNR           .... off
 SOSCF                  CNVSOSCF        .... on
   Start iteration      SOSCFMaxIt      ....   150
   Startup grad/error   SOSCFStart      ....  0.003300
 Level Shifting         CNVShift        .... on
   Level shift para.    LevelShift      ....    0.2500
   Turn off err/grad.   ShiftErr        ....    0.0010
 Zerner damping         CNVZerner       .... off
 Static damping         CNVDamp         .... on
   Fraction old density DampFac         ....    0.7000
   Max. Damping (<1)    DampMax         ....    0.9800
   Min. Damping (>=0)   DampMin         ....    0.0000
   Turn off err/grad.   DampErr         ....    0.1000
 Fernandez-Rico         CNVRico         .... off

SCF Procedure:
 Maximum # iterations   MaxIter         ....   125
 SCF integral mode      SCFMode         .... Direct
   Integral package                     .... LIBINT
 Reset frequency        DirectResetFreq ....    20
 Integral Threshold     Thresh          ....  2.500e-11 Eh
 Primitive CutOff       TCut            ....  2.500e-12 Eh

Convergence Tolerance:
 Convergence Check Mode ConvCheckMode   .... Total+1el-Energy
 Convergence forced     ConvForced      .... 1
 Energy Change          TolE            ....  1.000e-08 Eh
 1-El. energy change                    ....  1.000e-05 Eh
 Orbital Gradient       TolG            ....  1.000e-05
 Orbital Rotation angle TolX            ....  1.000e-05
 DIIS Error             TolErr          ....  5.000e-07


Diagonalization of the overlap matrix:
Smallest eigenvalue                        ... 8.436e-03
Time for diagonalization                   ...    0.003 sec
Threshold for overlap eigenvalues          ... 1.000e-08
Number of eigenvalues below threshold      ... 0
Time for construction of square roots      ...    0.001 sec
Total time needed                          ...    0.004 sec

-------------------
DFT GRID GENERATION
-------------------

General Integration Accuracy     IntAcc      ...  4.340
Radial Grid Type                 RadialGrid  ... Gauss-Chebyshev
Angular Grid (max. acc.)         AngularGrid ... Lebedev-110
Angular grid pruning method      GridPruning ... 3 (G Style)
Weight generation scheme         WeightScheme... Becke
Basis function cutoff            BFCut       ...    1.0000e-11
Integration weight cutoff        WCut        ...    1.0000e-14
Grids for H and He will be reduced by one unit

# of grid points (after initial pruning)     ...   9912 (   0.0 sec)
# of grid points (after weights+screening)   ...   9730 (   0.0 sec)
nearest neighbour list constructed           ...    0.0 sec
Grid point re-assignment to atoms done       ...    0.0 sec
Grid point division into batches done        ...    0.0 sec
Reduced shell lists constructed in    0.0 sec

Total number of grid points                  ...     9730
Total number of batches                      ...      155
Average number of points per batch           ...       62
Average number of grid points per atom       ...     1081
Average number of shells per batch           ...    26.19 (45.94%)
Average number of basis functions per batch  ...    53.00 (41.09%)
Average number of large shells per batch     ...    19.63 (74.96%)
Average number of large basis fcns per batch ...    41.33 (77.99%)
Maximum spatial batch extension              ...  16.41, 21.59, 15.40 au
Average spatial batch extension              ...   0.84,  1.03,  0.72 au

Time for grid setup =    0.020 sec

------------------------------
INITIAL GUESS: MODEL POTENTIAL
------------------------------
Loading Hartree-Fock densities                     ... done
Calculating cut-offs                               ... done
Setting up the integral package                    ... done
Initializing the effective Hamiltonian             ... done
Starting the Coulomb interaction                   ... done (   0.0 sec)
Reading the grid                                   ... done
Mapping shells                                     ... done
Starting the XC term evaluation                    ... done (   0.0 sec)
Transforming the Hamiltonian                       ... done (   0.0 sec)
Diagonalizing the Hamiltonian                      ... done (   0.0 sec)
Back transforming the eigenvectors                 ... done (   0.0 sec)
Now organizing SCF variables                       ... done
                      ------------------
                      INITIAL GUESS DONE (   0.1 sec)
                      ------------------
--------------
SCF ITERATIONS
--------------
ITER       Energy         Delta-E        Max-DP      RMS-DP      [F,P]     Damp
               ***  Starting incremental Fock matrix formation  ***
  0   -227.8683666557   0.000000000000 0.04275181  0.00142446  0.3418420 0.7000
  1   -227.9897801829  -0.121413527256 0.02815145  0.00097578  0.2158917 0.7000
                               ***Turning on DIIS***
  2   -228.0527585631  -0.062978380131 0.01601921  0.00052795  0.1638691 0.7000
  3   -228.5742965692  -0.521538006164 0.00695096  0.00022232  0.1218876 0.7000
  4   -228.4639379470   0.110358622197 0.01490152  0.00050467  0.0862144 0.0000
  5   -228.1971808718   0.266757075201 0.00174200  0.00008146  0.0053365 0.0000
                      *** Initiating the SOSCF procedure ***
                           *** Shutting down DIIS ***
                      *** Re-Reading the Fockian *** 
                      *** Removing any level shift *** 
ITER      Energy       Delta-E        Grad      Rot      Max-DP    RMS-DP
  6   -228.17812809   0.0190527863  0.000959  0.000959  0.001012  0.000047
               *** Restarting incremental Fock matrix formation ***
  7   -228.17265751   0.0054705727  0.000316  0.000450  0.000302  0.000020
  8   -228.17266135  -0.0000038367  0.000187  0.000339  0.000432  0.000017
  9   -228.17266224  -0.0000008927  0.000056  0.000046  0.000069  0.000003
 10   -228.17266232  -0.0000000755  0.000008  0.000007  0.000007  0.000000
                  ***Gradient check signals convergence***
              ***Rediagonalizing the Fockian in SOSCF/NRSCF***

               *****************************************************
               *                     SUCCESS                       *
               *           SCF CONVERGED AFTER  11 CYCLES          *
               *****************************************************


----------------
TOTAL SCF ENERGY
----------------

Total Energy       :         -228.17266232 Eh           -6208.89380 eV

Components:
Nuclear Repulsion  :           60.09019953 Eh            1635.13746 eV
Electronic Energy  :         -288.26286185 Eh           -7844.03125 eV
One Electron Energy:         -434.11197104 Eh          -11812.78728 eV
Two Electron Energy:          145.84910920 Eh            3968.75603 eV

Virial components:
Potential Energy   :         -455.98174461 Eh          -12407.89408 eV
Kinetic Energy     :          227.80908229 Eh            6199.00028 eV
Virial Ratio       :            2.00159599


---------------
SCF CONVERGENCE
---------------

  Last Energy change         ...   -1.3218e-09  Tolerance :   1.0000e-08
  Last MAX-Density change    ...    2.9617e-06  Tolerance :   1.0000e-07
  Last RMS-Density change    ...    1.5850e-07  Tolerance :   5.0000e-09
  Last Orbital Gradient      ...    2.0367e-06  Tolerance :   1.0000e-05
  Last Orbital Rotation      ...    2.8259e-06  Tolerance :   1.0000e-05

             **** THE GBW FILE WAS UPDATED (12h2o.su.etal.mol3,6,9-orca.engrad-mp2.def2tzvp.frozencore.gbw) ****
             **** DENSITY FILE WAS UPDATED (12h2o.su.etal.mol3,6,9-orca.engrad-mp2.def2tzvp.frozencore.scfp) ****
             **** ENERGY FILE WAS UPDATED (12h2o.su.etal.mol3,6,9-orca.engrad-mp2.def2tzvp.frozencore.en.tmp) ****
             **** THE GBW FILE WAS UPDATED (12h2o.su.etal.mol3,6,9-orca.engrad-mp2.def2tzvp.frozencore.gbw) ****
             **** DENSITY FILE WAS UPDATED (12h2o.su.etal.mol3,6,9-orca.engrad-mp2.def2tzvp.frozencore.scfp) ****
----------------
ORBITAL ENERGIES
----------------

  NO   OCC          E(Eh)            E(eV) 
   0   2.0000     -20.580502      -560.0239 
   1   2.0000     -20.570249      -559.7449 
   2   2.0000     -20.563767      -559.5686 
   3   2.0000      -1.356294       -36.9066 
   4   2.0000      -1.349371       -36.7183 
   5   2.0000      -1.342986       -36.5445 
   6   2.0000      -0.718310       -19.5462 
   7   2.0000      -0.712231       -19.3808 
   8   2.0000      -0.705767       -19.2049 
   9   2.0000      -0.595368       -16.2008 
  10   2.0000      -0.586681       -15.9644 
  11   2.0000      -0.580414       -15.7939 
  12   2.0000      -0.523052       -14.2330 
  13   2.0000      -0.514091       -13.9891 
  14   2.0000      -0.507811       -13.8182 
  15   0.0000       0.085352         2.3225 
  16   0.0000       0.121857         3.3159 
  17   0.0000       0.154832         4.2132 
  18   0.0000       0.176356         4.7989 
  19   0.0000       0.198353         5.3975 
  20   0.0000       0.220882         6.0105 
  21   0.0000       0.494813        13.4646 
  22   0.0000       0.510936        13.9033 
  23   0.0000       0.516531        14.0555 
  24   0.0000       0.518955        14.1215 
  25   0.0000       0.550693        14.9851 
  26   0.0000       0.572904        15.5895 
  27   0.0000       0.588960        16.0264 
  28   0.0000       0.595305        16.1991 
  29   0.0000       0.616023        16.7628 
  30   0.0000       0.629569        17.1314 
  31   0.0000       0.640851        17.4384 
  32   0.0000       0.684889        18.6368 
  33   0.0000       0.742798        20.2126 
  34   0.0000       0.752007        20.4631 
  35   0.0000       0.763062        20.7640 
  36   0.0000       0.777784        21.1646 
  37   0.0000       0.786660        21.4061 
  38   0.0000       0.804949        21.9038 
  39   0.0000       1.387632        37.7594 
  40   0.0000       1.399161        38.0731 
  41   0.0000       1.403873        38.2013 
  42   0.0000       1.424527        38.7634 
  43   0.0000       1.431595        38.9557 
  44   0.0000       1.438007        39.1301 
  45   0.0000       1.530018        41.6339 
  46   0.0000       1.539625        41.8953 
  47   0.0000       1.545644        42.0591 
  48   0.0000       1.771938        48.2169 
  49   0.0000       1.778535        48.3964 
  50   0.0000       1.783195        48.5232 
  51   0.0000       1.881839        51.2074 
  52   0.0000       1.911252        52.0078 
  53   0.0000       1.924429        52.3664 
  54   0.0000       2.001953        54.4759 
  55   0.0000       2.015422        54.8424 
  56   0.0000       2.020659        54.9849 
  57   0.0000       2.280040        62.0430 
  58   0.0000       2.295941        62.4757 
  59   0.0000       2.301209        62.6191 
  60   0.0000       2.331688        63.4485 
  61   0.0000       2.341030        63.7027 
  62   0.0000       2.348209        63.8980 
  63   0.0000       2.360489        64.2322 
  64   0.0000       2.372861        64.5688 
  65   0.0000       2.378953        64.7346 
  66   0.0000       2.566981        69.8511 
  67   0.0000       2.577725        70.1435 
  68   0.0000       2.579191        70.1833 
  69   0.0000       2.653609        72.2084 
  70   0.0000       2.673260        72.7431 
  71   0.0000       2.675825        72.8129 
  72   0.0000       2.914278        79.3015 
  73   0.0000       2.928163        79.6794 
  74   0.0000       2.946794        80.1863 
  75   0.0000       2.948271        80.2265 
  76   0.0000       2.952523        80.3422 
  77   0.0000       2.955885        80.4337 
  78   0.0000       3.005157        81.7745 
  79   0.0000       3.025780        82.3356 
  80   0.0000       3.036035        82.6147 
  81   0.0000       3.130950        85.1975 
  82   0.0000       3.139946        85.4423 
  83   0.0000       3.157619        85.9232 
  84   0.0000       3.998391       108.8018 
  85   0.0000       4.010233       109.1240 
  86   0.0000       4.017922       109.3332 
  87   0.0000       4.277023       116.3837 
  88   0.0000       4.297696       116.9462 
  89   0.0000       4.301560       117.0514 
  90   0.0000       5.531741       150.5263 
  91   0.0000       5.540445       150.7632 
  92   0.0000       5.546762       150.9351 
  93   0.0000       5.634911       153.3337 
  94   0.0000       5.644655       153.5989 
  95   0.0000       5.650840       153.7672 
  96   0.0000       5.799677       157.8172 
  97   0.0000       5.813443       158.1918 
  98   0.0000       5.819863       158.3665 
  99   0.0000       5.831839       158.6924 
 100   0.0000       5.843490       159.0094 
 101   0.0000       5.849823       159.1818 
 102   0.0000       5.870600       159.7472 
 103   0.0000       5.886575       160.1818 
 104   0.0000       5.892926       160.3547 
 105   0.0000       6.450496       175.5269 
 106   0.0000       6.480414       176.3410 
 107   0.0000       6.486445       176.5051 
 108   0.0000       6.663707       181.3287 
 109   0.0000       6.686278       181.9429 
 110   0.0000       6.692197       182.1039 
 111   0.0000       6.812052       185.3653 
 112   0.0000       6.820893       185.6059 
 113   0.0000       6.827200       185.7776 
 114   0.0000       6.867433       186.8723 
 115   0.0000       6.877946       187.1584 
 116   0.0000       6.884385       187.3336 
 117   0.0000       6.928294       188.5285 
 118   0.0000       6.939123       188.8231 
 119   0.0000       6.943834       188.9513 
 120   0.0000       7.331265       199.4939 
 121   0.0000       7.355667       200.1579 
 122   0.0000       7.359428       200.2602 
 123   0.0000       7.490151       203.8174 
 124   0.0000       7.496195       203.9818 
 125   0.0000       7.502205       204.1454 
 126   0.0000      44.807692      1219.2793 
 127   0.0000      44.815816      1219.5004 
 128   0.0000      44.838801      1220.1258 

                    ********************************
                    * MULLIKEN POPULATION ANALYSIS *
                    ********************************

-----------------------
MULLIKEN ATOMIC CHARGES
-----------------------
   0 O :   -0.691899
   1 H :    0.343489
   2 H :    0.348647
   3 O :   -0.692092
   4 H :    0.339601
   5 H :    0.353336
   6 O :   -0.688314
   7 H :    0.349839
   8 H :    0.337393
Sum of atomic charges:    0.0000000

--------------------------------
MULLIKEN REDUCED ORBITAL CHARGES
--------------------------------
  0 O s       :     3.814776  s :     3.814776
      pz      :     1.498826  p :     4.849073
      px      :     1.531943
      py      :     1.818304
      dz2     :     0.012272  d :     0.026507
      dxz     :     0.001249
      dyz     :     0.003133
      dx2y2   :     0.002160
      dxy     :     0.007692
      f0      :     0.000271  f :     0.001543
      f+1     :     0.000385
      f-1     :     0.000176
      f+2     :     0.000057
      f-2     :     0.000057
      f+3     :     0.000071
      f-3     :     0.000526
  1 H s       :     0.611586  s :     0.611586
      pz      :     0.018894  p :     0.044925
      px      :     0.012314
      py      :     0.013717
  2 H s       :     0.606766  s :     0.606766
      pz      :     0.010606  p :     0.044587
      px      :     0.018280
      py      :     0.015701
  3 O s       :     3.817616  s :     3.817616
      pz      :     1.524991  p :     4.846411
      px      :     1.449225
      py      :     1.872195
      dz2     :     0.012018  d :     0.026549
      dxz     :     0.003015
      dyz     :     0.002763
      dx2y2   :     0.003308
      dxy     :     0.005445
      f0      :     0.000184  f :     0.001515
      f+1     :     0.000460
      f-1     :     0.000131
      f+2     :     0.000078
      f-2     :     0.000043
      f+3     :     0.000129
      f-3     :     0.000491
  4 H s       :     0.615345  s :     0.615345
      pz      :     0.018431  p :     0.045054
      px      :     0.012199
      py      :     0.014424
  5 H s       :     0.603104  s :     0.603104
      pz      :     0.010117  p :     0.043559
      px      :     0.018448
      py      :     0.014995
  6 O s       :     3.814087  s :     3.814087
      pz      :     1.504699  p :     4.846205
      px      :     1.816093
      py      :     1.525413
      dz2     :     0.012283  d :     0.026481
      dxz     :     0.003119
      dyz     :     0.001237
      dx2y2   :     0.002185
      dxy     :     0.007656
      f0      :     0.000269  f :     0.001541
      f+1     :     0.000176
      f-1     :     0.000384
      f+2     :     0.000057
      f-2     :     0.000057
      f+3     :     0.000526
      f-3     :     0.000072
  7 H s       :     0.605370  s :     0.605370
      pz      :     0.018996  p :     0.044791
      px      :     0.013600
      py      :     0.012195
  8 H s       :     0.617781  s :     0.617781
      pz      :     0.010791  p :     0.044826
      px      :     0.015875
      py      :     0.018159


                     *******************************
                     * LOEWDIN POPULATION ANALYSIS *
                     *******************************

----------------------
LOEWDIN ATOMIC CHARGES
----------------------
   0 O :   -0.331357
   1 H :    0.163968
   2 H :    0.167556
   3 O :   -0.335243
   4 H :    0.161242
   5 H :    0.174927
   6 O :   -0.329158
   7 H :    0.166185
   8 H :    0.161881

-------------------------------
LOEWDIN REDUCED ORBITAL CHARGES
-------------------------------
  0 O s       :     3.474596  s :     3.474596
      pz      :     1.507521  p :     4.820631
      px      :     1.524840
      py      :     1.788270
      dz2     :     0.016866  d :     0.033896
      dxz     :     0.002122
      dyz     :     0.002570
      dx2y2   :     0.002325
      dxy     :     0.010012
      f0      :     0.000493  f :     0.002234
      f+1     :     0.000599
      f-1     :     0.000333
      f+2     :     0.000027
      f-2     :     0.000048
      f+3     :     0.000003
      f-3     :     0.000731
  1 H s       :     0.678637  s :     0.678637
      pz      :     0.080074  p :     0.157395
      px      :     0.035249
      py      :     0.042072
  2 H s       :     0.675902  s :     0.675902
      pz      :     0.029685  p :     0.156542
      px      :     0.071968
      py      :     0.054890
  3 O s       :     3.480332  s :     3.480332
      pz      :     1.537275  p :     4.818927
      px      :     1.447762
      py      :     1.833890
      dz2     :     0.015987  d :     0.033797
      dxz     :     0.004392
      dyz     :     0.001866
      dx2y2   :     0.004538
      dxy     :     0.007015
      f0      :     0.000392  f :     0.002187
      f+1     :     0.000774
      f-1     :     0.000207
      f+2     :     0.000050
      f-2     :     0.000044
      f+3     :     0.000075
      f-3     :     0.000644
  4 H s       :     0.681286  s :     0.681286
      pz      :     0.079108  p :     0.157473
      px      :     0.035108
      py      :     0.043257
  5 H s       :     0.672547  s :     0.672547
      pz      :     0.029071  p :     0.152526
      px      :     0.074246
      py      :     0.049208
  6 O s       :     3.473653  s :     3.473653
      pz      :     1.510316  p :     4.819309
      px      :     1.787492
      py      :     1.521502
      dz2     :     0.016784  d :     0.033958
      dxz     :     0.002539
      dyz     :     0.002067
      dx2y2   :     0.002399
      dxy     :     0.010169
      f0      :     0.000486  f :     0.002238
      f+1     :     0.000332
      f-1     :     0.000600
      f+2     :     0.000027
      f-2     :     0.000047
      f+3     :     0.000743
      f-3     :     0.000003
  7 H s       :     0.676257  s :     0.676257
      pz      :     0.080523  p :     0.157558
      px      :     0.041906
      py      :     0.035129
  8 H s       :     0.681758  s :     0.681758
      pz      :     0.029935  p :     0.156361
      px      :     0.054927
      py      :     0.071500


                      *****************************
                      * MAYER POPULATION ANALYSIS *
                      *****************************

  NA   - Mulliken gross atomic population
  ZA   - Total nuclear charge
  QA   - Mulliken gross atomic charge
  VA   - Mayer's total valence
  BVA  - Mayer's bonded valence
  FA   - Mayer's free valence

  ATOM       NA         ZA         QA         VA         BVA        FA
  0 O      8.6919     8.0000    -0.6919     1.7799     1.7799    -0.0000
  1 H      0.6565     1.0000     0.3435     0.8960     0.8960     0.0000
  2 H      0.6514     1.0000     0.3486     0.8923     0.8923     0.0000
  3 O      8.6921     8.0000    -0.6921     1.7815     1.7815     0.0000
  4 H      0.6604     1.0000     0.3396     0.9003     0.9003     0.0000
  5 H      0.6467     1.0000     0.3533     0.8888     0.8888     0.0000
  6 O      8.6883     8.0000    -0.6883     1.7838     1.7838    -0.0000
  7 H      0.6502     1.0000     0.3498     0.8928     0.8928     0.0000
  8 H      0.6626     1.0000     0.3374     0.9027     0.9027    -0.0000

  Mayer bond orders larger than 0.100000
B(  0-O ,  1-H ) :   0.8915 B(  0-O ,  2-H ) :   0.8878 B(  3-O ,  4-H ) :   0.8931 
B(  3-O ,  5-H ) :   0.8834 B(  6-O ,  7-H ) :   0.8867 B(  6-O ,  8-H ) :   0.8949 


-------
TIMINGS
-------

Total SCF time: 0 days 0 hours 0 min 1 sec 

Total time                  ....       1.876 sec
Sum of individual times     ....       1.711 sec  ( 91.2%)

Fock matrix formation       ....       1.568 sec  ( 83.6%)
Diagonalization             ....       0.015 sec  (  0.8%)
Density matrix formation    ....       0.003 sec  (  0.1%)
Population analysis         ....       0.002 sec  (  0.1%)
Initial guess               ....       0.092 sec  (  4.9%)
Orbital Transformation      ....       0.000 sec  (  0.0%)
Orbital Orthonormalization  ....       0.000 sec  (  0.0%)
DIIS solution               ....       0.005 sec  (  0.3%)
SOSCF solution              ....       0.005 sec  (  0.3%)


           ************************************************************
           *        Program running with 6 parallel MPI-processes     *
           *              working on a common directory               *
           ************************************************************

------------------------------------------------------------------------------
                                ORCA  MP2 
------------------------------------------------------------------------------

Freezing NCore=6 chemical core electrons
MP2 will be done in the AO integral direct mode
The Q1-step will be done using symmetric double matrices
Dimension of the basis                    ...  129
Memory devoted for MP2                    ... 8000 MB   
Memory needed for all in one shot         ...   18 MB
Number of MOs that can be treated together...  968      
MP2 density construction                  ... relaxed
The MP2 gradient is requested => amplitudes will be stored on disk
Total number of MOs              ...   12
Number of MOs treated per batch  ...    2 
Number of batches necessary      ...    1 
OPERATORS   0/  0 PASS   0
-----------------------------------------------
 MP2 CORRELATION ENERGY   :     -0.766839191 Eh
-----------------------------------------------


---------------------
MP2 DENSITY FORMATION
---------------------

Completing the external part of the density      ... done
Storing the unrelaxed density                    ... done

Calculating G(D)                                 ... done
Completing the Lagrangian                        ... done
Solving the Z-vector equations                   ... 

------------------------------------------------------------------------------
                           ORCA CP-SCF CALCULATION
------------------------------------------------------------------------------

Input orbitals are from        ... 12h2o.su.etal.mol3,6,9-orca.engrad-mp2.def2tzvp.frozencore.gbw
Input Perturbation             ... 12h2o.su.etal.mol3,6,9-orca.engrad-mp2.def2tzvp.frozencore.pin.tmp
Wavefunction output            ... 12h2o.su.etal.mol3,6,9-orca.engrad-mp2.def2tzvp.frozencore.pout.tmp
Perturbation mode              ... Real perturbation (singlet)
Solver                         ... POPLE
Max. number of iterations      ... 128
Convergence tolerance          ... 1.000e-08
Integral handling              ... Direct
Number of perturbations        ... 1
Number of operators            ... 1
Orbital ranges used for CP-SCF:
 Operator 0:  Orbitals   0... 14  to  15...128
Variables per vector in CP-SCF ... 1710
Number of vectors sought       ... 1
     CP-SCF ITERATION   0: 
     CP-SCF ITERATION   1:      0.000339512644
     CP-SCF ITERATION   2:      0.000006428936
     CP-SCF ITERATION   3:      0.000000188406
     CP-SCF ITERATION   4:      0.000000005049
                                                 ... done
Finalizing the relaxed density                   ... done
Transforming P to the AO basis                   ... done
Storing the relaxed density                      ... done

------------------------------------
ENERGY WEIGHTED DENSITY FINALIZATION
------------------------------------

Gathering the parts of the W-matrix              ...                                                      done
Forming the Z-density                            ... done
Transforming Z to the AO basis                   ... done
Calculating G(Z)                                 ... done
Finalizing the W-matrix                          ...                                                      done
Transforming W to the AO basis and storing       ... done

                *********************************************
                * UNRELAXED MP2 DENSITY POPULATION ANALYSIS *
                *********************************************

------------------------------------------------------------------------------
                           ORCA POPULATION ANALYSIS
------------------------------------------------------------------------------
Input electron density              ... 12h2o.su.etal.mol3,6,9-orca.engrad-mp2.def2tzvp.frozencore.pmp2ur
BaseName (.gbw .S,...)              ... 12h2o.su.etal.mol3,6,9-orca.engrad-mp2.def2tzvp.frozencore

                    ********************************
                    * MULLIKEN POPULATION ANALYSIS *
                    ********************************

-----------------------
MULLIKEN ATOMIC CHARGES
-----------------------
   0 O :   -0.687190
   1 H :    0.341154
   2 H :    0.346289
   3 O :   -0.687101
   4 H :    0.337168
   5 H :    0.350821
   6 O :   -0.683556
   7 H :    0.347460
   8 H :    0.334954
Sum of atomic charges:    0.0000000

--------------------------------
MULLIKEN REDUCED ORBITAL CHARGES
--------------------------------
  0 O s       :     3.809967  s :     3.809967
      pz      :     1.490059  p :     4.820380
      px      :     1.523153
      py      :     1.807168
      dz2     :     0.017223  d :     0.052755
      dxz     :     0.006551
      dyz     :     0.008511
      dx2y2   :     0.007596
      dxy     :     0.012874
      f0      :     0.000645  f :     0.004088
      f+1     :     0.000748
      f-1     :     0.000546
      f+2     :     0.000414
      f-2     :     0.000419
      f+3     :     0.000438
      f-3     :     0.000878
  1 H s       :     0.612263  s :     0.612263
      pz      :     0.018990  p :     0.046584
      px      :     0.013008
      py      :     0.014585
  2 H s       :     0.607485  s :     0.607485
      pz      :     0.011389  p :     0.046226
      px      :     0.018454
      py      :     0.016382
  3 O s       :     3.812761  s :     3.812761
      pz      :     1.515870  p :     4.817487
      px      :     1.440998
      py      :     1.860619
      dz2     :     0.016970  d :     0.052798
      dxz     :     0.008233
      dyz     :     0.008189
      dx2y2   :     0.008661
      dxy     :     0.010745
      f0      :     0.000561  f :     0.004055
      f+1     :     0.000821
      f-1     :     0.000499
      f+2     :     0.000437
      f-2     :     0.000405
      f+3     :     0.000491
      f-3     :     0.000841
  4 H s       :     0.616108  s :     0.616108
      pz      :     0.018591  p :     0.046724
      px      :     0.012823
      py      :     0.015309
  5 H s       :     0.604000  s :     0.604000
      pz      :     0.010940  p :     0.045178
      px      :     0.018487
      py      :     0.015751
  6 O s       :     3.809248  s :     3.809248
      pz      :     1.495852  p :     4.817493
      px      :     1.804963
      py      :     1.516679
      dz2     :     0.017237  d :     0.052729
      dxz     :     0.008499
      dyz     :     0.006545
      dx2y2   :     0.007617
      dxy     :     0.012830
      f0      :     0.000643  f :     0.004085
      f+1     :     0.000546
      f-1     :     0.000746
      f+2     :     0.000414
      f-2     :     0.000420
      f+3     :     0.000878
      f-3     :     0.000438
  7 H s       :     0.606122  s :     0.606122
      pz      :     0.019075  p :     0.046418
      px      :     0.014459
      py      :     0.012884
  8 H s       :     0.618545  s :     0.618545
      pz      :     0.011589  p :     0.046501
      px      :     0.016566
      py      :     0.018346


                     *******************************
                     * LOEWDIN POPULATION ANALYSIS *
                     *******************************

----------------------
LOEWDIN ATOMIC CHARGES
----------------------
   0 O :   -0.328669
   1 H :    0.162633
   2 H :    0.166218
   3 O :   -0.332257
   4 H :    0.159807
   5 H :    0.173441
   6 O :   -0.326395
   7 H :    0.164817
   8 H :    0.160404

-------------------------------
LOEWDIN REDUCED ORBITAL CHARGES
-------------------------------
  0 O s       :     3.470829  s :     3.470829
      pz      :     1.498405  p :     4.791657
      px      :     1.515801
      py      :     1.777451
      dz2     :     0.022520  d :     0.061212
      dxz     :     0.007357
      dyz     :     0.007888
      dx2y2   :     0.007745
      dxy     :     0.015702
      f0      :     0.000907  f :     0.004971
      f+1     :     0.001015
      f-1     :     0.000726
      f+2     :     0.000388
      f-2     :     0.000417
      f+3     :     0.000375
      f-3     :     0.001141
  1 H s       :     0.676761  s :     0.676761
      pz      :     0.081709  p :     0.160606
      px      :     0.035994
      py      :     0.042903
  2 H s       :     0.674070  s :     0.674070
      pz      :     0.030418  p :     0.159712
      px      :     0.073345
      py      :     0.055949
  3 O s       :     3.476516  s :     3.476516
      pz      :     1.527799  p :     4.789682
      px      :     1.439157
      py      :     1.822725
      dz2     :     0.021595  d :     0.061141
      dxz     :     0.009629
      dyz     :     0.007220
      dx2y2   :     0.010084
      dxy     :     0.012614
      f0      :     0.000800  f :     0.004918
      f+1     :     0.001202
      f-1     :     0.000591
      f+2     :     0.000417
      f-2     :     0.000412
      f+3     :     0.000448
      f-3     :     0.001048
  4 H s       :     0.679467  s :     0.679467
      pz      :     0.080795  p :     0.160726
      px      :     0.035867
      py      :     0.044064
  5 H s       :     0.670872  s :     0.670872
      pz      :     0.029858  p :     0.155687
      px      :     0.075673
      py      :     0.050155
  6 O s       :     3.469864  s :     3.469864
      pz      :     1.501156  p :     4.790272
      px      :     1.776660
      py      :     1.512457
      dz2     :     0.022441  d :     0.061284
      dxz     :     0.007860
      dyz     :     0.007306
      dx2y2   :     0.007818
      dxy     :     0.015859
      f0      :     0.000900  f :     0.004975
      f+1     :     0.000725
      f-1     :     0.001016
      f+2     :     0.000389
      f-2     :     0.000417
      f+3     :     0.001153
      f-3     :     0.000375
  7 H s       :     0.674482  s :     0.674482
      pz      :     0.082108  p :     0.160701
      px      :     0.042728
      py      :     0.035865
  8 H s       :     0.679964  s :     0.679964
      pz      :     0.030681  p :     0.159632
      px      :     0.056011
      py      :     0.072939


                      *****************************
                      * MAYER POPULATION ANALYSIS *
                      *****************************

  NA   - Mulliken gross atomic population
  ZA   - Total nuclear charge
  QA   - Mulliken gross atomic charge
  VA   - Mayer's total valence
  BVA  - Mayer's bonded valence
  FA   - Mayer's free valence

  ATOM       NA         ZA         QA         VA         BVA        FA
  0 O      8.6872     8.0000    -0.6872     2.0820     1.6979     0.3841
  1 H      0.6588     1.0000     0.3412     0.9019     0.8545     0.0475
  2 H      0.6537     1.0000     0.3463     0.8983     0.8511     0.0472
  3 O      8.6871     8.0000    -0.6871     2.0848     1.6983     0.3865
  4 H      0.6628     1.0000     0.3372     0.9064     0.8582     0.0482
  5 H      0.6492     1.0000     0.3508     0.8948     0.8470     0.0478
  6 O      8.6836     8.0000    -0.6836     2.0856     1.7014     0.3842
  7 H      0.6525     1.0000     0.3475     0.8987     0.8517     0.0470
  8 H      0.6650     1.0000     0.3350     0.9089     0.8606     0.0483

  Mayer bond orders larger than 0.100000
B(  0-O ,  1-H ) :   0.8503 B(  0-O ,  2-H ) :   0.8469 B(  3-O ,  4-H ) :   0.8515 
B(  3-O ,  5-H ) :   0.8420 B(  6-O ,  7-H ) :   0.8460 B(  6-O ,  8-H ) :   0.8533 



                *******************************************
                * RELAXED MP2 DENSITY POPULATION ANALYSIS *
                *******************************************

------------------------------------------------------------------------------
                           ORCA POPULATION ANALYSIS
------------------------------------------------------------------------------
Input electron density              ... 12h2o.su.etal.mol3,6,9-orca.engrad-mp2.def2tzvp.frozencore.pmp2re
BaseName (.gbw .S,...)              ... 12h2o.su.etal.mol3,6,9-orca.engrad-mp2.def2tzvp.frozencore

                    ********************************
                    * MULLIKEN POPULATION ANALYSIS *
                    ********************************

-----------------------
MULLIKEN ATOMIC CHARGES
-----------------------
   0 O :   -0.674360
   1 H :    0.334934
   2 H :    0.339818
   3 O :   -0.673169
   4 H :    0.330539
   5 H :    0.344124
   6 O :   -0.670300
   7 H :    0.340381
   8 H :    0.328035
Sum of atomic charges:    0.0000000

--------------------------------
MULLIKEN REDUCED ORBITAL CHARGES
--------------------------------
  0 O s       :     3.815185  s :     3.815185
      pz      :     1.483857  p :     4.804754
      px      :     1.518730
      py      :     1.802166
      dz2     :     0.015833  d :     0.050409
      dxz     :     0.006479
      dyz     :     0.008466
      dx2y2   :     0.007522
      dxy     :     0.012108
      f0      :     0.000627  f :     0.004012
      f+1     :     0.000725
      f-1     :     0.000535
      f+2     :     0.000414
      f-2     :     0.000418
      f+3     :     0.000439
      f-3     :     0.000854
  1 H s       :     0.617724  s :     0.617724
      pz      :     0.018234  p :     0.047343
      px      :     0.013569
      py      :     0.015540
  2 H s       :     0.613223  s :     0.613223
      pz      :     0.012076  p :     0.046959
      px      :     0.017938
      py      :     0.016944
  3 O s       :     3.818156  s :     3.818156
      pz      :     1.508534  p :     4.800595
      px      :     1.436301
      py      :     1.855759
      dz2     :     0.015682  d :     0.050439
      dxz     :     0.007965
      dyz     :     0.008238
      dx2y2   :     0.008346
      dxy     :     0.010208
      f0      :     0.000546  f :     0.003981
      f+1     :     0.000791
      f-1     :     0.000493
      f+2     :     0.000438
      f-2     :     0.000403
      f+3     :     0.000490
      f-3     :     0.000820
  4 H s       :     0.621945  s :     0.621945
      pz      :     0.017917  p :     0.047516
      px      :     0.013243
      py      :     0.016356
  5 H s       :     0.610011  s :     0.610011
      pz      :     0.011674  p :     0.045866
      px      :     0.017691
      py      :     0.016501
  6 O s       :     3.814120  s :     3.814120
      pz      :     1.489377  p :     4.801809
      px      :     1.800053
      py      :     1.512379
      dz2     :     0.015846  d :     0.050361
      dxz     :     0.008455
      dyz     :     0.006478
      dx2y2   :     0.007535
      dxy     :     0.012047
      f0      :     0.000625  f :     0.004009
      f+1     :     0.000535
      f-1     :     0.000723
      f+2     :     0.000415
      f-2     :     0.000419
      f+3     :     0.000853
      f-3     :     0.000439
  7 H s       :     0.612473  s :     0.612473
      pz      :     0.018304  p :     0.047146
      px      :     0.015394
      py      :     0.013447
  8 H s       :     0.624673  s :     0.624673
      pz      :     0.012310  p :     0.047293
      px      :     0.017149
      py      :     0.017834


                     *******************************
                     * LOEWDIN POPULATION ANALYSIS *
                     *******************************

----------------------
LOEWDIN ATOMIC CHARGES
----------------------
   0 O :   -0.331940
   1 H :    0.164367
   2 H :    0.167854
   3 O :   -0.334865
   4 H :    0.161271
   5 H :    0.175016
   6 O :   -0.329477
   7 H :    0.166053
   8 H :    0.161723

-------------------------------
LOEWDIN REDUCED ORBITAL CHARGES
-------------------------------
  0 O s       :     3.473092  s :     3.473092
      pz      :     1.500192  p :     4.794028
      px      :     1.518015
      py      :     1.775821
      dz2     :     0.021725  d :     0.059832
      dxz     :     0.007204
      dyz     :     0.007907
      dx2y2   :     0.007677
      dxy     :     0.015319
      f0      :     0.000908  f :     0.004988
      f+1     :     0.001024
      f-1     :     0.000724
      f+2     :     0.000390
      f-2     :     0.000417
      f+3     :     0.000375
      f-3     :     0.001150
  1 H s       :     0.674838  s :     0.674838
      pz      :     0.080902  p :     0.160795
      px      :     0.036099
      py      :     0.043795
  2 H s       :     0.672307  s :     0.672307
      pz      :     0.030696  p :     0.159839
      px      :     0.072610
      py      :     0.056533
  3 O s       :     3.478912  s :     3.478912
      pz      :     1.528643  p :     4.791263
      px      :     1.442374
      py      :     1.820245
      dz2     :     0.020866  d :     0.059756
      dxz     :     0.009374
      dyz     :     0.007295
      dx2y2   :     0.009875
      dxy     :     0.012346
      f0      :     0.000796  f :     0.004935
      f+1     :     0.001212
      f-1     :     0.000590
      f+2     :     0.000419
      f-2     :     0.000411
      f+3     :     0.000450
      f-3     :     0.001056
  4 H s       :     0.677738  s :     0.677738
      pz      :     0.080223  p :     0.160991
      px      :     0.035710
      py      :     0.045058
  5 H s       :     0.669230  s :     0.669230
      pz      :     0.030274  p :     0.155754
      px      :     0.074598
      py      :     0.050883
  6 O s       :     3.472013  s :     3.472013
      pz      :     1.502782  p :     4.792594
      px      :     1.775093
      py      :     1.514719
      dz2     :     0.021642  d :     0.059879
      dxz     :     0.007879
      dyz     :     0.007157
      dx2y2   :     0.007743
      dxy     :     0.015458
      f0      :     0.000901  f :     0.004991
      f+1     :     0.000723
      f-1     :     0.001024
      f+2     :     0.000391
      f-2     :     0.000417
      f+3     :     0.001160
      f-3     :     0.000375
  7 H s       :     0.673141  s :     0.673141
      pz      :     0.081241  p :     0.160806
      px      :     0.043600
      py      :     0.035965
  8 H s       :     0.678349  s :     0.678349
      pz      :     0.031003  p :     0.159929
      px      :     0.056640
      py      :     0.072286


                      *****************************
                      * MAYER POPULATION ANALYSIS *
                      *****************************

  NA   - Mulliken gross atomic population
  ZA   - Total nuclear charge
  QA   - Mulliken gross atomic charge
  VA   - Mayer's total valence
  BVA  - Mayer's bonded valence
  FA   - Mayer's free valence

  ATOM       NA         ZA         QA         VA         BVA        FA
  0 O      8.6744     8.0000    -0.6744     2.0863     1.7070     0.3793
  1 H      0.6651     1.0000     0.3349     0.9064     0.8588     0.0476
  2 H      0.6602     1.0000     0.3398     0.9030     0.8557     0.0473
  3 O      8.6732     8.0000    -0.6732     2.0911     1.7097     0.3814
  4 H      0.6695     1.0000     0.3305     0.9118     0.8636     0.0482
  5 H      0.6559     1.0000     0.3441     0.9000     0.8522     0.0478
  6 O      8.6703     8.0000    -0.6703     2.0905     1.7110     0.3794
  7 H      0.6596     1.0000     0.3404     0.9047     0.8577     0.0470
  8 H      0.6720     1.0000     0.3280     0.9150     0.8668     0.0482

  Mayer bond orders larger than 0.100000
B(  0-O ,  1-H ) :   0.8545 B(  0-O ,  2-H ) :   0.8514 B(  3-O ,  4-H ) :   0.8555 
B(  3-O ,  5-H ) :   0.8465 B(  6-O ,  7-H ) :   0.8506 B(  6-O ,  8-H ) :   0.8576 



----------------------------------
MP2 DERIVATIVE INTEGRAL GENERATION
----------------------------------


Input Wavefunction Amplitudes       ... 12h2o.su.etal.mol3,6,9-orca.engrad-mp2.def2tzvp.frozencore.mp2tsaa.tmp
Input Correlated Electron Density   ... 12h2o.su.etal.mol3,6,9-orca.engrad-mp2.def2tzvp.frozencore.pmp2re
Input Energy Weighted Density       ... 12h2o.su.etal.mol3,6,9-orca.engrad-mp2.def2tzvp.frozencore.wmp2.tmp
Input SCF Electron Density          ... 12h2o.su.etal.mol3,6,9-orca.engrad-mp2.def2tzvp.frozencore.scfp

One-Electron Terms    ...
                        ... One-Electron Terms done
Prescreening matrices              ... done

Batch handling in the gradient evaluation:
Memory available                      ... 8000.0 MB
Memory per occupied orbital in Q2     ...    1.5 MB
Memory per occupied orbital in Q3     ...    0.0 MB
Total memory requirement per |i>      ...    1.6 MB
Max. Number of orbitals possible      ...   5089
Number of orbitals treated per batch  ...     12
Number of batches to be done          ...      1
Batch   0: i=    3 ...    14

---------------------------------------
MP2 TOTAL ENERGY:     -228.939501510 Eh
---------------------------------------

The final MP2 gradient
  0:  -0.00690503   0.00722019  -0.00848847
  1:  -0.00228686  -0.00147612   0.00881399
  2:   0.00903937  -0.00587172  -0.00059920
  3:   0.01492717  -0.00687873  -0.01116365
  4:   0.00259379   0.00001109   0.00928055
  5:  -0.01721438   0.00714303   0.00164318
  6:  -0.00706348  -0.00777550   0.00781665
  7:   0.00125600  -0.00267401  -0.00802083
  8:   0.00565342   0.01030176   0.00071777

-----------------------------------
NORM OF THE MP2 GRADIENT:  0.039929
-----------------------------------

-------------------------   --------------------
FINAL SINGLE POINT ENERGY      -228.939501509635
-------------------------   --------------------


                            ***************************************
                            *     ORCA property calculations      *
                            ***************************************

                                    ---------------------
                                    Active property flags
                                    ---------------------
   (+) Dipole Moment


------------------------------------------------------------------------------
                       ORCA ELECTRIC PROPERTIES CALCULATION
------------------------------------------------------------------------------

Dipole Moment Calculation                       ... on
Quadrupole Moment Calculation                   ... off
Polarizability Calculation                      ... off
GBWName                                         ... 12h2o.su.etal.mol3,6,9-orca.engrad-mp2.def2tzvp.frozencore.gbw
Electron density file                           ... 12h2o.su.etal.mol3,6,9-orca.engrad-mp2.def2tzvp.frozencore.scfp
The origin for moment calculation is the CENTER OF MASS  = ( 0.482071, -0.998446 -0.000429)

-------------
DIPOLE MOMENT
-------------
                                X             Y             Z
Electronic contribution:     -0.07924      -0.04774      -0.14037
Nuclear contribution   :      0.56623       0.34326       0.77428
                        -----------------------------------------
Total Dipole Moment    :      0.48699       0.29552       0.63391
                        -----------------------------------------
Magnitude (a.u.)       :      0.85225
Magnitude (Debye)      :      2.16624



--------------------
Rotational spectrum 
--------------------
 
Rotational constants in cm-1:     0.150928     0.046009     0.035588 
Rotational constants in MHz :  4524.702523  1379.325624  1066.899247 

 Dipole components along the rotational axes: 
x,y,z [a.u.] :     0.754888    -0.374892    -0.126192 
x,y,z [Debye]:     1.918773    -0.952900    -0.320754 

 

                         *** MP2 UNRELAXED DENSITY ***

------------------------------------------------------------------------------
                       ORCA ELECTRIC PROPERTIES CALCULATION
------------------------------------------------------------------------------

Dipole Moment Calculation                       ... on
Quadrupole Moment Calculation                   ... off
Polarizability Calculation                      ... off
GBWName                                         ... 12h2o.su.etal.mol3,6,9-orca.engrad-mp2.def2tzvp.frozencore.gbw
Electron density file                           ... 12h2o.su.etal.mol3,6,9-orca.engrad-mp2.def2tzvp.frozencore.pmp2ur
The origin for moment calculation is the CENTER OF MASS  = ( 0.482071, -0.998446 -0.000429)

-------------
DIPOLE MOMENT
-------------
                                X             Y             Z
Electronic contribution:     -0.08473      -0.05116      -0.14877
Nuclear contribution   :      0.56623       0.34326       0.77428
                        -----------------------------------------
Total Dipole Moment    :      0.48150       0.29209       0.62550
                        -----------------------------------------
Magnitude (a.u.)       :      0.84168
Magnitude (Debye)      :      2.13937



--------------------
Rotational spectrum 
--------------------
 
Rotational constants in cm-1:     0.150928     0.046009     0.035588 
Rotational constants in MHz :  4524.702523  1379.325624  1066.899247 

 Dipole components along the rotational axes: 
x,y,z [a.u.] :     0.745271    -0.370892    -0.124215 
x,y,z [Debye]:     1.894329    -0.942732    -0.315729 

 

                           *** MP2 RELAXED DENSITY ***

------------------------------------------------------------------------------
                       ORCA ELECTRIC PROPERTIES CALCULATION
------------------------------------------------------------------------------

Dipole Moment Calculation                       ... on
Quadrupole Moment Calculation                   ... off
Polarizability Calculation                      ... off
GBWName                                         ... 12h2o.su.etal.mol3,6,9-orca.engrad-mp2.def2tzvp.frozencore.gbw
Electron density file                           ... 12h2o.su.etal.mol3,6,9-orca.engrad-mp2.def2tzvp.frozencore.pmp2re
The origin for moment calculation is the CENTER OF MASS  = ( 0.482071, -0.998446 -0.000429)

-------------
DIPOLE MOMENT
-------------
                                X             Y             Z
Electronic contribution:     -0.09094      -0.05289      -0.16061
Nuclear contribution   :      0.56623       0.34326       0.77428
                        -----------------------------------------
Total Dipole Moment    :      0.47529       0.29036       0.61367
                        -----------------------------------------
Magnitude (a.u.)       :      0.82874
Magnitude (Debye)      :      2.10648



--------------------
Rotational spectrum 
--------------------
 
Rotational constants in cm-1:     0.150928     0.046009     0.035588 
Rotational constants in MHz :  4524.702523  1379.325624  1066.899247 

 Dipole components along the rotational axes: 
x,y,z [a.u.] :     0.732121    -0.368514    -0.122474 
x,y,z [Debye]:     1.860903    -0.936688    -0.311305 

 

Timings for individual modules:

Sum of individual times         ...        6.955 sec (=   0.116 min)
GTO integral calculation        ...        0.960 sec (=   0.016 min)  13.8 %
SCF iterations                  ...        2.551 sec (=   0.043 min)  36.7 %
MP2 module                      ...        3.444 sec (=   0.057 min)  49.5 %
                             ****ORCA TERMINATED NORMALLY****
TOTAL RUN TIME: 0 days 0 hours 0 minutes 7 seconds 870 msec
