43
Energy:   -266.35782542
C   -3.18955305   2.07411846   0.35192017
H   -3.40399334   1.19036682   0.91574513
H   -2.17259100   2.04760668   0.02028121
H   -3.84012815   2.12272809  -0.49618845
C   -3.40824305   3.31425800   1.23838992
N   -3.57106769   4.23759826   1.89840693
C   -2.36661979  -2.04342349  -1.84431336
H   -3.26775082  -2.55411710  -2.11274414
H   -2.60510701  -1.06417355  -1.48501893
H   -1.86105008  -2.59156602  -1.07695548
C   -1.45406224  -1.92887864  -3.07951302
N   -0.77462166  -1.84359480  -3.99917531
C    1.74056291  -2.16209742  -1.54741591
H    1.77497940  -1.90265030  -2.58491428
H    2.72854493  -2.12715483  -1.13806320
H    1.11406140  -1.46826259  -1.02685065
C    1.17076615  -3.58440455  -1.39258025
N    0.74652657  -4.64337686  -1.27729806
C   -0.00391860   3.05233563   2.36481800
H   -0.77076197   3.70823630   2.72069120
H    0.84598930   3.11299849   3.01202405
H   -0.37155724   2.04755726   2.35211519
C    0.40565613   3.46715028   0.93941372
N    0.71060313   3.77599864  -0.12186455
C    0.93215643  -3.36540823   2.31862204
H    0.87967837  -4.26171015   2.90067796
H    0.30550540  -3.46260418   1.45678649
H    0.60072371  -2.53683830   2.90898068
C    2.38661260  -3.12803484   1.87161966
N    3.46952133  -2.95129957   1.53880606
C    2.73440592   0.50476316   1.12503264
H    2.12513145   0.92689154   0.35335108
H    2.14088106  -0.14673563   1.73180827
H    3.53540734  -0.05047039   0.68343155
C    3.31269560   1.63400836   1.99795093
N    3.74325855   2.47478274   2.64787827
C   -0.09856398   1.37659390  -2.37575800
H    0.43717130   2.28973570  -2.53087072
H    0.35253223   0.59609275  -2.95215131
H   -0.06799982   1.11697682  -1.33818203
C   -1.56285578   1.55934537  -2.81627069
N   -2.65308758   1.69541215  -3.14425242
Cl  -0.74983836  -0.50875398   0.99162966
