43
Energy:   -267.48236048
C    0.65761993   2.40948595   1.38818926
H   -0.11979019   3.13023154   1.24307044
H    0.45327569   1.54073099   0.79792887
H    1.59486551   2.83088804   1.09004484
C    0.72167942   2.01600411   2.87569336
N    0.76937462   1.72303900   3.98320777
C    2.89712951  -0.97396740   2.52258346
H    3.23604741  -1.46270048   3.41206354
H    2.98262593  -1.64404535   1.69277324
H    1.87427674  -0.68373595   2.64273756
C    3.75843505   0.27614012   2.26377091
N    4.39971618   1.20690200   2.07107320
C    3.25535992   1.02387500  -1.25939464
H    3.00869261   0.26479443  -1.97203207
H    2.74188448   0.83098585  -0.34068041
H    4.31112419   1.02027865  -1.08547518
C    2.82988519   2.39917825  -1.80630617
N    2.51309990   3.42315403  -2.21350666
C   -0.52576618   1.48247462  -2.43141096
H   -0.21203749   2.40058600  -2.88257166
H    0.21773088   0.73112504  -2.59749836
H   -0.65660269   1.62841196  -1.37951591
C   -1.85907653   1.03242080  -3.05697875
N   -2.85178669   0.69733528  -3.52274240
C   -3.26233994  -0.58610772  -0.12650138
H   -2.36496460  -1.16812646  -0.15602868
H   -3.69039922  -0.54069848  -1.10609433
H   -3.95953874  -1.03951818   0.54672359
C   -2.93435856   0.83878351   0.35693756
N   -2.69016151   1.89967979   0.71687983
C   -1.30649515  -2.63764491  -2.95007260
H   -1.19909255  -3.12869586  -2.00549130
H   -2.18626176  -2.02875054  -2.93752393
H   -0.44981636  -2.02288114  -3.13191331
C   -1.42784564  -3.69205349  -4.06591156
N   -1.51819659  -4.47710861  -4.89670439
C   -1.09058911  -1.12816117   3.01604810
H   -0.56970006  -1.97435444   2.61914545
H   -0.65095257  -0.84429051   3.94934133
H   -1.02284752  -0.31230146   2.32707561
C   -2.57052784  -1.49306571   3.23565240
N   -3.67240949  -1.76475373   3.39915778
Cl   0.56873382  -1.20354336  -0.22574346
