43
Energy:   -268.30291632
C    1.18234003   2.27973539  -0.04387203
H    1.40354373   2.88135223  -0.90062537
H    0.76083094   2.89406745   0.72412881
H    0.48253416   1.51697207  -0.31472801
C    2.47782969   1.62748574   0.47369628
N    3.44238062   1.14185623   0.85904941
C   -1.71750214   1.10037071  -2.76803696
H   -2.33979436   0.45701625  -2.18173702
H   -0.71874645   0.71664664  -2.77995379
H   -2.09402895   1.14597073  -3.76856047
C   -1.71741097   2.51296860  -2.15471224
N   -1.71734310   3.56471193  -1.69806411
C   -2.44287347   1.53732958   1.19759500
H   -2.16818590   2.55210400   0.99839710
H   -1.67460493   0.88334492   0.84127125
H   -2.56625588   1.40157862   2.25175227
C   -3.76637453   1.21344136   0.47993118
N   -4.75178123   0.97229186  -0.05440215
C    0.52851097  -0.50921446   2.94125964
H    0.78309721  -1.04581708   3.83128417
H    1.30842759  -0.62716131   2.21826747
H   -0.38770788  -0.89273388   2.54332124
C    0.35827008   0.98483139   3.27359235
N    0.23151801   2.09721644   3.52102916
C    2.48948696  -0.45233590  -2.72902635
H    2.59573928  -0.36829884  -1.66763651
H    3.41267925  -0.78630292  -3.15456260
H    1.71681097  -1.15703958  -2.95544108
C    2.11993140   0.92162538  -3.31831329
N    1.84478050   1.94460201  -3.75706420
C    3.06006769  -2.55263042   0.43608707
H    2.81832206  -1.51103520   0.47531257
H    3.39952029  -2.87645575   1.39775655
H    2.19021255  -3.11045491   0.15844890
C    4.17138583  -2.78283262  -0.60486390
N    4.99881270  -2.95422863  -1.37989922
C   -3.28568717  -2.44481456   0.87309798
H   -3.27778357  -1.66537491   0.14008260
H   -4.19730163  -2.99945289   0.79413920
H   -2.45496364  -3.09856335   0.70753818
C   -3.18063977  -1.82744978   2.28001865
N   -3.10242721  -1.36779363   3.32753504
Cl  -0.21561976  -1.31752893  -0.51309280
