43
Energy:   -267.10224759
C   -1.72318105   2.20235593  -1.79527694
H   -2.33415186   2.09889002  -2.66757829
H   -1.93409835   3.13803845  -1.32102889
H   -1.93312612   1.40282035  -1.11589117
C   -0.23810995   2.15531959  -2.20018608
N    0.86759298   2.12029890  -2.50165935
C   -0.87263020  -1.49062166  -2.88977379
H   -0.41345077  -2.30797162  -3.40551934
H   -1.49888685  -1.86836082  -2.10873933
H   -0.11472879  -0.86422504  -2.46774083
C   -1.72297688  -0.67212812  -3.87900523
N   -2.35609864  -0.06272248  -4.61553301
C   -3.32093087   1.71038812   1.85852544
H   -3.60472454   0.86936041   1.26100245
H   -2.43958423   1.47074391   2.41592820
H   -3.12438688   2.54892727   1.22360684
C   -4.46383894   2.05887892   2.83007849
N   -5.31478594   2.31834616   3.55344390
C    0.75341426   2.48956307   1.42189169
H    0.37334302   1.84395400   2.18585175
H    1.69426846   2.89387246   1.73209546
H    0.88510984   1.93303493   0.51755116
C   -0.24323899   3.63784075   1.17747266
N   -0.98529263   4.49278568   0.99549158
C    2.68982234  -0.34923167  -0.98295225
H    3.02180819  -1.36492675  -0.92773374
H    2.90569416   0.04425811  -1.95427312
H    1.63498301  -0.30876885  -0.80809277
C    3.41949824   0.48804411   0.08388529
N    3.96277511   1.11143399   0.87819434
C    0.66382552  -3.82682152  -0.13205557
H    1.14020220  -4.49663276   0.55301256
H   -0.38200212  -3.77557685   0.08821159
H    1.09637735  -2.85272715  -0.03751371
C    0.86085829  -4.33851669  -1.57113380
N    1.00755814  -4.71949700  -2.64259295
C    1.83174942  -1.17151511   3.00230723
H    2.20545140  -0.96347547   3.98310615
H    0.85107954  -1.59307734   3.07627324
H    1.78813134  -0.26389830   2.43730432
C    2.76810855  -2.17049368   2.29741477
N    3.46527049  -2.91427864   1.77259030
Cl  -0.86669725  -0.65368760   0.67904079
