43
Energy:   -267.19021392
C   -1.42680723  -0.34330106  -2.21058410
H   -0.91228599  -1.03403109  -2.84545425
H   -0.77806775  -0.03732701  -1.41659666
H   -1.72177884   0.51307471  -2.78024309
C   -2.67649671  -1.02208224  -1.61970990
N   -3.60694733  -1.52746568  -1.17977719
C    2.40384441  -0.66059609  -2.13622736
H    2.52500972   0.24243536  -1.57519853
H    1.61009528  -1.23982205  -1.71271974
H    2.16758673  -0.42054208  -3.15183333
C    3.71189911  -1.47213371  -2.09151040
N    4.68580528  -2.07636035  -2.05821659
C   -2.98578759   0.80824767   1.49173627
H   -1.99785252   0.42987996   1.65211820
H   -3.63314275   0.00556937   1.20618779
H   -3.34771850   1.25447817   2.39438983
C   -2.95505803   1.86583457   0.37273420
N   -2.93217848   2.65325609  -0.46041371
C   -0.28720368   3.46164077   2.51951874
H    0.26134812   2.66599335   2.97879674
H    0.28063771   4.36663605   2.57815993
H   -0.47122850   3.22192154   1.49308381
C   -1.62911955   3.64927842   3.25140255
N   -2.62823690   3.78898318   3.79632332
C    0.52399666   3.00038058  -1.47152884
H    0.29851924   4.04589326  -1.50256685
H    1.43597783   2.84802551  -0.93303337
H   -0.27110627   2.47843821  -0.98133848
C    0.68029857   2.46610717  -2.90739849
N    0.79667244   2.06831633  -3.97646871
C   -0.95095967  -3.00147328   1.00366673
H   -1.99413353  -2.78317805   0.90861061
H   -0.44886275  -2.16172265   1.43681413
H   -0.82155601  -3.85757998   1.63234399
C   -0.35845682  -3.29211521  -0.38775974
N    0.08268849  -3.50851134  -1.42374000
C    2.94592120  -2.54261830   1.27432971
H    2.98753132  -1.72452375   1.96272646
H    2.30796778  -2.28666158   0.45432930
H    3.92965938  -2.75181457   0.90909663
C    2.38836118  -3.78736520   1.98940451
N    1.97323240  -4.71413585   2.52181020
Cl   0.83793256   0.41097085   0.99473569
