
                                 *****************
                                 * O   R   C   A *
                                 *****************

           --- An Ab Initio, DFT and Semiempirical electronic structure package ---

                  #######################################################
                  #                        -***-                        #
                  #          Department of theory and spectroscopy      #
                  #               Directorship: Frank Neese             #
                  #        Max Planck Institute fuer Kohlenforschung    #
                  #                Kaiser Wilhelm Platz 1               #
                  #                 D-45470 Muelheim/Ruhr               #
                  #                      Germany                        #
                  #                                                     #
                  #                  All rights reserved                #
                  #                        -***-                        #
                  #######################################################


                         Program Version 4.2.0 -  RELEASE  -


 With contributions from (in alphabetic order):
   Daniel Aravena         : Magnetic Suceptibility
   Michael Atanasov       : Ab Initio Ligand Field Theory (pilot matlab implementation)
   Alexander A. Auer      : GIAO ZORA, VPT2
   Ute Becker             : Parallelization
   Giovanni Bistoni       : ED, misc. LED, open-shell LED, HFLED
   Martin Brehm           : Molecular dynamics
   Dmytro Bykov           : SCF Hessian
   Vijay G. Chilkuri      : MRCI spin determinant printing, contributions to CSF-ICE
   Dipayan Datta          : RHF DLPNO-CCSD density
   Achintya Kumar Dutta   : EOM-CC, STEOM-CC
   Dmitry Ganyushin       : Spin-Orbit,Spin-Spin,Magnetic field MRCI
   Miquel Garcia          : C-PCM Hessian, Gaussian charge scheme
   Yang Guo               : DLPNO-NEVPT2, CIM, IAO-localization
   Andreas Hansen         : Spin unrestricted coupled pair/coupled cluster methods
   Benjamin Helmich-Paris : CASSCF linear response (MC-RPA)
   Lee Huntington         : MR-EOM, pCC
   Robert Izsak           : Overlap fitted RIJCOSX, COSX-SCS-MP3, EOM
   Christian Kollmar      : KDIIS, OOCD, Brueckner-CCSD(T), CCSD density
   Simone Kossmann        : Meta GGA functionals, TD-DFT gradient, OOMP2, MP2 Hessian
   Martin Krupicka        : AUTO-CI
   Lucas Lang             : DCDCAS
   Dagmar Lenk            : GEPOL surface, SMD
   Dimitrios Liakos       : Extrapolation schemes; Compound Job, initial MDCI parallelization
   Dimitrios Manganas     : Further ROCIS development; embedding schemes
   Dimitrios Pantazis     : SARC Basis sets
   Taras Petrenko         : DFT Hessian,TD-DFT gradient, ASA, ECA, R-Raman, ABS, FL, XAS/XES, NRVS
   Peter Pinski           : DLPNO-MP2, DLPNO-MP2 Gradient
   Christoph Reimann      : Effective Core Potentials
   Marius Retegan         : Local ZFS, SOC
   Christoph Riplinger    : Optimizer, TS searches, QM/MM, DLPNO-CCSD(T), (RO)-DLPNO pert. Triples
   Tobias Risthaus        : Range-separated hybrids, TD-DFT gradient, RPA, STAB
   Michael Roemelt        : Original ROCIS implementation
   Masaaki Saitow         : Open-shell DLPNO-CCSD energy and density
   Barbara Sandhoefer     : DKH picture change effects
   Avijit Sen             : IP-ROCIS
   Kantharuban Sivalingam : CASSCF convergence, NEVPT2, FIC-MRCI
   Bernardo de Souza      : ESD, SOC TD-DFT
   Georgi Stoychev        : AutoAux, RI-MP2 NMR
   Willem Van den Heuvel  : Paramagnetic NMR
   Boris Wezisla          : Elementary symmetry handling
   Frank Wennmohs         : Technical directorship


 We gratefully acknowledge several colleagues who have allowed us to
 interface, adapt or use parts of their codes:
   Stefan Grimme, W. Hujo, H. Kruse,             : VdW corrections, initial TS optimization,
                  C. Bannwarth                     DFT functionals, gCP, sTDA/sTD-DF
   Ed Valeev, F. Pavosevic, A. Kumar             : LibInt (2-el integral package), F12 methods
   Garnet Chan, S. Sharma, J. Yang, R. Olivares  : DMRG
   Ulf Ekstrom                                   : XCFun DFT Library
   Mihaly Kallay                                 : mrcc  (arbitrary order and MRCC methods)
   Andreas Klamt, Michael Diedenhofen            : otool_cosmo (COSMO solvation model)
   Jiri Pittner, Ondrej Demel                    : Mk-CCSD
   Frank Weinhold                                : gennbo (NPA and NBO analysis)
   Christopher J. Cramer and Donald G. Truhlar   : smd solvation model
   Lars Goerigk                                  : TD-DFT with DH, B97 family of functionals
   V. Asgeirsson, H. Jonsson                     : NEB implementation
   FAccTs GmbH                                   : IRC, NEB, NEB-TS, Multilevel, MM, QM/MM, CI optimization
   S Lehtola, MJT Oliveira, MAL Marques          : LibXC Library


 Your calculation uses the libint2 library for the computation of 2-el integrals
 For citations please refer to: http://libint.valeyev.net

 Your ORCA version has been built with support for libXC version: 4.2.3
 For citations please refer to: https://tddft.org/programs/libxc/

 This ORCA versions uses:
   CBLAS   interface :  Fast vector & matrix operations
   LAPACKE interface :  Fast linear algebra routines
   SCALAPACK package :  Parallel linear algebra routines


----- Orbital basis set information -----
Your calculation utilizes the basis: def2-TZVP
   F. Weigend and R. Ahlrichs, Phys. Chem. Chem. Phys. 7, 3297 (2005).

================================================================================
                                        WARNINGS
                       Please study these warnings very carefully!
================================================================================


WARNING: The frozen-core approximation for MP2-gradient calculations is turned on by default.

INFO   : the flag for use of LIBINT has been found!

================================================================================
                                       INPUT FILE
================================================================================
NAME = 12h2o.su.etal.mol2,3,5,6,8,9,11-orca.engrad-mp2.def2tzvp.frozencore.inp
|  1> # 12h2o.su.etal.mol2,3,5,6,8,9,11
|  2> ! MP2 def2-TZVP EnGrad TightSCF
|  3> 
|  4> %pal
|  5>     nprocs 6
|  6> end
|  7> 
|  8> %maxcore 8000
|  9> 
| 10> %scf
| 11>     ConvForced true
| 12> end
| 13> 
| 14> *xyz 0 1
| 15> O   0.923410000  -1.794470000  -2.768350000
| 16> H   1.359750000  -2.338250000  -3.430940000
| 17> H   1.303000000  -0.879480000  -2.865760000
| 18> O  -1.752130000  -0.741530000  -2.896280000
| 19> H  -2.036450000  -0.920500000  -1.984040000
| 20> H  -0.921210000  -1.242140000  -2.984230000
| 21> O   0.885520000  -1.737840000   0.052730000
| 22> H   1.284090000  -0.839590000   0.017130000
| 23> H   1.032320000  -2.090180000  -0.841890000
| 24> O   1.737840000   0.885520000  -0.052730000
| 25> H   2.090180000   1.032320000   0.841890000
| 26> H   0.839590000   1.284090000  -0.017130000
| 27> O   1.752130000   0.741530000  -2.896280000
| 28> H   2.036450000   0.920500000  -1.984040000
| 29> H   0.921210000   1.242140000  -2.984230000
| 30> O   0.741530000  -1.752130000   2.896280000
| 31> H   0.920500000  -2.036450000   1.984040000
| 32> H   1.242140000  -0.921210000   2.984230000
| 33> O  -0.741530000   1.752130000   2.896280000
| 34> H  -0.920500000   2.036450000   1.984040000
| 35> H  -1.242140000   0.921210000   2.984230000
| 36> *
| 37> 
| 38>                          ****END OF INPUT****
================================================================================

                     *******************************
                     * Energy+Gradient Calculation *
                     *******************************

---------------------------------
CARTESIAN COORDINATES (ANGSTROEM)
---------------------------------
  O      0.923410   -1.794470   -2.768350
  H      1.359750   -2.338250   -3.430940
  H      1.303000   -0.879480   -2.865760
  O     -1.752130   -0.741530   -2.896280
  H     -2.036450   -0.920500   -1.984040
  H     -0.921210   -1.242140   -2.984230
  O      0.885520   -1.737840    0.052730
  H      1.284090   -0.839590    0.017130
  H      1.032320   -2.090180   -0.841890
  O      1.737840    0.885520   -0.052730
  H      2.090180    1.032320    0.841890
  H      0.839590    1.284090   -0.017130
  O      1.752130    0.741530   -2.896280
  H      2.036450    0.920500   -1.984040
  H      0.921210    1.242140   -2.984230
  O      0.741530   -1.752130    2.896280
  H      0.920500   -2.036450    1.984040
  H      1.242140   -0.921210    2.984230
  O     -0.741530    1.752130    2.896280
  H     -0.920500    2.036450    1.984040
  H     -1.242140    0.921210    2.984230

----------------------------
CARTESIAN COORDINATES (A.U.)
----------------------------
  NO LB      ZA    FRAG     MASS         X           Y           Z
   0 O     8.0000    0    15.999    1.744992   -3.391057   -5.231423
   1 H     1.0000    0     1.008    2.569555   -4.418652   -6.483537
   2 H     1.0000    0     1.008    2.462313   -1.661976   -5.415502
   3 O     8.0000    0    15.999   -3.311046   -1.401289   -5.473176
   4 H     1.0000    0     1.008   -3.848333   -1.739493   -3.749292
   5 H     1.0000    0     1.008   -1.740835   -2.347304   -5.639377
   6 O     8.0000    0    15.999    1.673390   -3.284042    0.099645
   7 H     1.0000    0     1.008    2.426578   -1.586595    0.032371
   8 H     1.0000    0     1.008    1.950802   -3.949868   -1.590942
   9 O     8.0000    0    15.999    3.284042    1.673390   -0.099645
  10 H     1.0000    0     1.008    3.949868    1.950802    1.590942
  11 H     1.0000    0     1.008    1.586595    2.426578   -0.032371
  12 O     8.0000    0    15.999    3.311046    1.401289   -5.473176
  13 H     1.0000    0     1.008    3.848333    1.739493   -3.749292
  14 H     1.0000    0     1.008    1.740835    2.347304   -5.639377
  15 O     8.0000    0    15.999    1.401289   -3.311046    5.473176
  16 H     1.0000    0     1.008    1.739493   -3.848333    3.749292
  17 H     1.0000    0     1.008    2.347304   -1.740835    5.639377
  18 O     8.0000    0    15.999   -1.401289    3.311046    5.473176
  19 H     1.0000    0     1.008   -1.739493    3.848333    3.749292
  20 H     1.0000    0     1.008   -2.347304    1.740835    5.639377

--------------------------------
INTERNAL COORDINATES (ANGSTROEM)
--------------------------------
 O      0   0   0     0.000000000000     0.00000000     0.00000000
 H      1   0   0     0.961828878803     0.00000000     0.00000000
 H      1   2   0     0.995381322057   106.21731035     0.00000000
 O      1   2   3     2.878117964938   126.72240291   103.59081140
 H      4   1   2     0.972136791249    99.37069922   136.92500856
 H      4   1   2     0.974050112161    12.30570018    24.40947955
 O      1   2   3     2.821902722526   134.92023192   245.52250503
 H      7   1   2     0.983350632989    88.66470709   117.24500673
 H      7   1   2     0.972645187106    21.75017499   343.08822912
 O      8   7   1     1.785153773264   170.81379649    89.95043540
 H     10   8   7     0.972645187106   101.65007623   109.44492584
 H     10   8   7     0.983350632989    99.09581498     3.33484705
 O      3   1   2     1.682356278379   171.61043709   164.26103839
 H     13   3   1     0.972136791249   103.79460456    70.64587838
 H     13   3   1     0.974050112161   105.61118924   321.69395179
 O      7   1   2     2.847229166523   177.43098014   265.14132070
 H     16   7   9     0.972136791249    19.08819947     8.79504813
 H     16   7   9     0.974050112161    93.43428486   132.89132802
 O     18  16   7     3.330079372477   112.10393238    88.58598660
 H     19  18  16     0.972136791249   111.66865871   274.58268625
 H     19  18  16     0.974050112161    67.60081190    11.19262967

---------------------------
INTERNAL COORDINATES (A.U.)
---------------------------
 O      0   0   0     0.000000000000     0.00000000     0.00000000
 H      1   0   0     1.817593168635     0.00000000     0.00000000
 H      1   2   0     1.880998097508   106.21731035     0.00000000
 O      1   2   3     5.438854734852   126.72240291   103.59081140
 H      4   1   2     1.837072300170    99.37069922   136.92500856
 H      4   1   2     1.840687952699    12.30570018    24.40947955
 O      1   2   3     5.332623322141   134.92023192   245.52250503
 H      7   1   2     1.858263389967    88.66470709   117.24500673
 H      7   1   2     1.838033029106    21.75017499   343.08822912
 O      8   7   1     3.373451738406   170.81379649    89.95043540
 H     10   8   7     1.838033029106   101.65007623   109.44492584
 H     10   8   7     1.858263389967    99.09581498     3.33484705
 O      3   1   2     3.179192625819   171.61043709   164.26103839
 H     13   3   1     1.837072300170   103.79460456    70.64587838
 H     13   3   1     1.840687952699   105.61118924   321.69395179
 O      7   1   2     5.380483365242   177.43098014   265.14132070
 H     16   7   9     1.837072300170    19.08819947     8.79504813
 H     16   7   9     1.840687952699    93.43428486   132.89132802
 O     18  16   7     6.292938018203   112.10393238    88.58598660
 H     19  18  16     1.837072300170   111.66865871   274.58268625
 H     19  18  16     1.840687952699    67.60081190    11.19262967

---------------------
BASIS SET INFORMATION
---------------------
There are 2 groups of distinct atoms

 Group   1 Type O   : 11s6p2d1f contracted to 5s3p2d1f pattern {62111/411/11/1}
 Group   2 Type H   : 5s1p contracted to 3s1p pattern {311/1}

Atom   0O    basis set group =>   1
Atom   1H    basis set group =>   2
Atom   2H    basis set group =>   2
Atom   3O    basis set group =>   1
Atom   4H    basis set group =>   2
Atom   5H    basis set group =>   2
Atom   6O    basis set group =>   1
Atom   7H    basis set group =>   2
Atom   8H    basis set group =>   2
Atom   9O    basis set group =>   1
Atom  10H    basis set group =>   2
Atom  11H    basis set group =>   2
Atom  12O    basis set group =>   1
Atom  13H    basis set group =>   2
Atom  14H    basis set group =>   2
Atom  15O    basis set group =>   1
Atom  16H    basis set group =>   2
Atom  17H    basis set group =>   2
Atom  18O    basis set group =>   1
Atom  19H    basis set group =>   2
Atom  20H    basis set group =>   2


           ************************************************************
           *        Program running with 6 parallel MPI-processes     *
           *              working on a common directory               *
           ************************************************************
------------------------------------------------------------------------------
                           ORCA GTO INTEGRAL CALCULATION
------------------------------------------------------------------------------

                         BASIS SET STATISTICS AND STARTUP INFO

 # of primitive gaussian shells          ...  224
 # of primitive gaussian functions       ...  434
 # of contracted shells                  ...  133
 # of contracted basis functions         ...  301
 Highest angular momentum                ...    3
 Maximum contraction depth               ...    6
 Integral package used                   ... LIBINT
 Integral threshhold            Thresh   ...  2.500e-11
 Primitive cut-off              TCut     ...  2.500e-12


------------------------------ INTEGRAL EVALUATION ----------------------------


 * One electron integrals 
 Pre-screening matrix                    ... done
 Shell pair data                         ... done (   0.002 sec)



           ************************************************************
           *        Program running with 6 parallel MPI-processes     *
           *              working on a common directory               *
           ************************************************************
-------------------------------------------------------------------------------
                                 ORCA SCF
-------------------------------------------------------------------------------

------------
SCF SETTINGS
------------
Hamiltonian:
 Ab initio Hamiltonian  Method          .... Hartree-Fock(GTOs)


General Settings:
 Integral files         IntName         .... 12h2o.su.etal.mol2,3,5,6,8,9,11-orca.engrad-mp2.def2tzvp.frozencore
 Hartree-Fock type      HFTyp           .... RHF
 Total Charge           Charge          ....    0
 Multiplicity           Mult            ....    1
 Number of Electrons    NEL             ....   70
 Basis Dimension        Dim             ....  301
 Nuclear Repulsion      ENuc            ....    346.6278919353 Eh

Convergence Acceleration:
 DIIS                   CNVDIIS         .... on
   Start iteration      DIISMaxIt       ....    12
   Startup error        DIISStart       ....  0.200000
   # of expansion vecs  DIISMaxEq       ....     5
   Bias factor          DIISBfac        ....   1.050
   Max. coefficient     DIISMaxC        ....  10.000
 Newton-Raphson         CNVNR           .... off
 SOSCF                  CNVSOSCF        .... on
   Start iteration      SOSCFMaxIt      ....   150
   Startup grad/error   SOSCFStart      ....  0.003300
 Level Shifting         CNVShift        .... on
   Level shift para.    LevelShift      ....    0.2500
   Turn off err/grad.   ShiftErr        ....    0.0010
 Zerner damping         CNVZerner       .... off
 Static damping         CNVDamp         .... on
   Fraction old density DampFac         ....    0.7000
   Max. Damping (<1)    DampMax         ....    0.9800
   Min. Damping (>=0)   DampMin         ....    0.0000
   Turn off err/grad.   DampErr         ....    0.1000
 Fernandez-Rico         CNVRico         .... off

SCF Procedure:
 Maximum # iterations   MaxIter         ....   125
 SCF integral mode      SCFMode         .... Direct
   Integral package                     .... LIBINT
 Reset frequency        DirectResetFreq ....    20
 Integral Threshold     Thresh          ....  2.500e-11 Eh
 Primitive CutOff       TCut            ....  2.500e-12 Eh

Convergence Tolerance:
 Convergence Check Mode ConvCheckMode   .... Total+1el-Energy
 Convergence forced     ConvForced      .... 1
 Energy Change          TolE            ....  1.000e-08 Eh
 1-El. energy change                    ....  1.000e-05 Eh
 Orbital Gradient       TolG            ....  1.000e-05
 Orbital Rotation angle TolX            ....  1.000e-05
 DIIS Error             TolErr          ....  5.000e-07


Diagonalization of the overlap matrix:
Smallest eigenvalue                        ... 3.750e-03
Time for diagonalization                   ...    0.013 sec
Threshold for overlap eigenvalues          ... 1.000e-08
Number of eigenvalues below threshold      ... 0
Time for construction of square roots      ...    0.007 sec
Total time needed                          ...    0.020 sec

-------------------
DFT GRID GENERATION
-------------------

General Integration Accuracy     IntAcc      ...  4.340
Radial Grid Type                 RadialGrid  ... Gauss-Chebyshev
Angular Grid (max. acc.)         AngularGrid ... Lebedev-110
Angular grid pruning method      GridPruning ... 3 (G Style)
Weight generation scheme         WeightScheme... Becke
Basis function cutoff            BFCut       ...    1.0000e-11
Integration weight cutoff        WCut        ...    1.0000e-14
Grids for H and He will be reduced by one unit

# of grid points (after initial pruning)     ...  23128 (   0.0 sec)
# of grid points (after weights+screening)   ...  21715 (   0.0 sec)
nearest neighbour list constructed           ...    0.0 sec
Grid point re-assignment to atoms done       ...    0.0 sec
Grid point division into batches done        ...    0.0 sec
Reduced shell lists constructed in    0.0 sec

Total number of grid points                  ...    21715
Total number of batches                      ...      351
Average number of points per batch           ...       61
Average number of grid points per atom       ...     1034
Average number of shells per batch           ...    64.75 (48.68%)
Average number of basis functions per batch  ...   132.68 (44.08%)
Average number of large shells per batch     ...    45.17 (69.76%)
Average number of large basis fcns per batch ...    90.30 (68.06%)
Maximum spatial batch extension              ...  16.16, 16.27, 16.17 au
Average spatial batch extension              ...   0.67,  0.57,  0.58 au

Time for grid setup =    0.073 sec

------------------------------
INITIAL GUESS: MODEL POTENTIAL
------------------------------
Loading Hartree-Fock densities                     ... done
Calculating cut-offs                               ... done
Setting up the integral package                    ... done
Initializing the effective Hamiltonian             ... done
Starting the Coulomb interaction                   ... done (   0.0 sec)
Reading the grid                                   ... done
Mapping shells                                     ... done
Starting the XC term evaluation                    ... done (   0.0 sec)
Transforming the Hamiltonian                       ... done (   0.0 sec)
Diagonalizing the Hamiltonian                      ... done (   0.0 sec)
Back transforming the eigenvectors                 ... done (   0.0 sec)
Now organizing SCF variables                       ... done
                      ------------------
                      INITIAL GUESS DONE (   0.2 sec)
                      ------------------
--------------
SCF ITERATIONS
--------------
ITER       Energy         Delta-E        Max-DP      RMS-DP      [F,P]     Damp
               ***  Starting incremental Fock matrix formation  ***
  0   -531.8061356821   0.000000000000 0.04355869  0.00090143  0.3472897 0.7000
  1   -532.0528319280  -0.246696245974 0.02884434  0.00062420  0.2169441 0.7000
                               ***Turning on DIIS***
  2   -532.1832058820  -0.130373953942 0.01654259  0.00034813  0.1637905 0.7000
  3   -533.3274056785  -1.144199796486 0.00733059  0.00015911  0.1218376 0.7000
  4   -533.0925883928   0.234817285669 0.01626761  0.00036871  0.0861489 0.0000
  5   -532.4809578274   0.611630565428 0.00234844  0.00005900  0.0058889 0.0000
                      *** Initiating the SOSCF procedure ***
                           *** Shutting down DIIS ***
                      *** Re-Reading the Fockian *** 
                      *** Removing any level shift *** 
ITER      Energy       Delta-E        Grad      Rot      Max-DP    RMS-DP
  6   -532.44404899   0.0369088367  0.000784  0.000784  0.001398  0.000036
               *** Restarting incremental Fock matrix formation ***
  7   -532.43472853   0.0093204561  0.000236  0.000337  0.000621  0.000016
  8   -532.43473895  -0.0000104176  0.000161  0.000291  0.000472  0.000013
  9   -532.43474143  -0.0000024758  0.000081  0.000051  0.000111  0.000002
 10   -532.43474164  -0.0000002070  0.000012  0.000006  0.000020  0.000000
                  ***Gradient check signals convergence***
              ***Rediagonalizing the Fockian in SOSCF/NRSCF***

               *****************************************************
               *                     SUCCESS                       *
               *           SCF CONVERGED AFTER  11 CYCLES          *
               *****************************************************


----------------
TOTAL SCF ENERGY
----------------

Total Energy       :         -532.43474164 Eh          -14488.28589 eV

Components:
Nuclear Repulsion  :          346.62789194 Eh            9432.22446 eV
Electronic Energy  :         -879.06263357 Eh          -23920.51035 eV
One Electron Energy:        -1425.35906912 Eh          -38785.99211 eV
Two Electron Energy:          546.29643555 Eh           14865.48176 eV

Virial components:
Potential Energy   :        -1064.17634541 Eh          -28957.71054 eV
Kinetic Energy     :          531.74160378 Eh           14469.42465 eV
Virial Ratio       :            2.00130352


---------------
SCF CONVERGENCE
---------------

  Last Energy change         ...   -3.9652e-09  Tolerance :   1.0000e-08
  Last MAX-Density change    ...    6.1975e-06  Tolerance :   1.0000e-07
  Last RMS-Density change    ...    1.3682e-07  Tolerance :   5.0000e-09
  Last Orbital Gradient      ...    1.9862e-06  Tolerance :   1.0000e-05
  Last Orbital Rotation      ...    2.2411e-06  Tolerance :   1.0000e-05

             **** THE GBW FILE WAS UPDATED (12h2o.su.etal.mol2,3,5,6,8,9,11-orca.engrad-mp2.def2tzvp.frozencore.gbw) ****
             **** DENSITY FILE WAS UPDATED (12h2o.su.etal.mol2,3,5,6,8,9,11-orca.engrad-mp2.def2tzvp.frozencore.scfp) ****
             **** ENERGY FILE WAS UPDATED (12h2o.su.etal.mol2,3,5,6,8,9,11-orca.engrad-mp2.def2tzvp.frozencore.en.tmp) ****
             **** THE GBW FILE WAS UPDATED (12h2o.su.etal.mol2,3,5,6,8,9,11-orca.engrad-mp2.def2tzvp.frozencore.gbw) ****
             **** DENSITY FILE WAS UPDATED (12h2o.su.etal.mol2,3,5,6,8,9,11-orca.engrad-mp2.def2tzvp.frozencore.scfp) ****
----------------
ORBITAL ENERGIES
----------------

  NO   OCC          E(Eh)            E(eV) 
   0   2.0000     -20.641424      -561.6817 
   1   2.0000     -20.599008      -560.5275 
   2   2.0000     -20.582817      -560.0869 
   3   2.0000     -20.571270      -559.7727 
   4   2.0000     -20.540397      -558.9326 
   5   2.0000     -20.539288      -558.9024 
   6   2.0000     -20.533321      -558.7401 
   7   2.0000      -1.424613       -38.7657 
   8   2.0000      -1.388466       -37.7821 
   9   2.0000      -1.361693       -37.0536 
  10   2.0000      -1.357154       -36.9300 
  11   2.0000      -1.328454       -36.1491 
  12   2.0000      -1.321245       -35.9529 
  13   2.0000      -1.313327       -35.7374 
  14   2.0000      -0.783883       -21.3306 
  15   2.0000      -0.749005       -20.3815 
  16   2.0000      -0.738703       -20.1011 
  17   2.0000      -0.724317       -19.7097 
  18   2.0000      -0.712037       -19.3755 
  19   2.0000      -0.690863       -18.7993 
  20   2.0000      -0.683788       -18.6068 
  21   2.0000      -0.667373       -18.1601 
  22   2.0000      -0.626818       -17.0566 
  23   2.0000      -0.612700       -16.6724 
  24   2.0000      -0.599221       -16.3056 
  25   2.0000      -0.587947       -15.9988 
  26   2.0000      -0.564871       -15.3709 
  27   2.0000      -0.561998       -15.2927 
  28   2.0000      -0.542816       -14.7708 
  29   2.0000      -0.535042       -14.5592 
  30   2.0000      -0.526722       -14.3328 
  31   2.0000      -0.514678       -14.0051 
  32   2.0000      -0.492080       -13.3902 
  33   2.0000      -0.486894       -13.2491 
  34   2.0000      -0.478973       -13.0335 
  35   0.0000       0.060315         1.6413 
  36   0.0000       0.117679         3.2022 
  37   0.0000       0.122252         3.3266 
  38   0.0000       0.144711         3.9378 
  39   0.0000       0.166828         4.5396 
  40   0.0000       0.172195         4.6857 
  41   0.0000       0.209004         5.6873 
  42   0.0000       0.215774         5.8715 
  43   0.0000       0.235382         6.4051 
  44   0.0000       0.250585         6.8188 
  45   0.0000       0.289793         7.8857 
  46   0.0000       0.304989         8.2992 
  47   0.0000       0.314144         8.5483 
  48   0.0000       0.337265         9.1774 
  49   0.0000       0.406697        11.0668 
  50   0.0000       0.457382        12.4460 
  51   0.0000       0.472387        12.8543 
  52   0.0000       0.496823        13.5192 
  53   0.0000       0.502631        13.6773 
  54   0.0000       0.511553        13.9201 
  55   0.0000       0.522409        14.2155 
  56   0.0000       0.531219        14.4552 
  57   0.0000       0.534292        14.5388 
  58   0.0000       0.552178        15.0255 
  59   0.0000       0.571466        15.5504 
  60   0.0000       0.575980        15.6732 
  61   0.0000       0.581857        15.8331 
  62   0.0000       0.591878        16.1058 
  63   0.0000       0.608680        16.5630 
  64   0.0000       0.615780        16.7562 
  65   0.0000       0.624381        16.9903 
  66   0.0000       0.629816        17.1382 
  67   0.0000       0.637399        17.3445 
  68   0.0000       0.668611        18.1938 
  69   0.0000       0.675073        18.3697 
  70   0.0000       0.696821        18.9615 
  71   0.0000       0.704156        19.1611 
  72   0.0000       0.720783        19.6135 
  73   0.0000       0.732930        19.9440 
  74   0.0000       0.754011        20.5177 
  75   0.0000       0.758559        20.6414 
  76   0.0000       0.763642        20.7798 
  77   0.0000       0.770819        20.9750 
  78   0.0000       0.782320        21.2880 
  79   0.0000       0.801284        21.8040 
  80   0.0000       0.815410        22.1884 
  81   0.0000       0.820656        22.3312 
  82   0.0000       0.840874        22.8814 
  83   0.0000       0.858025        23.3480 
  84   0.0000       0.867801        23.6141 
  85   0.0000       0.924963        25.1695 
  86   0.0000       0.939156        25.5557 
  87   0.0000       1.013234        27.5715 
  88   0.0000       1.042813        28.3764 
  89   0.0000       1.064131        28.9565 
  90   0.0000       1.117297        30.4032 
  91   0.0000       1.332528        36.2599 
  92   0.0000       1.333728        36.2926 
  93   0.0000       1.373863        37.3847 
  94   0.0000       1.388839        37.7922 
  95   0.0000       1.397444        38.0264 
  96   0.0000       1.417290        38.5664 
  97   0.0000       1.423052        38.7232 
  98   0.0000       1.426180        38.8083 
  99   0.0000       1.433505        39.0077 
 100   0.0000       1.449620        39.4462 
 101   0.0000       1.489413        40.5290 
 102   0.0000       1.497602        40.7518 
 103   0.0000       1.500962        40.8433 
 104   0.0000       1.510332        41.0982 
 105   0.0000       1.531538        41.6753 
 106   0.0000       1.547148        42.1001 
 107   0.0000       1.560905        42.4744 
 108   0.0000       1.587756        43.2050 
 109   0.0000       1.605923        43.6994 
 110   0.0000       1.612709        43.8840 
 111   0.0000       1.650171        44.9034 
 112   0.0000       1.776036        48.3284 
 113   0.0000       1.781264        48.4707 
 114   0.0000       1.795243        48.8510 
 115   0.0000       1.812030        49.3078 
 116   0.0000       1.855732        50.4970 
 117   0.0000       1.864197        50.7274 
 118   0.0000       1.871624        50.9295 
 119   0.0000       1.902245        51.7627 
 120   0.0000       1.914007        52.0828 
 121   0.0000       1.940006        52.7902 
 122   0.0000       1.961245        53.3682 
 123   0.0000       1.990129        54.1542 
 124   0.0000       2.003355        54.5141 
 125   0.0000       2.007727        54.6330 
 126   0.0000       2.022014        55.0218 
 127   0.0000       2.052052        55.8392 
 128   0.0000       2.083140        56.6851 
 129   0.0000       2.104707        57.2720 
 130   0.0000       2.125224        57.8303 
 131   0.0000       2.160436        58.7884 
 132   0.0000       2.187278        59.5188 
 133   0.0000       2.230759        60.7020 
 134   0.0000       2.271794        61.8187 
 135   0.0000       2.278066        61.9893 
 136   0.0000       2.287047        62.2337 
 137   0.0000       2.296943        62.5030 
 138   0.0000       2.328539        63.3628 
 139   0.0000       2.332035        63.4579 
 140   0.0000       2.338811        63.6423 
 141   0.0000       2.345510        63.8246 
 142   0.0000       2.347362        63.8750 
 143   0.0000       2.360837        64.2416 
 144   0.0000       2.377567        64.6969 
 145   0.0000       2.388392        64.9915 
 146   0.0000       2.399755        65.3007 
 147   0.0000       2.411540        65.6213 
 148   0.0000       2.443445        66.4895 
 149   0.0000       2.469017        67.1854 
 150   0.0000       2.489093        67.7317 
 151   0.0000       2.518828        68.5408 
 152   0.0000       2.534642        68.9711 
 153   0.0000       2.549285        69.3696 
 154   0.0000       2.550431        69.4008 
 155   0.0000       2.571953        69.9864 
 156   0.0000       2.609672        71.0128 
 157   0.0000       2.622284        71.3560 
 158   0.0000       2.632102        71.6231 
 159   0.0000       2.638936        71.8091 
 160   0.0000       2.650685        72.1288 
 161   0.0000       2.655845        72.2692 
 162   0.0000       2.667009        72.5730 
 163   0.0000       2.693578        73.2960 
 164   0.0000       2.723109        74.0995 
 165   0.0000       2.726754        74.1988 
 166   0.0000       2.780682        75.6662 
 167   0.0000       2.792171        75.9788 
 168   0.0000       2.866249        77.9946 
 169   0.0000       2.901384        78.9507 
 170   0.0000       2.925952        79.6192 
 171   0.0000       2.934625        79.8552 
 172   0.0000       2.938670        79.9653 
 173   0.0000       2.950119        80.2768 
 174   0.0000       2.961350        80.5824 
 175   0.0000       2.988444        81.3197 
 176   0.0000       2.994698        81.4899 
 177   0.0000       3.006149        81.8015 
 178   0.0000       3.022878        82.2567 
 179   0.0000       3.036745        82.6340 
 180   0.0000       3.046754        82.9064 
 181   0.0000       3.060878        83.2907 
 182   0.0000       3.102907        84.4344 
 183   0.0000       3.109281        84.6078 
 184   0.0000       3.129782        85.1657 
 185   0.0000       3.147771        85.6552 
 186   0.0000       3.164388        86.1074 
 187   0.0000       3.195260        86.9475 
 188   0.0000       3.219538        87.6081 
 189   0.0000       3.250750        88.4574 
 190   0.0000       3.253126        88.5221 
 191   0.0000       3.288996        89.4981 
 192   0.0000       3.343508        90.9815 
 193   0.0000       3.367925        91.6459 
 194   0.0000       3.449950        93.8779 
 195   0.0000       3.511808        95.5612 
 196   0.0000       3.980779       108.3225 
 197   0.0000       4.003750       108.9476 
 198   0.0000       4.033695       109.7624 
 199   0.0000       4.062376       110.5429 
 200   0.0000       4.069436       110.7350 
 201   0.0000       4.119664       112.1018 
 202   0.0000       4.141656       112.7002 
 203   0.0000       4.229578       115.0927 
 204   0.0000       4.282205       116.5247 
 205   0.0000       4.289311       116.7181 
 206   0.0000       4.331872       117.8762 
 207   0.0000       4.340732       118.1173 
 208   0.0000       4.365500       118.7913 
 209   0.0000       4.375039       119.0509 
 210   0.0000       5.466936       148.7629 
 211   0.0000       5.506335       149.8350 
 212   0.0000       5.527878       150.4212 
 213   0.0000       5.534287       150.5956 
 214   0.0000       5.564806       151.4261 
 215   0.0000       5.566930       151.4839 
 216   0.0000       5.573959       151.6751 
 217   0.0000       5.594149       152.2245 
 218   0.0000       5.629615       153.1896 
 219   0.0000       5.632234       153.2609 
 220   0.0000       5.653352       153.8355 
 221   0.0000       5.673390       154.3808 
 222   0.0000       5.675657       154.4425 
 223   0.0000       5.679846       154.5565 
 224   0.0000       5.745022       156.3300 
 225   0.0000       5.769725       157.0022 
 226   0.0000       5.785579       157.4336 
 227   0.0000       5.801401       157.8642 
 228   0.0000       5.805906       157.9867 
 229   0.0000       5.811594       158.1415 
 230   0.0000       5.828376       158.5982 
 231   0.0000       5.834126       158.7546 
 232   0.0000       5.840204       158.9200 
 233   0.0000       5.844515       159.0373 
 234   0.0000       5.850304       159.1949 
 235   0.0000       5.853466       159.2809 
 236   0.0000       5.862260       159.5202 
 237   0.0000       5.874454       159.8520 
 238   0.0000       5.880287       160.0107 
 239   0.0000       5.890790       160.2965 
 240   0.0000       5.900114       160.5503 
 241   0.0000       5.916060       160.9842 
 242   0.0000       5.918772       161.0580 
 243   0.0000       5.923288       161.1809 
 244   0.0000       5.934289       161.4802 
 245   0.0000       6.392190       173.9403 
 246   0.0000       6.448365       175.4689 
 247   0.0000       6.460143       175.7894 
 248   0.0000       6.469084       176.0327 
 249   0.0000       6.479525       176.3168 
 250   0.0000       6.508916       177.1166 
 251   0.0000       6.519145       177.3949 
 252   0.0000       6.628933       180.3824 
 253   0.0000       6.669570       181.4882 
 254   0.0000       6.674095       181.6114 
 255   0.0000       6.699108       182.2920 
 256   0.0000       6.715119       182.7277 
 257   0.0000       6.722410       182.9261 
 258   0.0000       6.762694       184.0223 
 259   0.0000       6.808854       185.2783 
 260   0.0000       6.811743       185.3570 
 261   0.0000       6.816766       185.4936 
 262   0.0000       6.835423       186.0013 
 263   0.0000       6.852256       186.4594 
 264   0.0000       6.858541       186.6304 
 265   0.0000       6.867407       186.8717 
 266   0.0000       6.884266       187.3304 
 267   0.0000       6.894250       187.6021 
 268   0.0000       6.900763       187.7793 
 269   0.0000       6.911168       188.0624 
 270   0.0000       6.915301       188.1749 
 271   0.0000       6.925503       188.4525 
 272   0.0000       6.927010       188.4935 
 273   0.0000       6.945630       189.0002 
 274   0.0000       6.974604       189.7886 
 275   0.0000       6.981700       189.9817 
 276   0.0000       6.986059       190.1003 
 277   0.0000       6.996871       190.3945 
 278   0.0000       7.053449       191.9341 
 279   0.0000       7.065991       192.2754 
 280   0.0000       7.323923       199.2941 
 281   0.0000       7.344574       199.8560 
 282   0.0000       7.370594       200.5641 
 283   0.0000       7.399169       201.3416 
 284   0.0000       7.417904       201.8514 
 285   0.0000       7.444905       202.5862 
 286   0.0000       7.469806       203.2638 
 287   0.0000       7.479561       203.5292 
 288   0.0000       7.491588       203.8565 
 289   0.0000       7.508299       204.3112 
 290   0.0000       7.556555       205.6243 
 291   0.0000       7.563513       205.8137 
 292   0.0000       7.576010       206.1537 
 293   0.0000       7.639519       207.8819 
 294   0.0000      44.813385      1219.4342 
 295   0.0000      44.910510      1222.0771 
 296   0.0000      44.937596      1222.8141 
 297   0.0000      44.947483      1223.0832 
 298   0.0000      44.996646      1224.4210 
 299   0.0000      45.015923      1224.9455 
 300   0.0000      45.081062      1226.7181 

                    ********************************
                    * MULLIKEN POPULATION ANALYSIS *
                    ********************************

-----------------------
MULLIKEN ATOMIC CHARGES
-----------------------
   0 O :   -0.787790
   1 H :    0.360520
   2 H :    0.412002
   3 O :   -0.739018
   4 H :    0.340484
   5 H :    0.384192
   6 O :   -0.774530
   7 H :    0.356899
   8 H :    0.393577
   9 O :   -0.739992
  10 H :    0.389517
  11 H :    0.370342
  12 O :   -0.730748
  13 H :    0.401853
  14 H :    0.367384
  15 O :   -0.720098
  16 H :    0.395236
  17 H :    0.318329
  18 O :   -0.697608
  19 H :    0.329459
  20 H :    0.369990
Sum of atomic charges:   -0.0000000

--------------------------------
MULLIKEN REDUCED ORBITAL CHARGES
--------------------------------
  0 O s       :     3.808689  s :     3.808689
      pz      :     1.724229  p :     4.955515
      px      :     1.795045
      py      :     1.436242
      dz2     :     0.003654  d :     0.022198
      dxz     :     0.005102
      dyz     :     0.004380
      dx2y2   :     0.002247
      dxy     :     0.006815
      f0      :     0.000081  f :     0.001388
      f+1     :     0.000170
      f-1     :     0.000316
      f+2     :     0.000061
      f-2     :     0.000346
      f+3     :     0.000333
      f-3     :     0.000083
  1 H s       :     0.594130  s :     0.594130
      pz      :     0.016865  p :     0.045350
      px      :     0.014711
      py      :     0.013774
  2 H s       :     0.532395  s :     0.532395
      pz      :     0.010048  p :     0.055603
      px      :     0.013159
      py      :     0.032397
  3 O s       :     3.810234  s :     3.810234
      pz      :     1.497264  p :     4.902054
      px      :     1.581549
      py      :     1.823241
      dz2     :     0.012007  d :     0.025251
      dxz     :     0.001256
      dyz     :     0.002881
      dx2y2   :     0.002036
      dxy     :     0.007071
      f0      :     0.000272  f :     0.001479
      f+1     :     0.000380
      f-1     :     0.000168
      f+2     :     0.000056
      f-2     :     0.000056
      f+3     :     0.000063
      f-3     :     0.000484
  4 H s       :     0.614874  s :     0.614874
      pz      :     0.018791  p :     0.044642
      px      :     0.012175
      py      :     0.013676
  5 H s       :     0.565687  s :     0.565687
      pz      :     0.009779  p :     0.050121
      px      :     0.024018
      py      :     0.016324
  6 O s       :     3.805613  s :     3.805613
      pz      :     1.592872  p :     4.944862
      px      :     1.875053
      py      :     1.476937
      dz2     :     0.009813  d :     0.022645
      dxz     :     0.002311
      dyz     :     0.002410
      dx2y2   :     0.002956
      dxy     :     0.005157
      f0      :     0.000182  f :     0.001409
      f+1     :     0.000118
      f-1     :     0.000423
      f+2     :     0.000078
      f-2     :     0.000036
      f+3     :     0.000453
      f-3     :     0.000119
  7 H s       :     0.589304  s :     0.589304
      pz      :     0.009724  p :     0.053797
      px      :     0.016241
      py      :     0.027832
  8 H s       :     0.557087  s :     0.557087
      pz      :     0.024614  p :     0.049336
      px      :     0.013176
      py      :     0.011546
  9 O s       :     3.803174  s :     3.803174
      pz      :     1.580046  p :     4.910967
      px      :     1.475102
      py      :     1.855820
      dz2     :     0.010975  d :     0.024403
      dxz     :     0.002573
      dyz     :     0.002133
      dx2y2   :     0.003540
      dxy     :     0.005182
      f0      :     0.000189  f :     0.001447
      f+1     :     0.000454
      f-1     :     0.000119
      f+2     :     0.000071
      f-2     :     0.000038
      f+3     :     0.000113
      f-3     :     0.000463
 10 H s       :     0.566877  s :     0.566877
      pz      :     0.019237  p :     0.043605
      px      :     0.011394
      py      :     0.012974
 11 H s       :     0.588014  s :     0.588014
      pz      :     0.009103  p :     0.041645
      px      :     0.018681
      py      :     0.013861
 12 O s       :     3.798446  s :     3.798446
      pz      :     1.568230  p :     4.905616
      px      :     1.552390
      py      :     1.784997
      dz2     :     0.012123  d :     0.025286
      dxz     :     0.001235
      dyz     :     0.002390
      dx2y2   :     0.002467
      dxy     :     0.007071
      f0      :     0.000230  f :     0.001400
      f+1     :     0.000383
      f-1     :     0.000156
      f+2     :     0.000050
      f-2     :     0.000055
      f+3     :     0.000051
      f-3     :     0.000475
 13 H s       :     0.550406  s :     0.550406
      pz      :     0.024522  p :     0.047740
      px      :     0.011172
      py      :     0.012047
 14 H s       :     0.588987  s :     0.588987
      pz      :     0.010450  p :     0.043629
      px      :     0.018519
      py      :     0.014660
 15 O s       :     3.811199  s :     3.811199
      pz      :     1.564530  p :     4.881949
      px      :     1.810075
      py      :     1.507343
      dz2     :     0.011544  d :     0.025467
      dxz     :     0.002971
      dyz     :     0.001179
      dx2y2   :     0.002182
      dxy     :     0.007591
      f0      :     0.000244  f :     0.001484
      f+1     :     0.000165
      f-1     :     0.000374
      f+2     :     0.000056
      f-2     :     0.000056
      f+3     :     0.000519
      f-3     :     0.000070
 16 H s       :     0.556010  s :     0.556010
      pz      :     0.024853  p :     0.048754
      px      :     0.012542
      py      :     0.011358
 17 H s       :     0.636383  s :     0.636383
      pz      :     0.011291  p :     0.045288
      px      :     0.016182
      py      :     0.017815
 18 O s       :     3.816107  s :     3.816107
      pz      :     1.486466  p :     4.853525
      px      :     1.818450
      py      :     1.548609
      dz2     :     0.012379  d :     0.026444
      dxz     :     0.003072
      dyz     :     0.001307
      dx2y2   :     0.002107
      dxy     :     0.007579
      f0      :     0.000271  f :     0.001532
      f+1     :     0.000174
      f-1     :     0.000385
      f+2     :     0.000055
      f-2     :     0.000056
      f+3     :     0.000523
      f-3     :     0.000068
 19 H s       :     0.625213  s :     0.625213
      pz      :     0.018720  p :     0.045328
      px      :     0.014063
      py      :     0.012545
 20 H s       :     0.585978  s :     0.585978
      pz      :     0.010261  p :     0.044033
      px      :     0.015274
      py      :     0.018499


                     *******************************
                     * LOEWDIN POPULATION ANALYSIS *
                     *******************************

----------------------
LOEWDIN ATOMIC CHARGES
----------------------
   0 O :   -0.324100
   1 H :    0.159141
   2 H :    0.156584
   3 O :   -0.352171
   4 H :    0.160215
   5 H :    0.153911
   6 O :   -0.352656
   7 H :    0.142292
   8 H :    0.156132
   9 O :   -0.286357
  10 H :    0.181631
  11 H :    0.180683
  12 O :   -0.282300
  13 H :    0.163123
  14 H :    0.174421
  15 O :   -0.342548
  16 H :    0.159689
  17 H :    0.150614
  18 O :   -0.329824
  19 H :    0.156197
  20 H :    0.175321

-------------------------------
LOEWDIN REDUCED ORBITAL CHARGES
-------------------------------
  0 O s       :     3.455433  s :     3.455433
      pz      :     1.683196  p :     4.837905
      px      :     1.751154
      py      :     1.403556
      dz2     :     0.004762  d :     0.028803
      dxz     :     0.005218
      dyz     :     0.006627
      dx2y2   :     0.003628
      dxy     :     0.008568
      f0      :     0.000086  f :     0.001958
      f+1     :     0.000260
      f-1     :     0.000429
      f+2     :     0.000032
      f-2     :     0.000606
      f+3     :     0.000462
      f-3     :     0.000083
  1 H s       :     0.675359  s :     0.675359
      pz      :     0.066189  p :     0.165501
      px      :     0.053154
      py      :     0.046157
  2 H s       :     0.646436  s :     0.646436
      pz      :     0.033421  p :     0.196980
      px      :     0.047566
      py      :     0.115993
  3 O s       :     3.466544  s :     3.466544
      pz      :     1.506413  p :     4.852172
      px      :     1.551100
      py      :     1.794658
      dz2     :     0.016210  d :     0.031347
      dxz     :     0.002184
      dyz     :     0.002357
      dx2y2   :     0.002031
      dxy     :     0.008565
      f0      :     0.000500  f :     0.002108
      f+1     :     0.000578
      f-1     :     0.000314
      f+2     :     0.000025
      f-2     :     0.000050
      f+3     :     0.000002
      f-3     :     0.000639
  4 H s       :     0.681559  s :     0.681559
      pz      :     0.079507  p :     0.158227
      px      :     0.036399
      py      :     0.042320
  5 H s       :     0.672135  s :     0.672135
      pz      :     0.029557  p :     0.173954
      px      :     0.086345
      py      :     0.058051
  6 O s       :     3.457111  s :     3.457111
      pz      :     1.555662  p :     4.864606
      px      :     1.837470
      py      :     1.471474
      dz2     :     0.013482  d :     0.028987
      dxz     :     0.001510
      dyz     :     0.003551
      dx2y2   :     0.004020
      dxy     :     0.006423
      f0      :     0.000352  f :     0.001953
      f+1     :     0.000182
      f-1     :     0.000688
      f+2     :     0.000041
      f-2     :     0.000041
      f+3     :     0.000579
      f-3     :     0.000069
  7 H s       :     0.674502  s :     0.674502
      pz      :     0.031109  p :     0.183206
      px      :     0.052693
      py      :     0.099403
  8 H s       :     0.670460  s :     0.670460
      pz      :     0.093819  p :     0.173407
      px      :     0.042793
      py      :     0.036795
  9 O s       :     3.460755  s :     3.460755
      pz      :     1.542414  p :     4.791326
      px      :     1.456857
      py      :     1.792055
      dz2     :     0.015117  d :     0.032182
      dxz     :     0.003771
      dyz     :     0.001343
      dx2y2   :     0.005310
      dxy     :     0.006641
      f0      :     0.000367  f :     0.002093
      f+1     :     0.000736
      f-1     :     0.000206
      f+2     :     0.000040
      f-2     :     0.000043
      f+3     :     0.000074
      f-3     :     0.000627
 10 H s       :     0.659162  s :     0.659162
      pz      :     0.081374  p :     0.159207
      px      :     0.035310
      py      :     0.042523
 11 H s       :     0.665221  s :     0.665221
      pz      :     0.029349  p :     0.154096
      px      :     0.075422
      py      :     0.049325
 12 O s       :     3.452738  s :     3.452738
      pz      :     1.539652  p :     4.795367
      px      :     1.531210
      py      :     1.724505
      dz2     :     0.015671  d :     0.032088
      dxz     :     0.001790
      dyz     :     0.001826
      dx2y2   :     0.003678
      dxy     :     0.009122
      f0      :     0.000416  f :     0.002107
      f+1     :     0.000558
      f-1     :     0.000333
      f+2     :     0.000020
      f-2     :     0.000046
      f+3     :     0.000026
      f-3     :     0.000708
 13 H s       :     0.666122  s :     0.666122
      pz      :     0.093136  p :     0.170755
      px      :     0.036125
      py      :     0.041494
 14 H s       :     0.667072  s :     0.667072
      pz      :     0.031006  p :     0.158507
      px      :     0.072736
      py      :     0.054765
 15 O s       :     3.467616  s :     3.467616
      pz      :     1.542329  p :     4.840644
      px      :     1.783736
      py      :     1.514578
      dz2     :     0.015148  d :     0.032155
      dxz     :     0.002281
      dyz     :     0.001748
      dx2y2   :     0.002509
      dxy     :     0.010468
      f0      :     0.000422  f :     0.002134
      f+1     :     0.000319
      f-1     :     0.000563
      f+2     :     0.000024
      f-2     :     0.000045
      f+3     :     0.000759
      f-3     :     0.000003
 16 H s       :     0.668633  s :     0.668633
      pz      :     0.094755  p :     0.171677
      px      :     0.041410
      py      :     0.035512
 17 H s       :     0.692136  s :     0.692136
      pz      :     0.031818  p :     0.157250
      px      :     0.054965
      py      :     0.070467
 18 O s       :     3.473712  s :     3.473712
      pz      :     1.500477  p :     4.820222
      px      :     1.787897
      py      :     1.531847
      dz2     :     0.017175  d :     0.033676
      dxz     :     0.002545
      dyz     :     0.002248
      dx2y2   :     0.002217
      dxy     :     0.009491
      f0      :     0.000509  f :     0.002214
      f+1     :     0.000329
      f-1     :     0.000597
      f+2     :     0.000026
      f-2     :     0.000048
      f+3     :     0.000703
      f-3     :     0.000003
 19 H s       :     0.686251  s :     0.686251
      pz      :     0.079335  p :     0.157552
      px      :     0.042568
      py      :     0.035649
 20 H s       :     0.667565  s :     0.667565
      pz      :     0.029262  p :     0.157114
      px      :     0.054737
      py      :     0.073114


                      *****************************
                      * MAYER POPULATION ANALYSIS *
                      *****************************

  NA   - Mulliken gross atomic population
  ZA   - Total nuclear charge
  QA   - Mulliken gross atomic charge
  VA   - Mayer's total valence
  BVA  - Mayer's bonded valence
  FA   - Mayer's free valence

  ATOM       NA         ZA         QA         VA         BVA        FA
  0 O      8.7878     8.0000    -0.7878     1.6834     1.6834     0.0000
  1 H      0.6395     1.0000     0.3605     0.8874     0.8874     0.0000
  2 H      0.5880     1.0000     0.4120     0.8635     0.8635    -0.0000
  3 O      8.7390     8.0000    -0.7390     1.7386     1.7386    -0.0000
  4 H      0.6595     1.0000     0.3405     0.8993     0.8993     0.0000
  5 H      0.6158     1.0000     0.3842     0.8852     0.8852    -0.0000
  6 O      8.7745     8.0000    -0.7745     1.6934     1.6934    -0.0000
  7 H      0.6431     1.0000     0.3569     0.9066     0.9066    -0.0000
  8 H      0.6064     1.0000     0.3936     0.8776     0.8776     0.0000
  9 O      8.7400     8.0000    -0.7400     1.7531     1.7531     0.0000
 10 H      0.6105     1.0000     0.3895     0.8670     0.8670    -0.0000
 11 H      0.6297     1.0000     0.3703     0.8829     0.8829     0.0000
 12 O      8.7307     8.0000    -0.7307     1.7586     1.7586    -0.0000
 13 H      0.5981     1.0000     0.4019     0.8592     0.8592    -0.0000
 14 H      0.6326     1.0000     0.3674     0.8827     0.8827    -0.0000
 15 O      8.7201     8.0000    -0.7201     1.7549     1.7549     0.0000
 16 H      0.6048     1.0000     0.3952     0.8725     0.8725     0.0000
 17 H      0.6817     1.0000     0.3183     0.9156     0.9156     0.0000
 18 O      8.6976     8.0000    -0.6976     1.7804     1.7804    -0.0000
 19 H      0.6705     1.0000     0.3295     0.9062     0.9062    -0.0000
 20 H      0.6300     1.0000     0.3700     0.8807     0.8807    -0.0000

  Mayer bond orders larger than 0.100000
B(  0-O ,  1-H ) :   0.8771 B(  0-O ,  2-H ) :   0.7825 B(  3-O ,  4-H ) :   0.8933 
B(  3-O ,  5-H ) :   0.8443 B(  6-O ,  7-H ) :   0.8504 B(  6-O ,  8-H ) :   0.8400 
B(  9-O , 10-H ) :   0.8557 B(  9-O , 11-H ) :   0.8640 B( 12-O , 13-H ) :   0.8390 
B( 12-O , 14-H ) :   0.8704 B( 15-O , 16-H ) :   0.8397 B( 15-O , 17-H ) :   0.9066 
B( 18-O , 19-H ) :   0.8997 B( 18-O , 20-H ) :   0.8697 

-------
TIMINGS
-------

Total SCF time: 0 days 0 hours 0 min 16 sec 

Total time                  ....      16.958 sec
Sum of individual times     ....      16.695 sec  ( 98.5%)

Fock matrix formation       ....      16.218 sec  ( 95.6%)
Diagonalization             ....       0.112 sec  (  0.7%)
Density matrix formation    ....       0.011 sec  (  0.1%)
Population analysis         ....       0.027 sec  (  0.2%)
Initial guess               ....       0.162 sec  (  1.0%)
Orbital Transformation      ....       0.000 sec  (  0.0%)
Orbital Orthonormalization  ....       0.000 sec  (  0.0%)
DIIS solution               ....       0.042 sec  (  0.3%)
SOSCF solution              ....       0.049 sec  (  0.3%)


           ************************************************************
           *        Program running with 6 parallel MPI-processes     *
           *              working on a common directory               *
           ************************************************************

------------------------------------------------------------------------------
                                ORCA  MP2 
------------------------------------------------------------------------------

Freezing NCore=14 chemical core electrons
MP2 will be done in the AO integral direct mode
The Q1-step will be done using symmetric double matrices
Dimension of the basis                    ...  301
Memory devoted for MP2                    ... 8000 MB   
Memory needed for all in one shot         ...  523 MB
Number of MOs that can be treated together...   75      
MP2 density construction                  ... relaxed
The MP2 gradient is requested => amplitudes will be stored on disk
Total number of MOs              ...   28
Number of MOs treated per batch  ...    5 
Number of batches necessary      ...    1 
OPERATORS   0/  0 PASS   0
-----------------------------------------------
 MP2 CORRELATION ENERGY   :     -1.807646058 Eh
-----------------------------------------------


---------------------
MP2 DENSITY FORMATION
---------------------

Completing the external part of the density      ... done
Storing the unrelaxed density                    ... done

Calculating G(D)                                 ... done
Completing the Lagrangian                        ... done
Solving the Z-vector equations                   ... 

------------------------------------------------------------------------------
                           ORCA CP-SCF CALCULATION
------------------------------------------------------------------------------

Input orbitals are from        ... 12h2o.su.etal.mol2,3,5,6,8,9,11-orca.engrad-mp2.def2tzvp.frozencore.gbw
Input Perturbation             ... 12h2o.su.etal.mol2,3,5,6,8,9,11-orca.engrad-mp2.def2tzvp.frozencore.pin.tmp
Wavefunction output            ... 12h2o.su.etal.mol2,3,5,6,8,9,11-orca.engrad-mp2.def2tzvp.frozencore.pout.tmp
Perturbation mode              ... Real perturbation (singlet)
Solver                         ... POPLE
Max. number of iterations      ... 128
Convergence tolerance          ... 1.000e-08
Integral handling              ... Direct
Number of perturbations        ... 1
Number of operators            ... 1
Orbital ranges used for CP-SCF:
 Operator 0:  Orbitals   0... 34  to  35...300
Variables per vector in CP-SCF ... 9310
Number of vectors sought       ... 1
     CP-SCF ITERATION   0: 
     CP-SCF ITERATION   1:      0.000888375594
     CP-SCF ITERATION   2:      0.000022497494
     CP-SCF ITERATION   3:      0.000001259900
     CP-SCF ITERATION   4:      0.000000095844
     CP-SCF ITERATION   5:      0.000000008203
                                                 ... done
Finalizing the relaxed density                   ... done
Transforming P to the AO basis                   ... done
Storing the relaxed density                      ... done

------------------------------------
ENERGY WEIGHTED DENSITY FINALIZATION
------------------------------------

Gathering the parts of the W-matrix              ...                                                      done
Forming the Z-density                            ... done
Transforming Z to the AO basis                   ... done
Calculating G(Z)                                 ... done
Finalizing the W-matrix                          ...                                                      done
Transforming W to the AO basis and storing       ... done

                *********************************************
                * UNRELAXED MP2 DENSITY POPULATION ANALYSIS *
                *********************************************

------------------------------------------------------------------------------
                           ORCA POPULATION ANALYSIS
------------------------------------------------------------------------------
Input electron density              ... 12h2o.su.etal.mol2,3,5,6,8,9,11-orca.engrad-mp2.def2tzvp.frozencore.pmp2ur
BaseName (.gbw .S,...)              ... 12h2o.su.etal.mol2,3,5,6,8,9,11-orca.engrad-mp2.def2tzvp.frozencore

                    ********************************
                    * MULLIKEN POPULATION ANALYSIS *
                    ********************************

-----------------------
MULLIKEN ATOMIC CHARGES
-----------------------
   0 O :   -0.781230
   1 H :    0.358176
   2 H :    0.407230
   3 O :   -0.733679
   4 H :    0.338028
   5 H :    0.380766
   6 O :   -0.768185
   7 H :    0.352576
   8 H :    0.390483
   9 O :   -0.733822
  10 H :    0.387120
  11 H :    0.367409
  12 O :   -0.723974
  13 H :    0.399041
  14 H :    0.364806
  15 O :   -0.714675
  16 H :    0.392218
  17 H :    0.315758
  18 O :   -0.692564
  19 H :    0.327062
  20 H :    0.367456
Sum of atomic charges:   -0.0000000

--------------------------------
MULLIKEN REDUCED ORBITAL CHARGES
--------------------------------
  0 O s       :     3.803769  s :     3.803769
      pz      :     1.713092  p :     4.923369
      px      :     1.782970
      py      :     1.427307
      dz2     :     0.009337  d :     0.050107
      dxz     :     0.010640
      dyz     :     0.009912
      dx2y2   :     0.007914
      dxy     :     0.012305
      f0      :     0.000455  f :     0.003985
      f+1     :     0.000538
      f-1     :     0.000684
      f+2     :     0.000434
      f-2     :     0.000714
      f+3     :     0.000702
      f-3     :     0.000460
  1 H s       :     0.594878  s :     0.594878
      pz      :     0.017333  p :     0.046946
      px      :     0.015404
      py      :     0.014209
  2 H s       :     0.535542  s :     0.535542
      pz      :     0.010856  p :     0.057228
      px      :     0.013864
      py      :     0.032507
  3 O s       :     3.805408  s :     3.805408
      pz      :     1.488387  p :     4.872274
      px      :     1.572187
      py      :     1.811699
      dz2     :     0.017026  d :     0.051956
      dxz     :     0.006654
      dyz     :     0.008318
      dx2y2   :     0.007584
      dxy     :     0.012373
      f0      :     0.000647  f :     0.004041
      f+1     :     0.000746
      f-1     :     0.000538
      f+2     :     0.000415
      f-2     :     0.000421
      f+3     :     0.000433
      f-3     :     0.000841
  4 H s       :     0.615639  s :     0.615639
      pz      :     0.018889  p :     0.046333
      px      :     0.012900
      py      :     0.014544
  5 H s       :     0.567549  s :     0.567549
      pz      :     0.010549  p :     0.051686
      px      :     0.024209
      py      :     0.016927
  6 O s       :     3.800633  s :     3.800633
      pz      :     1.582784  p :     4.913281
      px      :     1.862937
      py      :     1.467561
      dz2     :     0.015282  d :     0.050272
      dxz     :     0.007982
      dyz     :     0.007923
      dx2y2   :     0.008500
      dxy     :     0.010585
      f0      :     0.000570  f :     0.003998
      f+1     :     0.000493
      f-1     :     0.000796
      f+2     :     0.000443
      f-2     :     0.000404
      f+3     :     0.000808
      f-3     :     0.000485
  7 H s       :     0.591852  s :     0.591852
      pz      :     0.010577  p :     0.055573
      px      :     0.017000
      py      :     0.027995
  8 H s       :     0.558675  s :     0.558675
      pz      :     0.024711  p :     0.050842
      px      :     0.014005
      py      :     0.012126
  9 O s       :     3.798059  s :     3.798059
      pz      :     1.570369  p :     4.879897
      px      :     1.466342
      py      :     1.843187
      dz2     :     0.016296  d :     0.051837
      dxz     :     0.007966
      dyz     :     0.007816
      dx2y2   :     0.009099
      dxy     :     0.010660
      f0      :     0.000574  f :     0.004029
      f+1     :     0.000819
      f-1     :     0.000496
      f+2     :     0.000436
      f-2     :     0.000405
      f+3     :     0.000482
      f-3     :     0.000818
 10 H s       :     0.567803  s :     0.567803
      pz      :     0.019348  p :     0.045077
      px      :     0.011948
      py      :     0.013781
 11 H s       :     0.589416  s :     0.589416
      pz      :     0.009891  p :     0.043175
      px      :     0.018699
      py      :     0.014585
 12 O s       :     3.793297  s :     3.793297
      pz      :     1.558576  p :     4.874078
      px      :     1.542954
      py      :     1.772548
      dz2     :     0.017328  d :     0.052602
      dxz     :     0.006679
      dyz     :     0.008007
      dx2y2   :     0.008108
      dxy     :     0.012479
      f0      :     0.000615  f :     0.003997
      f+1     :     0.000752
      f-1     :     0.000534
      f+2     :     0.000413
      f-2     :     0.000422
      f+3     :     0.000426
      f-3     :     0.000835
 13 H s       :     0.551732  s :     0.551732
      pz      :     0.024581  p :     0.049226
      px      :     0.011803
      py      :     0.012842
 14 H s       :     0.590022  s :     0.590022
      pz      :     0.011227  p :     0.045172
      px      :     0.018671
      py      :     0.015274
 15 O s       :     3.806359  s :     3.806359
      pz      :     1.555003  p :     4.852183
      px      :     1.798759
      py      :     1.498420
      dz2     :     0.016666  d :     0.052090
      dxz     :     0.008430
      dyz     :     0.006573
      dx2y2   :     0.007639
      dxy     :     0.012781
      f0      :     0.000624  f :     0.004043
      f+1     :     0.000539
      f-1     :     0.000740
      f+2     :     0.000415
      f-2     :     0.000420
      f+3     :     0.000870
      f-3     :     0.000436
 16 H s       :     0.557543  s :     0.557543
      pz      :     0.024886  p :     0.050239
      px      :     0.013357
      py      :     0.011997
 17 H s       :     0.637175  s :     0.637175
      pz      :     0.012138  p :     0.047067
      px      :     0.016911
      py      :     0.018018
 18 O s       :     3.811333  s :     3.811333
      pz      :     1.477751  p :     4.824396
      px      :     1.807063
      py      :     1.539581
      dz2     :     0.017311  d :     0.052758
      dxz     :     0.008470
      dyz     :     0.006620
      dx2y2   :     0.007556
      dxy     :     0.012800
      f0      :     0.000644  f :     0.004077
      f+1     :     0.000543
      f-1     :     0.000747
      f+2     :     0.000412
      f-2     :     0.000419
      f+3     :     0.000876
      f-3     :     0.000436
 19 H s       :     0.625897  s :     0.625897
      pz      :     0.018835  p :     0.047041
      px      :     0.014949
      py      :     0.013257
 20 H s       :     0.586953  s :     0.586953
      pz      :     0.011019  p :     0.045591
      px      :     0.015934
      py      :     0.018638


                     *******************************
                     * LOEWDIN POPULATION ANALYSIS *
                     *******************************

----------------------
LOEWDIN ATOMIC CHARGES
----------------------
   0 O :   -0.319972
   1 H :    0.157820
   2 H :    0.153914
   3 O :   -0.349454
   4 H :    0.158735
   5 H :    0.151735
   6 O :   -0.349207
   7 H :    0.139661
   8 H :    0.154052
   9 O :   -0.281659
  10 H :    0.180225
  11 H :    0.178847
  12 O :   -0.277829
  13 H :    0.161298
  14 H :    0.172902
  15 O :   -0.339565
  16 H :    0.157797
  17 H :    0.148885
  18 O :   -0.326797
  19 H :    0.154691
  20 H :    0.173921

-------------------------------
LOEWDIN REDUCED ORBITAL CHARGES
-------------------------------
  0 O s       :     3.451791  s :     3.451791
      pz      :     1.671616  p :     4.805574
      px      :     1.738984
      py      :     1.394974
      dz2     :     0.010573  d :     0.057853
      dxz     :     0.011102
      dyz     :     0.012371
      dx2y2   :     0.009386
      dxy     :     0.014420
      f0      :     0.000472  f :     0.004754
      f+1     :     0.000648
      f-1     :     0.000846
      f+2     :     0.000411
      f-2     :     0.001018
      f+3     :     0.000885
      f-3     :     0.000475
  1 H s       :     0.673567  s :     0.673567
      pz      :     0.067407  p :     0.168613
      px      :     0.054134
      py      :     0.047072
  2 H s       :     0.646724  s :     0.646724
      pz      :     0.034255  p :     0.199362
      px      :     0.048421
      py      :     0.116686
  3 O s       :     3.462862  s :     3.462862
      pz      :     1.497208  p :     4.822573
      px      :     1.541755
      py      :     1.783610
      dz2     :     0.021950  d :     0.059155
      dxz     :     0.007517
      dyz     :     0.007737
      dx2y2   :     0.007554
      dxy     :     0.014397
      f0      :     0.000916  f :     0.004864
      f+1     :     0.000998
      f-1     :     0.000708
      f+2     :     0.000389
      f-2     :     0.000422
      f+3     :     0.000377
      f-3     :     0.001055
  4 H s       :     0.679753  s :     0.679753
      pz      :     0.081179  p :     0.161512
      px      :     0.037192
      py      :     0.043141
  5 H s       :     0.671465  s :     0.671465
      pz      :     0.030304  p :     0.176800
      px      :     0.087520
      py      :     0.058976
  6 O s       :     3.453452  s :     3.453452
      pz      :     1.545135  p :     4.833232
      px      :     1.825924
      py      :     1.462173
      dz2     :     0.019539  d :     0.057782
      dxz     :     0.007118
      dyz     :     0.009113
      dx2y2   :     0.009777
      dxy     :     0.012234
      f0      :     0.000772  f :     0.004742
      f+1     :     0.000574
      f-1     :     0.001130
      f+2     :     0.000414
      f-2     :     0.000415
      f+3     :     0.000991
      f-3     :     0.000446
  7 H s       :     0.674071  s :     0.674071
      pz      :     0.031999  p :     0.186269
      px      :     0.053628
      py      :     0.100642
  8 H s       :     0.669711  s :     0.669711
      pz      :     0.095109  p :     0.176236
      px      :     0.043563
      py      :     0.037564
  9 O s       :     3.456887  s :     3.456887
      pz      :     1.532100  p :     4.759245
      px      :     1.447765
      py      :     1.779380
      dz2     :     0.021053  d :     0.060657
      dxz     :     0.009195
      dyz     :     0.006943
      dx2y2   :     0.011048
      dxy     :     0.012417
      f0      :     0.000783  f :     0.004871
      f+1     :     0.001170
      f-1     :     0.000598
      f+2     :     0.000412
      f-2     :     0.000415
      f+3     :     0.000454
      f-3     :     0.001038
 10 H s       :     0.657738  s :     0.657738
      pz      :     0.082734  p :     0.162037
      px      :     0.036016
      py      :     0.043287
 11 H s       :     0.663999  s :     0.663999
      pz      :     0.030155  p :     0.157154
      px      :     0.076732
      py      :     0.050268
 12 O s       :     3.448920  s :     3.448920
      pz      :     1.529946  p :     4.763562
      px      :     1.521624
      py      :     1.711991
      dz2     :     0.021551  d :     0.060446
      dxz     :     0.007191
      dyz     :     0.007375
      dx2y2   :     0.009300
      dxy     :     0.015029
      f0      :     0.000841  f :     0.004902
      f+1     :     0.000982
      f-1     :     0.000735
      f+2     :     0.000388
      f-2     :     0.000421
      f+3     :     0.000406
      f-3     :     0.001128
 13 H s       :     0.665154  s :     0.665154
      pz      :     0.094410  p :     0.173548
      px      :     0.036850
      py      :     0.042287
 14 H s       :     0.665553  s :     0.665553
      pz      :     0.031757  p :     0.161545
      px      :     0.074020
      py      :     0.055768
 15 O s       :     3.463888  s :     3.463888
      pz      :     1.532843  p :     4.810882
      px      :     1.772712
      py      :     1.505328
      dz2     :     0.020946  d :     0.059906
      dxz     :     0.007684
      dyz     :     0.007093
      dx2y2   :     0.007972
      dxy     :     0.016211
      f0      :     0.000842  f :     0.004888
      f+1     :     0.000715
      f-1     :     0.000983
      f+2     :     0.000388
      f-2     :     0.000416
      f+3     :     0.001169
      f-3     :     0.000374
 16 H s       :     0.667769  s :     0.667769
      pz      :     0.096010  p :     0.174435
      px      :     0.042200
      py      :     0.036225
 17 H s       :     0.690349  s :     0.690349
      pz      :     0.032622  p :     0.160766
      px      :     0.056109
      py      :     0.072035
 18 O s       :     3.469968  s :     3.469968
      pz      :     1.491285  p :     4.790796
      px      :     1.776845
      py      :     1.522666
      dz2     :     0.022839  d :     0.061081
      dxz     :     0.007884
      dyz     :     0.007498
      dx2y2   :     0.007651
      dxy     :     0.015208
      f0      :     0.000923  f :     0.004952
      f+1     :     0.000721
      f-1     :     0.001014
      f+2     :     0.000388
      f-2     :     0.000418
      f+3     :     0.001113
      f-3     :     0.000376
 19 H s       :     0.684381  s :     0.684381
      pz      :     0.081095  p :     0.160928
      px      :     0.043412
      py      :     0.036421
 20 H s       :     0.666003  s :     0.666003
      pz      :     0.029973  p :     0.160076
      px      :     0.055730
      py      :     0.074373


                      *****************************
                      * MAYER POPULATION ANALYSIS *
                      *****************************

  NA   - Mulliken gross atomic population
  ZA   - Total nuclear charge
  QA   - Mulliken gross atomic charge
  VA   - Mayer's total valence
  BVA  - Mayer's bonded valence
  FA   - Mayer's free valence

  ATOM       NA         ZA         QA         VA         BVA        FA
  0 O      8.7812     8.0000    -0.7812     2.0025     1.6062     0.3963
  1 H      0.6418     1.0000     0.3582     0.8931     0.8469     0.0462
  2 H      0.5928     1.0000     0.4072     0.8711     0.8256     0.0455
  3 O      8.7337     8.0000    -0.7337     2.0479     1.6591     0.3888
  4 H      0.6620     1.0000     0.3380     0.9055     0.8573     0.0482
  5 H      0.6192     1.0000     0.3808     0.8919     0.8468     0.0450
  6 O      8.7682     8.0000    -0.7682     2.0098     1.6149     0.3948
  7 H      0.6474     1.0000     0.3526     0.9146     0.8652     0.0494
  8 H      0.6095     1.0000     0.3905     0.8837     0.8395     0.0441
  9 O      8.7338     8.0000    -0.7338     2.0652     1.6739     0.3913
 10 H      0.6129     1.0000     0.3871     0.8725     0.8283     0.0441
 11 H      0.6326     1.0000     0.3674     0.8893     0.8418     0.0475
 12 O      8.7240     8.0000    -0.7240     2.0679     1.6797     0.3883
 13 H      0.6010     1.0000     0.3990     0.8649     0.8218     0.0431
 14 H      0.6352     1.0000     0.3648     0.8887     0.8424     0.0463
 15 O      8.7147     8.0000    -0.7147     2.0623     1.6740     0.3883
 16 H      0.6078     1.0000     0.3922     0.8786     0.8350     0.0436
 17 H      0.6842     1.0000     0.3158     0.9223     0.8718     0.0505
 18 O      8.6926     8.0000    -0.6926     2.0844     1.6982     0.3862
 19 H      0.6729     1.0000     0.3271     0.9125     0.8635     0.0490
 20 H      0.6325     1.0000     0.3675     0.8866     0.8408     0.0458

  Mayer bond orders larger than 0.100000
B(  0-O ,  1-H ) :   0.8373 B(  0-O ,  2-H ) :   0.7469 B(  3-O ,  4-H ) :   0.8517 
B(  3-O ,  5-H ) :   0.8071 B(  6-O ,  7-H ) :   0.8104 B(  6-O ,  8-H ) :   0.8031 
B(  9-O , 10-H ) :   0.8178 B(  9-O , 11-H ) :   0.8239 B( 12-O , 13-H ) :   0.8021 
B( 12-O , 14-H ) :   0.8308 B( 15-O , 16-H ) :   0.8031 B( 15-O , 17-H ) :   0.8632 
B( 18-O , 19-H ) :   0.8573 B( 18-O , 20-H ) :   0.8304 


                *******************************************
                * RELAXED MP2 DENSITY POPULATION ANALYSIS *
                *******************************************

------------------------------------------------------------------------------
                           ORCA POPULATION ANALYSIS
------------------------------------------------------------------------------
Input electron density              ... 12h2o.su.etal.mol2,3,5,6,8,9,11-orca.engrad-mp2.def2tzvp.frozencore.pmp2re
BaseName (.gbw .S,...)              ... 12h2o.su.etal.mol2,3,5,6,8,9,11-orca.engrad-mp2.def2tzvp.frozencore

                    ********************************
                    * MULLIKEN POPULATION ANALYSIS *
                    ********************************

-----------------------
MULLIKEN ATOMIC CHARGES
-----------------------
   0 O :   -0.751320
   1 H :    0.350905
   2 H :    0.383981
   3 O :   -0.715942
   4 H :    0.331751
   5 H :    0.363101
   6 O :   -0.740280
   7 H :    0.332919
   8 H :    0.373352
   9 O :   -0.708555
  10 H :    0.378845
  11 H :    0.358574
  12 O :   -0.696052
  13 H :    0.387367
  14 H :    0.357946
  15 O :   -0.696307
  16 H :    0.377538
  17 H :    0.309212
  18 O :   -0.677488
  19 H :    0.321353
  20 H :    0.359098
Sum of atomic charges:   -0.0000000

--------------------------------
MULLIKEN REDUCED ORBITAL CHARGES
--------------------------------
  0 O s       :     3.806316  s :     3.806316
      pz      :     1.702985  p :     4.892747
      px      :     1.769442
      py      :     1.420321
      dz2     :     0.009203  d :     0.048340
      dxz     :     0.010342
      dyz     :     0.009343
      dx2y2   :     0.007799
      dxy     :     0.011653
      f0      :     0.000452  f :     0.003918
      f+1     :     0.000530
      f-1     :     0.000666
      f+2     :     0.000433
      f-2     :     0.000694
      f+3     :     0.000685
      f-3     :     0.000458
  1 H s       :     0.601379  s :     0.601379
      pz      :     0.017447  p :     0.047716
      px      :     0.016031
      py      :     0.014237
  2 H s       :     0.558652  s :     0.558652
      pz      :     0.011555  p :     0.057367
      px      :     0.014339
      py      :     0.031474
  3 O s       :     3.806301  s :     3.806301
      pz      :     1.481598  p :     4.855832
      px      :     1.570109
      py      :     1.804124
      dz2     :     0.015679  d :     0.049840
      dxz     :     0.006593
      dyz     :     0.008273
      dx2y2   :     0.007539
      dxy     :     0.011756
      f0      :     0.000629  f :     0.003969
      f+1     :     0.000724
      f-1     :     0.000527
      f+2     :     0.000416
      f-2     :     0.000420
      f+3     :     0.000434
      f-3     :     0.000819
  4 H s       :     0.621164  s :     0.621164
      pz      :     0.018148  p :     0.047085
      px      :     0.013477
      py      :     0.015460
  5 H s       :     0.584695  s :     0.584695
      pz      :     0.011187  p :     0.052204
      px      :     0.023649
      py      :     0.017368
  6 O s       :     3.799418  s :     3.799418
      pz      :     1.573665  p :     4.888563
      px      :     1.856067
      py      :     1.458831
      dz2     :     0.014286  d :     0.048366
      dxz     :     0.008001
      dyz     :     0.007676
      dx2y2   :     0.008278
      dxy     :     0.010125
      f0      :     0.000559  f :     0.003932
      f+1     :     0.000487
      f-1     :     0.000767
      f+2     :     0.000442
      f-2     :     0.000403
      f+3     :     0.000790
      f-3     :     0.000484
  7 H s       :     0.610918  s :     0.610918
      pz      :     0.011377  p :     0.056163
      px      :     0.017668
      py      :     0.027118
  8 H s       :     0.575234  s :     0.575234
      pz      :     0.024020  p :     0.051413
      px      :     0.014874
      py      :     0.012519
  9 O s       :     3.801043  s :     3.801043
      pz      :     1.562134  p :     4.853865
      px      :     1.462058
      py      :     1.829672
      dz2     :     0.015114  d :     0.049693
      dxz     :     0.007692
      dyz     :     0.007869
      dx2y2   :     0.008834
      dxy     :     0.010184
      f0      :     0.000560  f :     0.003954
      f+1     :     0.000789
      f-1     :     0.000490
      f+2     :     0.000435
      f-2     :     0.000403
      f+3     :     0.000480
      f-3     :     0.000796
 10 H s       :     0.575514  s :     0.575514
      pz      :     0.018597  p :     0.045642
      px      :     0.012342
      py      :     0.014703
 11 H s       :     0.597611  s :     0.597611
      pz      :     0.010612  p :     0.043815
      px      :     0.017902
      py      :     0.015300
 12 O s       :     3.793010  s :     3.793010
      pz      :     1.555907  p :     4.848476
      px      :     1.536469
      py      :     1.756099
      dz2     :     0.016133  d :     0.050643
      dxz     :     0.006652
      dyz     :     0.008003
      dx2y2   :     0.008042
      dxy     :     0.011812
      f0      :     0.000598  f :     0.003923
      f+1     :     0.000730
      f-1     :     0.000525
      f+2     :     0.000414
      f-2     :     0.000421
      f+3     :     0.000425
      f-3     :     0.000809
 13 H s       :     0.563039  s :     0.563039
      pz      :     0.023764  p :     0.049595
      px      :     0.012223
      py      :     0.013607
 14 H s       :     0.596248  s :     0.596248
      pz      :     0.011921  p :     0.045805
      px      :     0.018109
      py      :     0.015775
 15 O s       :     3.807893  s :     3.807893
      pz      :     1.551195  p :     4.834551
      px      :     1.792576
      py      :     1.490780
      dz2     :     0.015447  d :     0.049893
      dxz     :     0.008394
      dyz     :     0.006536
      dx2y2   :     0.007543
      dxy     :     0.011974
      f0      :     0.000607  f :     0.003970
      f+1     :     0.000529
      f-1     :     0.000718
      f+2     :     0.000415
      f-2     :     0.000419
      f+3     :     0.000845
      f-3     :     0.000436
 16 H s       :     0.571790  s :     0.571790
      pz      :     0.024056  p :     0.050672
      px      :     0.014157
      py      :     0.012459
 17 H s       :     0.642772  s :     0.642772
      pz      :     0.012948  p :     0.048016
      px      :     0.017635
      py      :     0.017433
 18 O s       :     3.816368  s :     3.816368
      pz      :     1.471626  p :     4.806699
      px      :     1.800468
      py      :     1.534605
      dz2     :     0.015883  d :     0.050420
      dxz     :     0.008440
      dyz     :     0.006550
      dx2y2   :     0.007470
      dxy     :     0.012077
      f0      :     0.000625  f :     0.004000
      f+1     :     0.000533
      f-1     :     0.000724
      f+2     :     0.000413
      f-2     :     0.000418
      f+3     :     0.000851
      f-3     :     0.000436
 19 H s       :     0.630741  s :     0.630741
      pz      :     0.018080  p :     0.047906
      px      :     0.015956
      py      :     0.013870
 20 H s       :     0.594661  s :     0.594661
      pz      :     0.011666  p :     0.046241
      px      :     0.016493
      py      :     0.018082


                     *******************************
                     * LOEWDIN POPULATION ANALYSIS *
                     *******************************

----------------------
LOEWDIN ATOMIC CHARGES
----------------------
   0 O :   -0.312908
   1 H :    0.159620
   2 H :    0.146354
   3 O :   -0.351099
   4 H :    0.160377
   5 H :    0.146614
   6 O :   -0.346080
   7 H :    0.134010
   8 H :    0.149499
   9 O :   -0.274941
  10 H :    0.180984
  11 H :    0.179121
  12 O :   -0.270556
  13 H :    0.158540
  14 H :    0.174279
  15 O :   -0.340598
  16 H :    0.153935
  17 H :    0.150330
  18 O :   -0.328627
  19 H :    0.156488
  20 H :    0.174660

-------------------------------
LOEWDIN REDUCED ORBITAL CHARGES
-------------------------------
  0 O s       :     3.453386  s :     3.453386
      pz      :     1.666540  p :     4.797277
      px      :     1.732068
      py      :     1.398669
      dz2     :     0.010668  d :     0.057451
      dxz     :     0.011074
      dyz     :     0.012043
      dx2y2   :     0.009434
      dxy     :     0.014231
      f0      :     0.000475  f :     0.004794
      f+1     :     0.000649
      f-1     :     0.000857
      f+2     :     0.000412
      f-2     :     0.001021
      f+3     :     0.000900
      f-3     :     0.000480
  1 H s       :     0.671823  s :     0.671823
      pz      :     0.067357  p :     0.168557
      px      :     0.054556
      py      :     0.046645
  2 H s       :     0.654131  s :     0.654131
      pz      :     0.034836  p :     0.199515
      px      :     0.048845
      py      :     0.115834
  3 O s       :     3.464237  s :     3.464237
      pz      :     1.499130  p :     4.823950
      px      :     1.543655
      py      :     1.781165
      dz2     :     0.021213  d :     0.058026
      dxz     :     0.007372
      dyz     :     0.007749
      dx2y2   :     0.007523
      dxy     :     0.014169
      f0      :     0.000916  f :     0.004885
      f+1     :     0.001007
      f-1     :     0.000706
      f+2     :     0.000390
      f-2     :     0.000422
      f+3     :     0.000377
      f-3     :     0.001067
  4 H s       :     0.677892  s :     0.677892
      pz      :     0.080406  p :     0.161730
      px      :     0.037422
      py      :     0.043903
  5 H s       :     0.676101  s :     0.676101
      pz      :     0.030671  p :     0.177285
      px      :     0.087077
      py      :     0.059537
  6 O s       :     3.454228  s :     3.454228
      pz      :     1.542995  p :     4.829923
      px      :     1.823018
      py      :     1.463909
      dz2     :     0.019255  d :     0.057152
      dxz     :     0.007184
      dyz     :     0.008948
      dx2y2   :     0.009692
      dxy     :     0.012074
      f0      :     0.000776  f :     0.004777
      f+1     :     0.000575
      f-1     :     0.001143
      f+2     :     0.000416
      f-2     :     0.000414
      f+3     :     0.001004
      f-3     :     0.000449
  7 H s       :     0.678775  s :     0.678775
      pz      :     0.032560  p :     0.187215
      px      :     0.054403
      py      :     0.100253
  8 H s       :     0.673898  s :     0.673898
      pz      :     0.094493  p :     0.176603
      px      :     0.044438
      py      :     0.037672
  9 O s       :     3.458335  s :     3.458335
      pz      :     1.531032  p :     4.752020
      px      :     1.450834
      py      :     1.770154
      dz2     :     0.020555  d :     0.059697
      dxz     :     0.008979
      dyz     :     0.007024
      dx2y2   :     0.010931
      dxy     :     0.012208
      f0      :     0.000782  f :     0.004890
      f+1     :     0.001178
      f-1     :     0.000599
      f+2     :     0.000414
      f-2     :     0.000414
      f+3     :     0.000456
      f-3     :     0.001046
 10 H s       :     0.657275  s :     0.657275
      pz      :     0.081802  p :     0.161741
      px      :     0.035854
      py      :     0.044085
 11 H s       :     0.663756  s :     0.663756
      pz      :     0.030558  p :     0.157123
      px      :     0.075631
      py      :     0.050934
 12 O s       :     3.449723  s :     3.449723
      pz      :     1.531343  p :     4.756327
      px      :     1.523083
      py      :     1.701900
      dz2     :     0.021008  d :     0.059586
      dxz     :     0.007087
      dyz     :     0.007426
      dx2y2   :     0.009341
      dxy     :     0.014724
      f0      :     0.000844  f :     0.004920
      f+1     :     0.000987
      f-1     :     0.000736
      f+2     :     0.000390
      f-2     :     0.000421
      f+3     :     0.000408
      f-3     :     0.001134
 13 H s       :     0.667840  s :     0.667840
      pz      :     0.093528  p :     0.173620
      px      :     0.037174
      py      :     0.042919
 14 H s       :     0.664215  s :     0.664215
      pz      :     0.032168  p :     0.161506
      px      :     0.073265
      py      :     0.056073
 15 O s       :     3.465368  s :     3.465368
      pz      :     1.534060  p :     4.811633
      px      :     1.770441
      py      :     1.507133
      dz2     :     0.020346  d :     0.058691
      dxz     :     0.007712
      dyz     :     0.006977
      dx2y2   :     0.007885
      dxy     :     0.015771
      f0      :     0.000847  f :     0.004906
      f+1     :     0.000714
      f-1     :     0.000990
      f+2     :     0.000390
      f-2     :     0.000416
      f+3     :     0.001175
      f-3     :     0.000374
 16 H s       :     0.671462  s :     0.671462
      pz      :     0.095159  p :     0.174603
      px      :     0.042965
      py      :     0.036478
 17 H s       :     0.688220  s :     0.688220
      pz      :     0.033140  p :     0.161450
      px      :     0.056802
      py      :     0.071508
 18 O s       :     3.472285  s :     3.472285
      pz      :     1.493068  p :     4.791688
      px      :     1.774065
      py      :     1.524554
      dz2     :     0.021997  d :     0.059688
      dxz     :     0.007914
      dyz     :     0.007342
      dx2y2   :     0.007575
      dxy     :     0.014860
      f0      :     0.000923  f :     0.004967
      f+1     :     0.000718
      f-1     :     0.001022
      f+2     :     0.000390
      f-2     :     0.000417
      f+3     :     0.001121
      f-3     :     0.000376
 19 H s       :     0.682102  s :     0.682102
      pz      :     0.080482  p :     0.161410
      px      :     0.044353
      py      :     0.036576
 20 H s       :     0.665447  s :     0.665447
      pz      :     0.030201  p :     0.159893
      px      :     0.056158
      py      :     0.073534


                      *****************************
                      * MAYER POPULATION ANALYSIS *
                      *****************************

  NA   - Mulliken gross atomic population
  ZA   - Total nuclear charge
  QA   - Mulliken gross atomic charge
  VA   - Mayer's total valence
  BVA  - Mayer's bonded valence
  FA   - Mayer's free valence

  ATOM       NA         ZA         QA         VA         BVA        FA
  0 O      8.7513     8.0000    -0.7513     2.0435     1.6536     0.3899
  1 H      0.6491     1.0000     0.3509     0.8985     0.8523     0.0462
  2 H      0.6160     1.0000     0.3840     0.8985     0.8538     0.0446
  3 O      8.7159     8.0000    -0.7159     2.0584     1.6747     0.3837
  4 H      0.6682     1.0000     0.3318     0.9103     0.8621     0.0482
  5 H      0.6369     1.0000     0.3631     0.9169     0.8724     0.0445
  6 O      8.7403     8.0000    -0.7403     2.0367     1.6476     0.3891
  7 H      0.6671     1.0000     0.3329     0.9406     0.8922     0.0484
  8 H      0.6266     1.0000     0.3734     0.9061     0.8625     0.0436
  9 O      8.7086     8.0000    -0.7086     2.1074     1.7224     0.3850
 10 H      0.6212     1.0000     0.3788     0.8804     0.8364     0.0440
 11 H      0.6414     1.0000     0.3586     0.9001     0.8531     0.0470
 12 O      8.6961     8.0000    -0.6961     2.1056     1.7234     0.3822
 13 H      0.6126     1.0000     0.3874     0.8804     0.8374     0.0430
 14 H      0.6421     1.0000     0.3579     0.8956     0.8495     0.0462
 15 O      8.6963     8.0000    -0.6963     2.0764     1.6934     0.3830
 16 H      0.6225     1.0000     0.3775     0.8989     0.8557     0.0432
 17 H      0.6908     1.0000     0.3092     0.9284     0.8780     0.0504
 18 O      8.6775     8.0000    -0.6775     2.0935     1.7127     0.3808
 19 H      0.6786     1.0000     0.3214     0.9168     0.8676     0.0491
 20 H      0.6409     1.0000     0.3591     0.8951     0.8494     0.0457

  Mayer bond orders larger than 0.100000
B(  0-O ,  1-H ) :   0.8401 B(  0-O ,  2-H ) :   0.7454 B(  3-O ,  4-H ) :   0.8552 
B(  3-O ,  5-H ) :   0.8111 B(  6-O ,  7-H ) :   0.8083 B(  6-O ,  8-H ) :   0.8080 
B(  9-O , 10-H ) :   0.8216 B(  9-O , 11-H ) :   0.8269 B( 12-O , 13-H ) :   0.8064 
B( 12-O , 14-H ) :   0.8334 B( 15-O , 16-H ) :   0.8086 B( 15-O , 17-H ) :   0.8658 
B( 18-O , 19-H ) :   0.8606 B( 18-O , 20-H ) :   0.8350 


----------------------------------
MP2 DERIVATIVE INTEGRAL GENERATION
----------------------------------


Input Wavefunction Amplitudes       ... 12h2o.su.etal.mol2,3,5,6,8,9,11-orca.engrad-mp2.def2tzvp.frozencore.mp2tsaa.tmp
Input Correlated Electron Density   ... 12h2o.su.etal.mol2,3,5,6,8,9,11-orca.engrad-mp2.def2tzvp.frozencore.pmp2re
Input Energy Weighted Density       ... 12h2o.su.etal.mol2,3,5,6,8,9,11-orca.engrad-mp2.def2tzvp.frozencore.wmp2.tmp
Input SCF Electron Density          ... 12h2o.su.etal.mol2,3,5,6,8,9,11-orca.engrad-mp2.def2tzvp.frozencore.scfp

One-Electron Terms    ...
                        ... One-Electron Terms done
Prescreening matrices              ... done

Batch handling in the gradient evaluation:
Memory available                      ... 8000.0 MB
Memory per occupied orbital in Q2     ...   19.4 MB
Memory per occupied orbital in Q3     ...    0.1 MB
Total memory requirement per |i>      ...   19.5 MB
Max. Number of orbitals possible      ...    410
Number of orbitals treated per batch  ...     28
Number of batches to be done          ...      1
Batch   0: i=    7 ...    34

---------------------------------------
MP2 TOTAL ENERGY:     -534.242387697 Eh
---------------------------------------

The final MP2 gradient
  0:  -0.00238965  -0.00495654   0.00042250
  1:  -0.00075784   0.00025769   0.00132773
  2:   0.00226249   0.00951867   0.00208518
  3:  -0.00075501  -0.00039356  -0.00904404
  4:  -0.00302559   0.00001639   0.00939758
  5:   0.00251299   0.00006451  -0.00189467
  6:  -0.00645549  -0.00832859  -0.00035363
  7:   0.00580821   0.01567173   0.00234813
  8:   0.00271530  -0.00151710  -0.00172713
  9:   0.01466242  -0.01294395  -0.00892159
 10:  -0.00045734  -0.00150499   0.00614551
 11:  -0.01466867   0.00670636  -0.00077013
 12:   0.00793365  -0.00728809  -0.00367274
 13:  -0.00205296  -0.00026479   0.00201730
 14:  -0.00687683   0.00440265   0.00258301
 15:  -0.00716289  -0.01096299  -0.00115149
 16:   0.00344485  -0.00057580   0.00090548
 17:   0.00628456   0.01083451  -0.00062755
 18:   0.00320565   0.00594034   0.01121874
 19:   0.00166534   0.00160664  -0.01007699
 20:  -0.00589321  -0.00628309  -0.00021119

-----------------------------------
NORM OF THE MP2 GRADIENT:  0.049006
-----------------------------------

-------------------------   --------------------
FINAL SINGLE POINT ENERGY      -534.242387697363
-------------------------   --------------------


                            ***************************************
                            *     ORCA property calculations      *
                            ***************************************

                                    ---------------------
                                    Active property flags
                                    ---------------------
   (+) Dipole Moment


------------------------------------------------------------------------------
                       ORCA ELECTRIC PROPERTIES CALCULATION
------------------------------------------------------------------------------

Dipole Moment Calculation                       ... on
Quadrupole Moment Calculation                   ... off
Polarizability Calculation                      ... off
GBWName                                         ... 12h2o.su.etal.mol2,3,5,6,8,9,11-orca.engrad-mp2.def2tzvp.frozencore.gbw
Electron density file                           ... 12h2o.su.etal.mol2,3,5,6,8,9,11-orca.engrad-mp2.def2tzvp.frozencore.scfp
The origin for moment calculation is the CENTER OF MASS  = ( 0.969806, -0.692439 -0.758826)

-------------
DIPOLE MOMENT
-------------
                                X             Y             Z
Electronic contribution:      0.21189       0.16373      -0.09203
Nuclear contribution   :      0.67870       1.21732      -0.63259
                        -----------------------------------------
Total Dipole Moment    :      0.89059       1.38105      -0.72462
                        -----------------------------------------
Magnitude (a.u.)       :      1.79597
Magnitude (Debye)      :      4.56500



--------------------
Rotational spectrum 
--------------------
 
Rotational constants in cm-1:     0.040920     0.018598     0.017667 
Rotational constants in MHz :  1226.759914   557.555159   529.635486 

 Dipole components along the rotational axes: 
x,y,z [a.u.] :    -0.551689     1.402014    -0.977507 
x,y,z [Debye]:    -1.402281     3.563637    -2.484626 

 

                         *** MP2 UNRELAXED DENSITY ***

------------------------------------------------------------------------------
                       ORCA ELECTRIC PROPERTIES CALCULATION
------------------------------------------------------------------------------

Dipole Moment Calculation                       ... on
Quadrupole Moment Calculation                   ... off
Polarizability Calculation                      ... off
GBWName                                         ... 12h2o.su.etal.mol2,3,5,6,8,9,11-orca.engrad-mp2.def2tzvp.frozencore.gbw
Electron density file                           ... 12h2o.su.etal.mol2,3,5,6,8,9,11-orca.engrad-mp2.def2tzvp.frozencore.pmp2ur
The origin for moment calculation is the CENTER OF MASS  = ( 0.969806, -0.692439 -0.758826)

-------------
DIPOLE MOMENT
-------------
                                X             Y             Z
Electronic contribution:      0.20779       0.15447      -0.08758
Nuclear contribution   :      0.67870       1.21732      -0.63259
                        -----------------------------------------
Total Dipole Moment    :      0.88649       1.37179      -0.72017
                        -----------------------------------------
Magnitude (a.u.)       :      1.78502
Magnitude (Debye)      :      4.53716



--------------------
Rotational spectrum 
--------------------
 
Rotational constants in cm-1:     0.040920     0.018598     0.017667 
Rotational constants in MHz :  1226.759914   557.555159   529.635486 

 Dipole components along the rotational axes: 
x,y,z [a.u.] :    -0.548476     1.392528    -0.972801 
x,y,z [Debye]:    -1.394116     3.539526    -2.472663 

 

                           *** MP2 RELAXED DENSITY ***

------------------------------------------------------------------------------
                       ORCA ELECTRIC PROPERTIES CALCULATION
------------------------------------------------------------------------------

Dipole Moment Calculation                       ... on
Quadrupole Moment Calculation                   ... off
Polarizability Calculation                      ... off
GBWName                                         ... 12h2o.su.etal.mol2,3,5,6,8,9,11-orca.engrad-mp2.def2tzvp.frozencore.gbw
Electron density file                           ... 12h2o.su.etal.mol2,3,5,6,8,9,11-orca.engrad-mp2.def2tzvp.frozencore.pmp2re
The origin for moment calculation is the CENTER OF MASS  = ( 0.969806, -0.692439 -0.758826)

-------------
DIPOLE MOMENT
-------------
                                X             Y             Z
Electronic contribution:      0.20349       0.16729      -0.08651
Nuclear contribution   :      0.67870       1.21732      -0.63259
                        -----------------------------------------
Total Dipole Moment    :      0.88219       1.38461      -0.71911
                        -----------------------------------------
Magnitude (a.u.)       :      1.79235
Magnitude (Debye)      :      4.55579



--------------------
Rotational spectrum 
--------------------
 
Rotational constants in cm-1:     0.040920     0.018598     0.017667 
Rotational constants in MHz :  1226.759914   557.555159   529.635486 

 Dipole components along the rotational axes: 
x,y,z [a.u.] :    -0.545342     1.405338    -0.969612 
x,y,z [Debye]:    -1.386150     3.572086    -2.464557 

 

Timings for individual modules:

Sum of individual times         ...      108.712 sec (=   1.812 min)
GTO integral calculation        ...        0.909 sec (=   0.015 min)   0.8 %
SCF iterations                  ...       17.611 sec (=   0.294 min)  16.2 %
MP2 module                      ...       90.191 sec (=   1.503 min)  83.0 %
                             ****ORCA TERMINATED NORMALLY****
TOTAL RUN TIME: 0 days 0 hours 1 minutes 49 seconds 750 msec
