10
Energy:   -255.34689880
O   -0.15656567  -1.73554670   0.24187989
H    0.67635839  -1.27912613   0.12292767
H   -0.81269226  -1.13255672  -0.10759518
O   -1.57478137   1.07653815  -0.14780584
H   -1.38091253   0.95696805   0.78189826
H   -0.72949448   0.97198832  -0.58460242
C    1.63515943   0.65436507  -0.15742894
O    0.98380305   0.95728063   1.00916242
O    0.74320858   0.67614651  -1.19716354
O    2.19160721  -0.59397591  -0.05848013
