10
Energy:   -255.14749420
O    0.87373701   0.52499416   1.51422922
H    0.92279980   1.28775540   0.93801746
H    0.83547074  -0.22350237   0.91881299
O   -1.73635005   0.32241573  -0.05560636
H   -1.22441161  -0.05055860  -0.77326995
H   -1.10671756   0.43114857   0.65711515
C    0.77685560  -0.93194014  -1.31687685
O   -0.44448585  -1.06237449  -1.92372966
O    0.73409425  -1.51087824  -0.07586882
O    1.08410378   0.39753012  -1.19083087
