10
Energy:   -256.23683321
O    1.22117757   0.43359650  -1.35883557
H    1.31654122   0.17692916  -0.44163357
H    0.44581035  -0.03938940  -1.66103066
O   -1.33437334   1.09642181   0.24338288
H   -1.20859444   0.35081265   0.83030578
H   -0.51990315   1.14817106  -0.25680924
C    0.14498692  -1.42265050   1.05840187
O   -0.31944218  -1.66271356  -0.20794473
O   -0.86024211  -0.88619098   1.81920708
O    1.19392037  -0.54277822   1.00057793
