10
Energy:   -255.13748528
O    0.57240339  -1.77486824  -0.19078175
H    0.38674907  -1.53506014  -1.09866743
H    0.85754890  -0.95845599   0.21957776
O   -1.72077915   0.28899448   0.77642065
H   -1.15999656   0.98461604   0.43310537
H   -1.13075314  -0.45381587   0.90422496
C    1.04835800   1.43272718  -0.37860442
O    1.07935878   0.75271457  -1.56754521
O    1.21344111   0.55031628   0.65638222
O   -0.15800809   2.06953725  -0.24847369
