
                                 *****************
                                 * O   R   C   A *
                                 *****************

           --- An Ab Initio, DFT and Semiempirical electronic structure package ---

                  #######################################################
                  #                        -***-                        #
                  #          Department of theory and spectroscopy      #
                  #               Directorship: Frank Neese             #
                  #        Max Planck Institute fuer Kohlenforschung    #
                  #                Kaiser Wilhelm Platz 1               #
                  #                 D-45470 Muelheim/Ruhr               #
                  #                      Germany                        #
                  #                                                     #
                  #                  All rights reserved                #
                  #                        -***-                        #
                  #######################################################


                         Program Version 4.2.0 -  RELEASE  -


 With contributions from (in alphabetic order):
   Daniel Aravena         : Magnetic Suceptibility
   Michael Atanasov       : Ab Initio Ligand Field Theory (pilot matlab implementation)
   Alexander A. Auer      : GIAO ZORA, VPT2
   Ute Becker             : Parallelization
   Giovanni Bistoni       : ED, misc. LED, open-shell LED, HFLED
   Martin Brehm           : Molecular dynamics
   Dmytro Bykov           : SCF Hessian
   Vijay G. Chilkuri      : MRCI spin determinant printing, contributions to CSF-ICE
   Dipayan Datta          : RHF DLPNO-CCSD density
   Achintya Kumar Dutta   : EOM-CC, STEOM-CC
   Dmitry Ganyushin       : Spin-Orbit,Spin-Spin,Magnetic field MRCI
   Miquel Garcia          : C-PCM Hessian, Gaussian charge scheme
   Yang Guo               : DLPNO-NEVPT2, CIM, IAO-localization
   Andreas Hansen         : Spin unrestricted coupled pair/coupled cluster methods
   Benjamin Helmich-Paris : CASSCF linear response (MC-RPA)
   Lee Huntington         : MR-EOM, pCC
   Robert Izsak           : Overlap fitted RIJCOSX, COSX-SCS-MP3, EOM
   Christian Kollmar      : KDIIS, OOCD, Brueckner-CCSD(T), CCSD density
   Simone Kossmann        : Meta GGA functionals, TD-DFT gradient, OOMP2, MP2 Hessian
   Martin Krupicka        : AUTO-CI
   Lucas Lang             : DCDCAS
   Dagmar Lenk            : GEPOL surface, SMD
   Dimitrios Liakos       : Extrapolation schemes; Compound Job, initial MDCI parallelization
   Dimitrios Manganas     : Further ROCIS development; embedding schemes
   Dimitrios Pantazis     : SARC Basis sets
   Taras Petrenko         : DFT Hessian,TD-DFT gradient, ASA, ECA, R-Raman, ABS, FL, XAS/XES, NRVS
   Peter Pinski           : DLPNO-MP2, DLPNO-MP2 Gradient
   Christoph Reimann      : Effective Core Potentials
   Marius Retegan         : Local ZFS, SOC
   Christoph Riplinger    : Optimizer, TS searches, QM/MM, DLPNO-CCSD(T), (RO)-DLPNO pert. Triples
   Tobias Risthaus        : Range-separated hybrids, TD-DFT gradient, RPA, STAB
   Michael Roemelt        : Original ROCIS implementation
   Masaaki Saitow         : Open-shell DLPNO-CCSD energy and density
   Barbara Sandhoefer     : DKH picture change effects
   Avijit Sen             : IP-ROCIS
   Kantharuban Sivalingam : CASSCF convergence, NEVPT2, FIC-MRCI
   Bernardo de Souza      : ESD, SOC TD-DFT
   Georgi Stoychev        : AutoAux, RI-MP2 NMR
   Willem Van den Heuvel  : Paramagnetic NMR
   Boris Wezisla          : Elementary symmetry handling
   Frank Wennmohs         : Technical directorship


 We gratefully acknowledge several colleagues who have allowed us to
 interface, adapt or use parts of their codes:
   Stefan Grimme, W. Hujo, H. Kruse,             : VdW corrections, initial TS optimization,
                  C. Bannwarth                     DFT functionals, gCP, sTDA/sTD-DF
   Ed Valeev, F. Pavosevic, A. Kumar             : LibInt (2-el integral package), F12 methods
   Garnet Chan, S. Sharma, J. Yang, R. Olivares  : DMRG
   Ulf Ekstrom                                   : XCFun DFT Library
   Mihaly Kallay                                 : mrcc  (arbitrary order and MRCC methods)
   Andreas Klamt, Michael Diedenhofen            : otool_cosmo (COSMO solvation model)
   Jiri Pittner, Ondrej Demel                    : Mk-CCSD
   Frank Weinhold                                : gennbo (NPA and NBO analysis)
   Christopher J. Cramer and Donald G. Truhlar   : smd solvation model
   Lars Goerigk                                  : TD-DFT with DH, B97 family of functionals
   V. Asgeirsson, H. Jonsson                     : NEB implementation
   FAccTs GmbH                                   : IRC, NEB, NEB-TS, Multilevel, MM, QM/MM, CI optimization
   S Lehtola, MJT Oliveira, MAL Marques          : LibXC Library


 Your calculation uses the libint2 library for the computation of 2-el integrals
 For citations please refer to: http://libint.valeyev.net

 Your ORCA version has been built with support for libXC version: 4.2.3
 For citations please refer to: https://tddft.org/programs/libxc/

 This ORCA versions uses:
   CBLAS   interface :  Fast vector & matrix operations
   LAPACKE interface :  Fast linear algebra routines
   SCALAPACK package :  Parallel linear algebra routines


----- Orbital basis set information -----
Your calculation utilizes the basis: def2-TZVP
   F. Weigend and R. Ahlrichs, Phys. Chem. Chem. Phys. 7, 3297 (2005).

================================================================================
                                        WARNINGS
                       Please study these warnings very carefully!
================================================================================


WARNING: The frozen-core approximation for MP2-gradient calculations is turned on by default.

INFO   : the flag for use of LIBINT has been found!

================================================================================
                                       INPUT FILE
================================================================================
NAME = 12meoh.boyd.etal.mol7,8,10-orca.engrad-mp2.def2tzvp.frozencore.inp
|  1> # 12meoh.boyd.etal.mol7,8,10
|  2> ! MP2 def2-TZVP EnGrad TightSCF
|  3> 
|  4> %pal
|  5>     nprocs 6
|  6> end
|  7> 
|  8> %maxcore 8000
|  9> 
| 10> %scf
| 11>     ConvForced true
| 12> end
| 13> 
| 14> *xyz 0 1
| 15> O   4.310535586  -1.588322800   0.656128299
| 16> H   3.804372199  -1.630404735  -0.196849819
| 17> C   4.312298137  -2.894980854   1.222112691
| 18> H   4.713177833  -2.819907076   2.237066773
| 19> H   4.957796734  -3.574699304   0.648211180
| 20> H   3.302735989  -3.324433205   1.269756773
| 21> O   3.570084754   2.361662577  -0.202416728
| 22> H   3.393280933   1.755669977   0.560634073
| 23> C   4.368082883   1.644741793  -1.143112807
| 24> H   4.552851717   2.311801738  -1.989632421
| 25> H   3.862427494   0.740851663  -1.508095690
| 26> H   5.333949674   1.357289092  -0.706288100
| 27> O  -5.201143618   0.064582726  -0.172223772
| 28> H  -4.686891530   0.869258890   0.107806143
| 29> C  -6.513192168   0.171391798   0.359883449
| 30> H  -7.049381312  -0.749234190   0.111361174
| 31> H  -7.057741163   1.017801101  -0.081819420
| 32> H  -6.514770575   0.292264928   1.453058834
| 33> *
| 34> 
| 35>                          ****END OF INPUT****
================================================================================

                     *******************************
                     * Energy+Gradient Calculation *
                     *******************************

---------------------------------
CARTESIAN COORDINATES (ANGSTROEM)
---------------------------------
  O      4.310536   -1.588323    0.656128
  H      3.804372   -1.630405   -0.196850
  C      4.312298   -2.894981    1.222113
  H      4.713178   -2.819907    2.237067
  H      4.957797   -3.574699    0.648211
  H      3.302736   -3.324433    1.269757
  O      3.570085    2.361663   -0.202417
  H      3.393281    1.755670    0.560634
  C      4.368083    1.644742   -1.143113
  H      4.552852    2.311802   -1.989632
  H      3.862427    0.740852   -1.508096
  H      5.333950    1.357289   -0.706288
  O     -5.201144    0.064583   -0.172224
  H     -4.686892    0.869259    0.107806
  C     -6.513192    0.171392    0.359883
  H     -7.049381   -0.749234    0.111361
  H     -7.057741    1.017801   -0.081819
  H     -6.514771    0.292265    1.453059

----------------------------
CARTESIAN COORDINATES (A.U.)
----------------------------
  NO LB      ZA    FRAG     MASS         X           Y           Z
   0 O     8.0000    0    15.999    8.145732   -3.001495    1.239903
   1 H     1.0000    0     1.008    7.189222   -3.081018   -0.371992
   2 C     6.0000    0    12.011    8.149062   -5.470721    2.309458
   3 H     1.0000    0     1.008    8.906615   -5.328852    4.227444
   4 H     1.0000    0     1.008    9.368878   -6.755203    1.224942
   5 H     1.0000    0     1.008    6.241267   -6.282268    2.399493
   6 O     8.0000    0    15.999    6.746482    4.462895   -0.382512
   7 H     1.0000    0     1.008    6.412372    3.317735    1.059445
   8 C     6.0000    0    12.011    8.254480    3.108112   -2.160170
   9 H     1.0000    0     1.008    8.603643    4.368672   -3.759860
  10 H     1.0000    0     1.008    7.298930    1.400007   -2.849888
  11 H     1.0000    0     1.008   10.079704    2.564905   -1.334691
  12 O     8.0000    0    15.999   -9.828737    0.122044   -0.325456
  13 H     1.0000    0     1.008   -8.856941    1.642661    0.203724
  14 C     6.0000    0    12.011  -12.308149    0.323884    0.680081
  15 H     1.0000    0     1.008  -13.321400   -1.415847    0.210442
  16 H     1.0000    0     1.008  -13.337198    1.923365   -0.154616
  17 H     1.0000    0     1.008  -12.311132    0.552301    2.745883

--------------------------------
INTERNAL COORDINATES (ANGSTROEM)
--------------------------------
 O      0   0   0     0.000000000000     0.00000000     0.00000000
 H      1   0   0     0.992745653921     0.00000000     0.00000000
 C      1   2   0     1.423972158666   107.65251732     0.00000000
 H      3   1   2     1.093833804276   107.83521386   189.70245649
 H      3   1   2     1.099112621312   111.14100782    71.31158364
 H      3   1   2     1.098141617007   112.02184717   309.48604457
 O      2   1   3     3.998940237225    89.35546632   164.92806886
 H      7   2   1     0.990319719728    53.02422335   313.69274294
 C      7   2   1     1.426774522293    57.76025055   110.53103754
 H      9   7   2     1.093482486887   107.36091639   160.15343741
 H      9   7   2     1.098142633914   112.03586382    40.73349782
 H      9   7   2     1.098336714270   111.16969712   278.80180802
 O      8   7   2     8.789823096872   103.18223234   269.81537185
 H     13   8   7     0.995176211641    46.82086488   287.55698189
 C     13   8   7     1.419865370399   149.07101452   244.92592208
 H     15  13   8     1.093990095520   107.72610853   215.43378897
 H     15  13   8     1.099110431505   111.41668057    96.78791130
 H     15  13   8     1.099838727857   112.46269835   334.96740887

---------------------------
INTERNAL COORDINATES (A.U.)
---------------------------
 O      0   0   0     0.000000000000     0.00000000     0.00000000
 H      1   0   0     1.876017406552     0.00000000     0.00000000
 C      1   2   0     2.690917402208   107.65251732     0.00000000
 H      3   1   2     2.067046326107   107.83521386   189.70245649
 H      3   1   2     2.077021844616   111.14100782    71.31158364
 H      3   1   2     2.075186912405   112.02184717   309.48604457
 O      2   1   3     7.556901874274    89.35546632   164.92806886
 H      7   2   1     1.871433055307    53.02422335   313.69274294
 C      7   2   1     2.696213101990    57.76025055   110.53103754
 H      9   7   2     2.066382432455   107.36091639   160.15343741
 H      9   7   2     2.075188834080   112.03586382    40.73349782
 H      9   7   2     2.075555592802   111.16969712   278.80180802
 O      8   7   2    16.610358418704   103.18223234   269.81537185
 H     13   8   7     1.880610494996    46.82086488   287.55698189
 C     13   8   7     2.683156697093   149.07101452   244.92592208
 H     15  13   8     2.067341673755   107.72610853   215.43378897
 H     15  13   8     2.077017706481   111.41668057    96.78791130
 H     15  13   8     2.078393987130   112.46269835   334.96740887

---------------------
BASIS SET INFORMATION
---------------------
There are 3 groups of distinct atoms

 Group   1 Type O   : 11s6p2d1f contracted to 5s3p2d1f pattern {62111/411/11/1}
 Group   2 Type H   : 5s1p contracted to 3s1p pattern {311/1}
 Group   3 Type C   : 11s6p2d1f contracted to 5s3p2d1f pattern {62111/411/11/1}

Atom   0O    basis set group =>   1
Atom   1H    basis set group =>   2
Atom   2C    basis set group =>   3
Atom   3H    basis set group =>   2
Atom   4H    basis set group =>   2
Atom   5H    basis set group =>   2
Atom   6O    basis set group =>   1
Atom   7H    basis set group =>   2
Atom   8C    basis set group =>   3
Atom   9H    basis set group =>   2
Atom  10H    basis set group =>   2
Atom  11H    basis set group =>   2
Atom  12O    basis set group =>   1
Atom  13H    basis set group =>   2
Atom  14C    basis set group =>   3
Atom  15H    basis set group =>   2
Atom  16H    basis set group =>   2
Atom  17H    basis set group =>   2


           ************************************************************
           *        Program running with 6 parallel MPI-processes     *
           *              working on a common directory               *
           ************************************************************
------------------------------------------------------------------------------
                           ORCA GTO INTEGRAL CALCULATION
------------------------------------------------------------------------------

                         BASIS SET STATISTICS AND STARTUP INFO

 # of primitive gaussian shells          ...  192
 # of primitive gaussian functions       ...  372
 # of contracted shells                  ...  114
 # of contracted basis functions         ...  258
 Highest angular momentum                ...    3
 Maximum contraction depth               ...    6
 Integral package used                   ... LIBINT
 Integral threshhold            Thresh   ...  2.500e-11
 Primitive cut-off              TCut     ...  2.500e-12


------------------------------ INTEGRAL EVALUATION ----------------------------


 * One electron integrals 
 Pre-screening matrix                    ... done
 Shell pair data                         ... done (   0.001 sec)



           ************************************************************
           *        Program running with 6 parallel MPI-processes     *
           *              working on a common directory               *
           ************************************************************
-------------------------------------------------------------------------------
                                 ORCA SCF
-------------------------------------------------------------------------------

------------
SCF SETTINGS
------------
Hamiltonian:
 Ab initio Hamiltonian  Method          .... Hartree-Fock(GTOs)


General Settings:
 Integral files         IntName         .... 12meoh.boyd.etal.mol7,8,10-orca.engrad-mp2.def2tzvp.frozencore
 Hartree-Fock type      HFTyp           .... RHF
 Total Charge           Charge          ....    0
 Multiplicity           Mult            ....    1
 Number of Electrons    NEL             ....   54
 Basis Dimension        Dim             ....  258
 Nuclear Repulsion      ENuc            ....    191.8371430912 Eh

Convergence Acceleration:
 DIIS                   CNVDIIS         .... on
   Start iteration      DIISMaxIt       ....    12
   Startup error        DIISStart       ....  0.200000
   # of expansion vecs  DIISMaxEq       ....     5
   Bias factor          DIISBfac        ....   1.050
   Max. coefficient     DIISMaxC        ....  10.000
 Newton-Raphson         CNVNR           .... off
 SOSCF                  CNVSOSCF        .... on
   Start iteration      SOSCFMaxIt      ....   150
   Startup grad/error   SOSCFStart      ....  0.003300
 Level Shifting         CNVShift        .... on
   Level shift para.    LevelShift      ....    0.2500
   Turn off err/grad.   ShiftErr        ....    0.0010
 Zerner damping         CNVZerner       .... off
 Static damping         CNVDamp         .... on
   Fraction old density DampFac         ....    0.7000
   Max. Damping (<1)    DampMax         ....    0.9800
   Min. Damping (>=0)   DampMin         ....    0.0000
   Turn off err/grad.   DampErr         ....    0.1000
 Fernandez-Rico         CNVRico         .... off

SCF Procedure:
 Maximum # iterations   MaxIter         ....   125
 SCF integral mode      SCFMode         .... Direct
   Integral package                     .... LIBINT
 Reset frequency        DirectResetFreq ....    20
 Integral Threshold     Thresh          ....  2.500e-11 Eh
 Primitive CutOff       TCut            ....  2.500e-12 Eh

Convergence Tolerance:
 Convergence Check Mode ConvCheckMode   .... Total+1el-Energy
 Convergence forced     ConvForced      .... 1
 Energy Change          TolE            ....  1.000e-08 Eh
 1-El. energy change                    ....  1.000e-05 Eh
 Orbital Gradient       TolG            ....  1.000e-05
 Orbital Rotation angle TolX            ....  1.000e-05
 DIIS Error             TolErr          ....  5.000e-07


Diagonalization of the overlap matrix:
Smallest eigenvalue                        ... 1.509e-03
Time for diagonalization                   ...    0.009 sec
Threshold for overlap eigenvalues          ... 1.000e-08
Number of eigenvalues below threshold      ... 0
Time for construction of square roots      ...    0.004 sec
Total time needed                          ...    0.014 sec

-------------------
DFT GRID GENERATION
-------------------

General Integration Accuracy     IntAcc      ...  4.340
Radial Grid Type                 RadialGrid  ... Gauss-Chebyshev
Angular Grid (max. acc.)         AngularGrid ... Lebedev-110
Angular grid pruning method      GridPruning ... 3 (G Style)
Weight generation scheme         WeightScheme... Becke
Basis function cutoff            BFCut       ...    1.0000e-11
Integration weight cutoff        WCut        ...    1.0000e-14
Grids for H and He will be reduced by one unit

# of grid points (after initial pruning)     ...  19644 (   0.0 sec)
# of grid points (after weights+screening)   ...  18872 (   0.0 sec)
nearest neighbour list constructed           ...    0.0 sec
Grid point re-assignment to atoms done       ...    0.0 sec
Grid point division into batches done        ...    0.0 sec
Reduced shell lists constructed in    0.0 sec

Total number of grid points                  ...    18872
Total number of batches                      ...      302
Average number of points per batch           ...       62
Average number of grid points per atom       ...     1048
Average number of shells per batch           ...    53.35 (46.79%)
Average number of basis functions per batch  ...   117.50 (45.54%)
Average number of large shells per batch     ...    43.08 (80.75%)
Average number of large basis fcns per batch ...    95.46 (81.24%)
Maximum spatial batch extension              ...  20.05, 16.30, 18.35 au
Average spatial batch extension              ...   0.57,  0.51,  0.52 au

Time for grid setup =    0.053 sec

------------------------------
INITIAL GUESS: MODEL POTENTIAL
------------------------------
Loading Hartree-Fock densities                     ... done
Calculating cut-offs                               ... done
Setting up the integral package                    ... done
Initializing the effective Hamiltonian             ... done
Starting the Coulomb interaction                   ... done (   0.0 sec)
Reading the grid                                   ... done
Mapping shells                                     ... done
Starting the XC term evaluation                    ... done (   0.0 sec)
Transforming the Hamiltonian                       ... done (   0.0 sec)
Diagonalizing the Hamiltonian                      ... done (   0.0 sec)
Back transforming the eigenvectors                 ... done (   0.0 sec)
Now organizing SCF variables                       ... done
                      ------------------
                      INITIAL GUESS DONE (   0.2 sec)
                      ------------------
--------------
SCF ITERATIONS
--------------
ITER       Energy         Delta-E        Max-DP      RMS-DP      [F,P]     Damp
               ***  Starting incremental Fock matrix formation  ***
  0   -344.9113710533   0.000000000000 0.03677175  0.00076887  0.2887994 0.7000
  1   -345.0419409045  -0.130569851214 0.02518106  0.00056934  0.2178398 0.7000
                               ***Turning on DIIS***
  2   -345.1172541935  -0.075313289082 0.01472781  0.00035081  0.1628032 0.7000
  3   -345.9842758517  -0.867021658147 0.00763333  0.00019533  0.1199486 0.7000
  4   -345.8335306899   0.150745161749 0.01631894  0.00046638  0.0845587 0.0000
  5   -345.3003404791   0.533190210861 0.00200256  0.00006178  0.0057408 0.0000
                      *** Initiating the SOSCF procedure ***
                           *** Shutting down DIIS ***
                      *** Re-Reading the Fockian *** 
                      *** Removing any level shift *** 
ITER      Energy       Delta-E        Grad      Rot      Max-DP    RMS-DP
  6   -345.27542012   0.0249203576  0.000801  0.000801  0.000810  0.000031
               *** Restarting incremental Fock matrix formation ***
  7   -345.27028408   0.0051360408  0.000363  0.000374  0.000458  0.000017
  8   -345.27029090  -0.0000068189  0.000196  0.000235  0.000346  0.000012
  9   -345.27029256  -0.0000016631  0.000031  0.000031  0.000052  0.000002
 10   -345.27029261  -0.0000000503  0.000007  0.000014  0.000021  0.000001
                 **** Energy Check signals convergence ****
              ***Rediagonalizing the Fockian in SOSCF/NRSCF***

               *****************************************************
               *                     SUCCESS                       *
               *           SCF CONVERGED AFTER  11 CYCLES          *
               *****************************************************


----------------
TOTAL SCF ENERGY
----------------

Total Energy       :         -345.27029262 Eh           -9395.28231 eV

Components:
Nuclear Repulsion  :          191.83714309 Eh            5220.15405 eV
Electronic Energy  :         -537.10743571 Eh          -14615.43636 eV
One Electron Energy:         -852.58076168 Eh          -23199.90199 eV
Two Electron Energy:          315.47332597 Eh            8584.46563 eV

Virial components:
Potential Energy   :         -689.89333799 Eh          -18772.95213 eV
Kinetic Energy     :          344.62304537 Eh            9377.66982 eV
Virial Ratio       :            2.00187813


---------------
SCF CONVERGENCE
---------------

  Last Energy change         ...   -4.6294e-09  Tolerance :   1.0000e-08
  Last MAX-Density change    ...    4.3703e-06  Tolerance :   1.0000e-07
  Last RMS-Density change    ...    1.3394e-07  Tolerance :   5.0000e-09
  Last Orbital Gradient      ...    2.0512e-06  Tolerance :   1.0000e-05
  Last Orbital Rotation      ...    5.2661e-06  Tolerance :   1.0000e-05

             **** THE GBW FILE WAS UPDATED (12meoh.boyd.etal.mol7,8,10-orca.engrad-mp2.def2tzvp.frozencore.gbw) ****
             **** DENSITY FILE WAS UPDATED (12meoh.boyd.etal.mol7,8,10-orca.engrad-mp2.def2tzvp.frozencore.scfp) ****
             **** ENERGY FILE WAS UPDATED (12meoh.boyd.etal.mol7,8,10-orca.engrad-mp2.def2tzvp.frozencore.en.tmp) ****
             **** THE GBW FILE WAS UPDATED (12meoh.boyd.etal.mol7,8,10-orca.engrad-mp2.def2tzvp.frozencore.gbw) ****
             **** DENSITY FILE WAS UPDATED (12meoh.boyd.etal.mol7,8,10-orca.engrad-mp2.def2tzvp.frozencore.scfp) ****
----------------
ORBITAL ENERGIES
----------------

  NO   OCC          E(Eh)            E(eV) 
   0   2.0000     -20.566785      -559.6507 
   1   2.0000     -20.557876      -559.4083 
   2   2.0000     -20.549394      -559.1774 
   3   2.0000     -11.278209      -306.8957 
   4   2.0000     -11.271633      -306.7167 
   5   2.0000     -11.265469      -306.5490 
   6   2.0000      -1.356236       -36.9051 
   7   2.0000      -1.347963       -36.6799 
   8   2.0000      -1.338954       -36.4348 
   9   2.0000      -0.926761       -25.2184 
  10   2.0000      -0.919457       -25.0197 
  11   2.0000      -0.913110       -24.8470 
  12   2.0000      -0.690457       -18.7883 
  13   2.0000      -0.682560       -18.5734 
  14   2.0000      -0.674287       -18.3483 
  15   2.0000      -0.624337       -16.9891 
  16   2.0000      -0.617069       -16.7913 
  17   2.0000      -0.610221       -16.6050 
  18   2.0000      -0.599122       -16.3029 
  19   2.0000      -0.591811       -16.1040 
  20   2.0000      -0.582621       -15.8539 
  21   2.0000      -0.508975       -13.8499 
  22   2.0000      -0.500155       -13.6099 
  23   2.0000      -0.494667       -13.4606 
  24   2.0000      -0.457451       -12.4479 
  25   2.0000      -0.448865       -12.2142 
  26   2.0000      -0.442605       -12.0439 
  27   0.0000       0.117771         3.2047 
  28   0.0000       0.135130         3.6771 
  29   0.0000       0.153384         4.1738 
  30   0.0000       0.175674         4.7803 
  31   0.0000       0.175755         4.7825 
  32   0.0000       0.195243         5.3128 
  33   0.0000       0.221036         6.0147 
  34   0.0000       0.226214         6.1556 
  35   0.0000       0.228900         6.2287 
  36   0.0000       0.231069         6.2877 
  37   0.0000       0.232801         6.3348 
  38   0.0000       0.236919         6.4469 
  39   0.0000       0.254987         6.9386 
  40   0.0000       0.261023         7.1028 
  41   0.0000       0.281042         7.6475 
  42   0.0000       0.329498         8.9661 
  43   0.0000       0.332475         9.0471 
  44   0.0000       0.333656         9.0793 
  45   0.0000       0.339203         9.2302 
  46   0.0000       0.344216         9.3666 
  47   0.0000       0.382685        10.4134 
  48   0.0000       0.461374        12.5546 
  49   0.0000       0.467109        12.7107 
  50   0.0000       0.473298        12.8791 
  51   0.0000       0.520406        14.1610 
  52   0.0000       0.522199        14.2098 
  53   0.0000       0.546675        14.8758 
  54   0.0000       0.570981        15.5372 
  55   0.0000       0.577471        15.7138 
  56   0.0000       0.580333        15.7917 
  57   0.0000       0.600909        16.3516 
  58   0.0000       0.609330        16.5807 
  59   0.0000       0.619667        16.8620 
  60   0.0000       0.625405        17.0181 
  61   0.0000       0.634694        17.2709 
  62   0.0000       0.637055        17.3351 
  63   0.0000       0.657590        17.8939 
  64   0.0000       0.662014        18.0143 
  65   0.0000       0.681128        18.5344 
  66   0.0000       0.683424        18.5969 
  67   0.0000       0.688673        18.7398 
  68   0.0000       0.702936        19.1279 
  69   0.0000       0.705349        19.1935 
  70   0.0000       0.709758        19.3135 
  71   0.0000       0.748848        20.3772 
  72   0.0000       0.764167        20.7940 
  73   0.0000       0.782516        21.2933 
  74   0.0000       0.840514        22.8716 
  75   0.0000       0.880254        23.9529 
  76   0.0000       0.881874        23.9970 
  77   0.0000       0.889860        24.2143 
  78   0.0000       0.916867        24.9492 
  79   0.0000       0.923489        25.1294 
  80   0.0000       0.937279        25.5047 
  81   0.0000       0.942971        25.6596 
  82   0.0000       0.952058        25.9068 
  83   0.0000       0.995427        27.0869 
  84   0.0000       1.083055        29.4714 
  85   0.0000       1.091000        29.6876 
  86   0.0000       1.098090        29.8805 
  87   0.0000       1.115925        30.3658 
  88   0.0000       1.116612        30.3846 
  89   0.0000       1.190241        32.3881 
  90   0.0000       1.244237        33.8574 
  91   0.0000       1.246845        33.9284 
  92   0.0000       1.290811        35.1247 
  93   0.0000       1.526437        41.5365 
  94   0.0000       1.535446        41.7816 
  95   0.0000       1.543386        41.9977 
  96   0.0000       1.653608        44.9970 
  97   0.0000       1.658994        45.1435 
  98   0.0000       1.676894        45.6306 
  99   0.0000       1.702028        46.3145 
 100   0.0000       1.706916        46.4475 
 101   0.0000       1.717173        46.7266 
 102   0.0000       1.768214        48.1156 
 103   0.0000       1.774895        48.2973 
 104   0.0000       1.785559        48.5875 
 105   0.0000       1.792028        48.7636 
 106   0.0000       1.792773        48.7838 
 107   0.0000       1.794243        48.8238 
 108   0.0000       1.796803        48.8935 
 109   0.0000       1.802801        49.0567 
 110   0.0000       1.808009        49.1984 
 111   0.0000       1.840309        50.0773 
 112   0.0000       1.844838        50.2006 
 113   0.0000       1.854463        50.4625 
 114   0.0000       1.861538        50.6550 
 115   0.0000       1.868773        50.8519 
 116   0.0000       1.908153        51.9235 
 117   0.0000       1.962517        53.4028 
 118   0.0000       1.970226        53.6126 
 119   0.0000       1.985349        54.0241 
 120   0.0000       2.137304        58.1590 
 121   0.0000       2.142603        58.3032 
 122   0.0000       2.180805        59.3427 
 123   0.0000       2.202392        59.9301 
 124   0.0000       2.207303        60.0638 
 125   0.0000       2.225000        60.5453 
 126   0.0000       2.243014        61.0355 
 127   0.0000       2.244628        61.0794 
 128   0.0000       2.262740        61.5723 
 129   0.0000       2.287459        62.2449 
 130   0.0000       2.287983        62.2592 
 131   0.0000       2.303545        62.6827 
 132   0.0000       2.303808        62.6898 
 133   0.0000       2.317625        63.0658 
 134   0.0000       2.334901        63.5359 
 135   0.0000       2.440339        66.4050 
 136   0.0000       2.443835        66.5001 
 137   0.0000       2.452578        66.7380 
 138   0.0000       2.532962        68.9254 
 139   0.0000       2.549934        69.3872 
 140   0.0000       2.556275        69.5598 
 141   0.0000       2.560671        69.6794 
 142   0.0000       2.571012        69.9608 
 143   0.0000       2.583611        70.3036 
 144   0.0000       2.594911        70.6111 
 145   0.0000       2.599861        70.7458 
 146   0.0000       2.607417        70.9514 
 147   0.0000       2.628805        71.5334 
 148   0.0000       2.634748        71.6952 
 149   0.0000       2.676515        72.8317 
 150   0.0000       2.694274        73.3149 
 151   0.0000       2.694695        73.3264 
 152   0.0000       2.702002        73.5252 
 153   0.0000       2.771764        75.4235 
 154   0.0000       2.779164        75.6249 
 155   0.0000       2.814661        76.5908 
 156   0.0000       2.833502        77.1035 
 157   0.0000       2.838662        77.2439 
 158   0.0000       2.847961        77.4970 
 159   0.0000       2.895012        78.7773 
 160   0.0000       2.901242        78.9468 
 161   0.0000       2.921215        79.4903 
 162   0.0000       3.038384        82.6786 
 163   0.0000       3.047119        82.9163 
 164   0.0000       3.070681        83.5575 
 165   0.0000       3.105229        84.4976 
 166   0.0000       3.111352        84.6642 
 167   0.0000       3.130758        85.1923 
 168   0.0000       3.138241        85.3959 
 169   0.0000       3.143640        85.5428 
 170   0.0000       3.147430        85.6459 
 171   0.0000       3.244693        88.2926 
 172   0.0000       3.245717        88.3204 
 173   0.0000       3.280970        89.2797 
 174   0.0000       3.356105        91.3243 
 175   0.0000       3.358290        91.3837 
 176   0.0000       3.362253        91.4915 
 177   0.0000       3.413882        92.8964 
 178   0.0000       3.420043        93.0641 
 179   0.0000       3.429857        93.3312 
 180   0.0000       3.529550        96.0439 
 181   0.0000       3.537640        96.2641 
 182   0.0000       3.552441        96.6668 
 183   0.0000       3.633053        98.8604 
 184   0.0000       3.635091        98.9159 
 185   0.0000       3.651110        99.3517 
 186   0.0000       3.660494        99.6071 
 187   0.0000       3.671792        99.9145 
 188   0.0000       3.675010       100.0021 
 189   0.0000       3.724423       101.3467 
 190   0.0000       3.725688       101.3811 
 191   0.0000       3.726994       101.4167 
 192   0.0000       3.857957       104.9804 
 193   0.0000       3.863973       105.1441 
 194   0.0000       3.869211       105.2866 
 195   0.0000       3.881952       105.6333 
 196   0.0000       3.891279       105.8871 
 197   0.0000       3.895445       106.0004 
 198   0.0000       3.900333       106.1335 
 199   0.0000       3.904095       106.2358 
 200   0.0000       3.909478       106.3823 
 201   0.0000       4.248305       115.6022 
 202   0.0000       4.251320       115.6843 
 203   0.0000       4.291072       116.7660 
 204   0.0000       4.495952       122.3411 
 205   0.0000       4.497052       122.3710 
 206   0.0000       4.503853       122.5561 
 207   0.0000       4.529461       123.2529 
 208   0.0000       4.533940       123.3748 
 209   0.0000       4.551951       123.8649 
 210   0.0000       4.705014       128.0300 
 211   0.0000       4.708956       128.1372 
 212   0.0000       4.728554       128.6705 
 213   0.0000       4.867120       132.4411 
 214   0.0000       4.867769       132.4587 
 215   0.0000       4.916287       133.7790 
 216   0.0000       5.685046       154.6980 
 217   0.0000       5.693785       154.9358 
 218   0.0000       5.701005       155.1322 
 219   0.0000       5.762441       156.8040 
 220   0.0000       5.769407       156.9935 
 221   0.0000       5.785226       157.4240 
 222   0.0000       5.870846       159.7538 
 223   0.0000       5.879284       159.9834 
 224   0.0000       5.886842       160.1891 
 225   0.0000       6.161959       167.6754 
 226   0.0000       6.162996       167.7036 
 227   0.0000       6.169390       167.8776 
 228   0.0000       6.172291       167.9566 
 229   0.0000       6.173835       167.9986 
 230   0.0000       6.177615       168.1015 
 231   0.0000       6.317059       171.8959 
 232   0.0000       6.326319       172.1479 
 233   0.0000       6.331936       172.3007 
 234   0.0000       6.658277       181.1809 
 235   0.0000       6.660787       181.2492 
 236   0.0000       6.680373       181.7822 
 237   0.0000       6.939155       188.8240 
 238   0.0000       6.948100       189.0674 
 239   0.0000       6.957257       189.3166 
 240   0.0000       7.148565       194.5224 
 241   0.0000       7.151020       194.5891 
 242   0.0000       7.165672       194.9878 
 243   0.0000       7.209545       196.1817 
 244   0.0000       7.219028       196.4397 
 245   0.0000       7.223121       196.5511 
 246   0.0000       7.457898       202.9397 
 247   0.0000       7.465983       203.1597 
 248   0.0000       7.487920       203.7566 
 249   0.0000       7.590892       206.5587 
 250   0.0000       7.602017       206.8614 
 251   0.0000       7.625758       207.5074 
 252   0.0000      23.355469       635.5346 
 253   0.0000      23.367153       635.8525 
 254   0.0000      23.373505       636.0254 
 255   0.0000      45.128176      1228.0001 
 256   0.0000      45.148155      1228.5438 
 257   0.0000      45.223619      1230.5972 

                    ********************************
                    * MULLIKEN POPULATION ANALYSIS *
                    ********************************

-----------------------
MULLIKEN ATOMIC CHARGES
-----------------------
   0 O :   -0.548820
   1 H :    0.332293
   2 C :   -0.082240
   3 H :    0.111034
   4 H :    0.094307
   5 H :    0.096302
   6 O :   -0.553716
   7 H :    0.335471
   8 C :   -0.059785
   9 H :    0.108825
  10 H :    0.064134
  11 H :    0.102195
  12 O :   -0.545312
  13 H :    0.330464
  14 C :   -0.074366
  15 H :    0.107916
  16 H :    0.090584
  17 H :    0.090713
Sum of atomic charges:    0.0000000

--------------------------------
MULLIKEN REDUCED ORBITAL CHARGES
--------------------------------
  0 O s       :     3.803963  s :     3.803963
      pz      :     1.448955  p :     4.710641
      px      :     1.790835
      py      :     1.470850
      dz2     :     0.007325  d :     0.032487
      dxz     :     0.007066
      dyz     :     0.005247
      dx2y2   :     0.009119
      dxy     :     0.003732
      f0      :     0.000166  f :     0.001729
      f+1     :     0.000579
      f-1     :     0.000121
      f+2     :     0.000386
      f-2     :     0.000090
      f+3     :     0.000135
      f-3     :     0.000251
  1 H s       :     0.624784  s :     0.624784
      pz      :     0.018010  p :     0.042922
      px      :     0.015596
      py      :     0.009317
  2 C s       :     3.198314  s :     3.198314
      pz      :     1.003464  p :     2.760962
      px      :     1.037356
      py      :     0.720142
      dz2     :     0.027215  d :     0.114018
      dxz     :     0.011918
      dyz     :     0.023083
      dx2y2   :     0.017626
      dxy     :     0.034177
      f0      :     0.000824  f :     0.008946
      f+1     :     0.000675
      f-1     :     0.001681
      f+2     :     0.001224
      f-2     :     0.001199
      f+3     :     0.001700
      f-3     :     0.001643
  3 H s       :     0.867788  s :     0.867788
      pz      :     0.013634  p :     0.021177
      px      :     0.005204
      py      :     0.002340
  4 H s       :     0.885395  s :     0.885395
      pz      :     0.005876  p :     0.020298
      px      :     0.007515
      py      :     0.006907
  5 H s       :     0.883658  s :     0.883658
      pz      :     0.003179  p :     0.020040
      px      :     0.012714
      py      :     0.004148
  6 O s       :     3.805740  s :     3.805740
      pz      :     1.381682  p :     4.713727
      px      :     1.743313
      py      :     1.588732
      dz2     :     0.003041  d :     0.032524
      dxz     :     0.003943
      dyz     :     0.014877
      dx2y2   :     0.004470
      dxy     :     0.006193
      f0      :     0.000113  f :     0.001726
      f+1     :     0.000342
      f-1     :     0.000399
      f+2     :     0.000310
      f-2     :     0.000368
      f+3     :     0.000086
      f-3     :     0.000107
  7 H s       :     0.621534  s :     0.621534
      pz      :     0.016763  p :     0.042996
      px      :     0.013188
      py      :     0.013044
  8 C s       :     3.186334  s :     3.186334
      pz      :     0.890614  p :     2.750414
      px      :     0.917776
      py      :     0.942024
      dz2     :     0.025234  d :     0.114194
      dxz     :     0.018135
      dyz     :     0.029274
      dx2y2   :     0.022278
      dxy     :     0.019273
      f0      :     0.000927  f :     0.008843
      f+1     :     0.000966
      f-1     :     0.001397
      f+2     :     0.002087
      f-2     :     0.001735
      f+3     :     0.001015
      f-3     :     0.000716
  9 H s       :     0.870146  s :     0.870146
      pz      :     0.010199  p :     0.021029
      px      :     0.003560
      py      :     0.007270
 10 H s       :     0.915793  s :     0.915793
      pz      :     0.004307  p :     0.020072
      px      :     0.005138
      py      :     0.010627
 11 H s       :     0.877559  s :     0.877559
      pz      :     0.004289  p :     0.020246
      px      :     0.012087
      py      :     0.003870
 12 O s       :     3.804775  s :     3.804775
      pz      :     1.805923  p :     4.706126
      px      :     1.331930
      py      :     1.568273
      dz2     :     0.003723  d :     0.032670
      dxz     :     0.007711
      dyz     :     0.004012
      dx2y2   :     0.008599
      dxy     :     0.008625
      f0      :     0.000287  f :     0.001741
      f+1     :     0.000241
      f-1     :     0.000108
      f+2     :     0.000289
      f-2     :     0.000206
      f+3     :     0.000475
      f-3     :     0.000135
 13 H s       :     0.626834  s :     0.626834
      pz      :     0.013272  p :     0.042702
      px      :     0.012831
      py      :     0.016599
 14 C s       :     3.192976  s :     3.192976
      pz      :     0.978217  p :     2.757080
      px      :     0.721720
      py      :     1.057143
      dz2     :     0.028735  d :     0.115341
      dxz     :     0.023920
      dyz     :     0.005974
      dx2y2   :     0.016345
      dxy     :     0.040367
      f0      :     0.001623  f :     0.008969
      f+1     :     0.001815
      f-1     :     0.000172
      f+2     :     0.001274
      f-2     :     0.000812
      f+3     :     0.001780
      f-3     :     0.001494
 15 H s       :     0.870929  s :     0.870929
      pz      :     0.003941  p :     0.021154
      px      :     0.005509
      py      :     0.011704
 16 H s       :     0.889273  s :     0.889273
      pz      :     0.005015  p :     0.020143
      px      :     0.005332
      py      :     0.009796
 17 H s       :     0.889300  s :     0.889300
      pz      :     0.014422  p :     0.019986
      px      :     0.002061
      py      :     0.003504


                     *******************************
                     * LOEWDIN POPULATION ANALYSIS *
                     *******************************

----------------------
LOEWDIN ATOMIC CHARGES
----------------------
   0 O :   -0.132590
   1 H :    0.188322
   2 C :   -0.333284
   3 H :    0.101874
   4 H :    0.089471
   5 H :    0.089515
   6 O :   -0.132528
   7 H :    0.188950
   8 C :   -0.332979
   9 H :    0.099908
  10 H :    0.081327
  11 H :    0.092013
  12 O :   -0.127788
  13 H :    0.190583
  14 C :   -0.339603
  15 H :    0.101261
  16 H :    0.087797
  17 H :    0.087750

-------------------------------
LOEWDIN REDUCED ORBITAL CHARGES
-------------------------------
  0 O s       :     3.394191  s :     3.394191
      pz      :     1.427257  p :     4.665823
      px      :     1.710797
      py      :     1.527769
      dz2     :     0.015968  d :     0.068451
      dxz     :     0.012468
      dyz     :     0.013452
      dx2y2   :     0.015811
      dxy     :     0.010753
      f0      :     0.000275  f :     0.004124
      f+1     :     0.000839
      f-1     :     0.000734
      f+2     :     0.000799
      f-2     :     0.000293
      f+3     :     0.000646
      f-3     :     0.000539
  1 H s       :     0.666645  s :     0.666645
      pz      :     0.066337  p :     0.145033
      px      :     0.050747
      py      :     0.027948
  2 C s       :     2.861896  s :     2.861896
      pz      :     1.047002  p :     2.992317
      px      :     1.084836
      py      :     0.860479
      dz2     :     0.087766  d :     0.421721
      dxz     :     0.036966
      dyz     :     0.086033
      dx2y2   :     0.085795
      dxy     :     0.125162
      f0      :     0.004561  f :     0.057350
      f+1     :     0.002507
      f-1     :     0.011761
      f+2     :     0.009266
      f-2     :     0.008657
      f+3     :     0.010617
      f-3     :     0.009981
  3 H s       :     0.839289  s :     0.839289
      pz      :     0.035007  p :     0.058836
      px      :     0.015826
      py      :     0.008004
  4 H s       :     0.851998  s :     0.851998
      pz      :     0.018125  p :     0.058531
      px      :     0.021605
      py      :     0.018801
  5 H s       :     0.851738  s :     0.851738
      pz      :     0.011767  p :     0.058747
      px      :     0.034319
      py      :     0.012661
  6 O s       :     3.394804  s :     3.394804
      pz      :     1.380838  p :     4.665811
      px      :     1.689972
      py      :     1.595001
      dz2     :     0.012611  d :     0.067827
      dxz     :     0.011123
      dyz     :     0.025254
      dx2y2   :     0.008222
      dxy     :     0.010616
      f0      :     0.000328  f :     0.004086
      f+1     :     0.000612
      f-1     :     0.000950
      f+2     :     0.000945
      f-2     :     0.000627
      f+3     :     0.000295
      f-3     :     0.000328
  7 H s       :     0.664852  s :     0.664852
      pz      :     0.056040  p :     0.146197
      px      :     0.036862
      py      :     0.053295
  8 C s       :     2.862417  s :     2.862417
      pz      :     0.965833  p :     2.991671
      px      :     0.999189
      py      :     1.026648
      dz2     :     0.077104  d :     0.421970
      dxz     :     0.073540
      dyz     :     0.112187
      dx2y2   :     0.080962
      dxy     :     0.078178
      f0      :     0.008842  f :     0.056922
      f+1     :     0.007018
      f-1     :     0.008509
      f+2     :     0.011023
      f-2     :     0.009841
      f+3     :     0.006883
      f-3     :     0.004805
  9 H s       :     0.841521  s :     0.841521
      pz      :     0.026111  p :     0.058571
      px      :     0.011456
      py      :     0.021004
 10 H s       :     0.860727  s :     0.860727
      pz      :     0.013645  p :     0.057945
      px      :     0.015671
      py      :     0.028629
 11 H s       :     0.849028  s :     0.849028
      pz      :     0.013884  p :     0.058959
      px      :     0.032376
      py      :     0.012698
 12 O s       :     3.393218  s :     3.393218
      pz      :     1.742017  p :     4.661356
      px      :     1.376676
      py      :     1.542662
      dz2     :     0.008992  d :     0.069063
      dxz     :     0.016795
      dyz     :     0.004207
      dx2y2   :     0.015659
      dxy     :     0.023410
      f0      :     0.000347  f :     0.004152
      f+1     :     0.000733
      f-1     :     0.000113
      f+2     :     0.000711
      f-2     :     0.000608
      f+3     :     0.000996
      f-3     :     0.000643
 13 H s       :     0.665658  s :     0.665658
      pz      :     0.041352  p :     0.143759
      px      :     0.036018
      py      :     0.066389
 14 C s       :     2.861557  s :     2.861557
      pz      :     1.048141  p :     2.993367
      px      :     0.851449
      py      :     1.093777
      dz2     :     0.107507  d :     0.426684
      dxz     :     0.098928
      dyz     :     0.018509
      dx2y2   :     0.070672
      dxy     :     0.131068
      f0      :     0.006214  f :     0.057995
      f+1     :     0.011289
      f-1     :     0.000858
      f+2     :     0.012243
      f-2     :     0.007568
      f+3     :     0.010024
      f-3     :     0.009799
 15 H s       :     0.840073  s :     0.840073
      pz      :     0.012868  p :     0.058666
      px      :     0.014390
      py      :     0.031409
 16 H s       :     0.853799  s :     0.853799
      pz      :     0.015628  p :     0.058403
      px      :     0.015353
      py      :     0.027422
 17 H s       :     0.853912  s :     0.853912
      pz      :     0.037986  p :     0.058339
      px      :     0.007856
      py      :     0.012497


                      *****************************
                      * MAYER POPULATION ANALYSIS *
                      *****************************

  NA   - Mulliken gross atomic population
  ZA   - Total nuclear charge
  QA   - Mulliken gross atomic charge
  VA   - Mayer's total valence
  BVA  - Mayer's bonded valence
  FA   - Mayer's free valence

  ATOM       NA         ZA         QA         VA         BVA        FA
  0 O      8.5488     8.0000    -0.5488     1.7892     1.7892     0.0000
  1 H      0.6677     1.0000     0.3323     0.8944     0.8944    -0.0000
  2 C      6.0822     6.0000    -0.0822     3.8937     3.8937     0.0000
  3 H      0.8890     1.0000     0.1110     0.9629     0.9629     0.0000
  4 H      0.9057     1.0000     0.0943     0.9609     0.9609     0.0000
  5 H      0.9037     1.0000     0.0963     0.9620     0.9620    -0.0000
  6 O      8.5537     8.0000    -0.5537     1.7926     1.7926     0.0000
  7 H      0.6645     1.0000     0.3355     0.8970     0.8970     0.0000
  8 C      6.0598     6.0000    -0.0598     3.9020     3.9020     0.0000
  9 H      0.8912     1.0000     0.1088     0.9602     0.9602     0.0000
 10 H      0.9359     1.0000     0.0641     0.9637     0.9637     0.0000
 11 H      0.8978     1.0000     0.1022     0.9644     0.9644     0.0000
 12 O      8.5453     8.0000    -0.5453     1.7938     1.7938     0.0000
 13 H      0.6695     1.0000     0.3305     0.8977     0.8977    -0.0000
 14 C      6.0744     6.0000    -0.0744     3.9009     3.9009     0.0000
 15 H      0.8921     1.0000     0.1079     0.9621     0.9621     0.0000
 16 H      0.9094     1.0000     0.0906     0.9610     0.9610     0.0000
 17 H      0.9093     1.0000     0.0907     0.9610     0.9610     0.0000

  Mayer bond orders larger than 0.100000
B(  0-O ,  1-H ) :   0.8856 B(  0-O ,  2-C ) :   0.9270 B(  2-C ,  3-H ) :   0.9840 
B(  2-C ,  4-H ) :   0.9874 B(  2-C ,  5-H ) :   0.9878 B(  6-O ,  7-H ) :   0.8842 
B(  6-O ,  8-C ) :   0.9350 B(  8-C ,  9-H ) :   0.9823 B(  8-C , 10-H ) :   0.9890 
B(  8-C , 11-H ) :   0.9894 B( 12-O , 13-H ) :   0.8867 B( 12-O , 14-C ) :   0.9342 
B( 14-C , 15-H ) :   0.9832 B( 14-C , 16-H ) :   0.9880 B( 14-C , 17-H ) :   0.9873 


-------
TIMINGS
-------

Total SCF time: 0 days 0 hours 0 min 9 sec 

Total time                  ....       9.551 sec
Sum of individual times     ....       9.298 sec  ( 97.4%)

Fock matrix formation       ....       8.967 sec  ( 93.9%)
Diagonalization             ....       0.071 sec  (  0.7%)
Density matrix formation    ....       0.008 sec  (  0.1%)
Population analysis         ....       0.008 sec  (  0.1%)
Initial guess               ....       0.132 sec  (  1.4%)
Orbital Transformation      ....       0.000 sec  (  0.0%)
Orbital Orthonormalization  ....       0.000 sec  (  0.0%)
DIIS solution               ....       0.027 sec  (  0.3%)
SOSCF solution              ....       0.032 sec  (  0.3%)


           ************************************************************
           *        Program running with 6 parallel MPI-processes     *
           *              working on a common directory               *
           ************************************************************

------------------------------------------------------------------------------
                                ORCA  MP2 
------------------------------------------------------------------------------

Freezing NCore=12 chemical core electrons
MP2 will be done in the AO integral direct mode
The Q1-step will be done using symmetric double matrices
Dimension of the basis                    ...  258
Memory devoted for MP2                    ... 8000 MB   
Memory needed for all in one shot         ...  264 MB
Number of MOs that can be treated together...  120      
MP2 density construction                  ... relaxed
The MP2 gradient is requested => amplitudes will be stored on disk
Total number of MOs              ...   21
Number of MOs treated per batch  ...    4 
Number of batches necessary      ...    1 
OPERATORS   0/  0 PASS   0
-----------------------------------------------
 MP2 CORRELATION ENERGY   :     -1.252308961 Eh
-----------------------------------------------


---------------------
MP2 DENSITY FORMATION
---------------------

Completing the external part of the density      ... done
Storing the unrelaxed density                    ... done

Calculating G(D)                                 ... done
Completing the Lagrangian                        ... done
Solving the Z-vector equations                   ... 

------------------------------------------------------------------------------
                           ORCA CP-SCF CALCULATION
------------------------------------------------------------------------------

Input orbitals are from        ... 12meoh.boyd.etal.mol7,8,10-orca.engrad-mp2.def2tzvp.frozencore.gbw
Input Perturbation             ... 12meoh.boyd.etal.mol7,8,10-orca.engrad-mp2.def2tzvp.frozencore.pin.tmp
Wavefunction output            ... 12meoh.boyd.etal.mol7,8,10-orca.engrad-mp2.def2tzvp.frozencore.pout.tmp
Perturbation mode              ... Real perturbation (singlet)
Solver                         ... POPLE
Max. number of iterations      ... 128
Convergence tolerance          ... 1.000e-08
Integral handling              ... Direct
Number of perturbations        ... 1
Number of operators            ... 1
Orbital ranges used for CP-SCF:
 Operator 0:  Orbitals   0... 26  to  27...257
Variables per vector in CP-SCF ... 6237
Number of vectors sought       ... 1
     CP-SCF ITERATION   0: 
     CP-SCF ITERATION   1:      0.000356381265
     CP-SCF ITERATION   2:      0.000017064369
     CP-SCF ITERATION   3:      0.000002491210
     CP-SCF ITERATION   4:      0.000000156695
     CP-SCF ITERATION   5:      0.000000004766
                                                 ... done
Finalizing the relaxed density                   ... done
Transforming P to the AO basis                   ... done
Storing the relaxed density                      ... done

------------------------------------
ENERGY WEIGHTED DENSITY FINALIZATION
------------------------------------

Gathering the parts of the W-matrix              ...                                                      done
Forming the Z-density                            ... done
Transforming Z to the AO basis                   ... done
Calculating G(Z)                                 ... done
Finalizing the W-matrix                          ...                                                      done
Transforming W to the AO basis and storing       ... done

                *********************************************
                * UNRELAXED MP2 DENSITY POPULATION ANALYSIS *
                *********************************************

------------------------------------------------------------------------------
                           ORCA POPULATION ANALYSIS
------------------------------------------------------------------------------
Input electron density              ... 12meoh.boyd.etal.mol7,8,10-orca.engrad-mp2.def2tzvp.frozencore.pmp2ur
BaseName (.gbw .S,...)              ... 12meoh.boyd.etal.mol7,8,10-orca.engrad-mp2.def2tzvp.frozencore

                    ********************************
                    * MULLIKEN POPULATION ANALYSIS *
                    ********************************

-----------------------
MULLIKEN ATOMIC CHARGES
-----------------------
   0 O :   -0.537650
   1 H :    0.329585
   2 C :   -0.098121
   3 H :    0.113788
   4 H :    0.096747
   5 H :    0.098699
   6 O :   -0.542583
   7 H :    0.332754
   8 C :   -0.076056
   9 H :    0.111674
  10 H :    0.066597
  11 H :    0.104566
  12 O :   -0.534320
  13 H :    0.327783
  14 C :   -0.090293
  15 H :    0.110698
  16 H :    0.093014
  17 H :    0.093119
Sum of atomic charges:    0.0000000

--------------------------------
MULLIKEN REDUCED ORBITAL CHARGES
--------------------------------
  0 O s       :     3.798766  s :     3.798766
      pz      :     1.438936  p :     4.674670
      px      :     1.777843
      py      :     1.457891
      dz2     :     0.012789  d :     0.059829
      dxz     :     0.012506
      dyz     :     0.010716
      dx2y2   :     0.014468
      dxy     :     0.009350
      f0      :     0.000545  f :     0.004385
      f+1     :     0.000935
      f-1     :     0.000514
      f+2     :     0.000763
      f-2     :     0.000471
      f+3     :     0.000526
      f-3     :     0.000632
  1 H s       :     0.625760  s :     0.625760
      pz      :     0.018149  p :     0.044656
      px      :     0.016296
      py      :     0.010210
  2 C s       :     3.196405  s :     3.196405
      pz      :     1.000135  p :     2.754830
      px      :     1.032862
      py      :     0.721833
      dz2     :     0.031577  d :     0.134613
      dxz     :     0.016967
      dyz     :     0.026710
      dx2y2   :     0.021253
      dxy     :     0.038106
      f0      :     0.001290  f :     0.012273
      f+1     :     0.001147
      f-1     :     0.002216
      f+2     :     0.001652
      f-2     :     0.001690
      f+3     :     0.002225
      f-3     :     0.002052
  3 H s       :     0.861959  s :     0.861959
      pz      :     0.014493  p :     0.024253
      px      :     0.006281
      py      :     0.003479
  4 H s       :     0.879771  s :     0.879771
      pz      :     0.006952  p :     0.023482
      px      :     0.008551
      py      :     0.007979
  5 H s       :     0.878095  s :     0.878095
      pz      :     0.004327  p :     0.023206
      px      :     0.013611
      py      :     0.005267
  6 O s       :     3.800483  s :     3.800483
      pz      :     1.371868  p :     4.677923
      px      :     1.730116
      py      :     1.575939
      dz2     :     0.008678  d :     0.059795
      dxz     :     0.009543
      dyz     :     0.019933
      dx2y2   :     0.009990
      dxy     :     0.011651
      f0      :     0.000492  f :     0.004382
      f+1     :     0.000709
      f-1     :     0.000781
      f+2     :     0.000696
      f-2     :     0.000750
      f+3     :     0.000467
      f-3     :     0.000488
  7 H s       :     0.622558  s :     0.622558
      pz      :     0.016977  p :     0.044689
      px      :     0.014057
      py      :     0.013654
  8 C s       :     3.184404  s :     3.184404
      pz      :     0.889633  p :     2.744626
      px      :     0.915737
      py      :     0.939256
      dz2     :     0.029955  d :     0.134860
      dxz     :     0.021934
      dyz     :     0.032889
      dx2y2   :     0.026731
      dxy     :     0.023352
      f0      :     0.001412  f :     0.012166
      f+1     :     0.001471
      f-1     :     0.001854
      f+2     :     0.002567
      f-2     :     0.002144
      f+3     :     0.001483
      f-3     :     0.001233
  9 H s       :     0.864197  s :     0.864197
      pz      :     0.011171  p :     0.024129
      px      :     0.004689
      py      :     0.008268
 10 H s       :     0.910078  s :     0.910078
      pz      :     0.005452  p :     0.023325
      px      :     0.006256
      py      :     0.011616
 11 H s       :     0.872029  s :     0.872029
      pz      :     0.005395  p :     0.023405
      px      :     0.013001
      py      :     0.005009
 12 O s       :     3.799535  s :     3.799535
      pz      :     1.792232  p :     4.670457
      px      :     1.321372
      py      :     1.556852
      dz2     :     0.009341  d :     0.059930
      dxz     :     0.013173
      dyz     :     0.009513
      dx2y2   :     0.013924
      dxy     :     0.013979
      f0      :     0.000655  f :     0.004399
      f+1     :     0.000628
      f-1     :     0.000479
      f+2     :     0.000670
      f-2     :     0.000587
      f+3     :     0.000851
      f-3     :     0.000530
 13 H s       :     0.627804  s :     0.627804
      pz      :     0.014155  p :     0.044413
      px      :     0.013344
      py      :     0.016915
 14 C s       :     3.191092  s :     3.191092
      pz      :     0.974778  p :     2.750961
      px      :     0.723749
      py      :     1.052435
      dz2     :     0.032338  d :     0.135938
      dxz     :     0.028058
      dyz     :     0.011141
      dx2y2   :     0.020080
      dxy     :     0.044321
      f0      :     0.002034  f :     0.012301
      f+1     :     0.002355
      f-1     :     0.000714
      f+2     :     0.001691
      f-2     :     0.001292
      f+3     :     0.002153
      f-3     :     0.002062
 15 H s       :     0.865065  s :     0.865065
      pz      :     0.005047  p :     0.024237
      px      :     0.006596
      py      :     0.012595
 16 H s       :     0.883646  s :     0.883646
      pz      :     0.006120  p :     0.023340
      px      :     0.006433
      py      :     0.010787
 17 H s       :     0.883707  s :     0.883707
      pz      :     0.015281  p :     0.023174
      px      :     0.003238
      py      :     0.004655


                     *******************************
                     * LOEWDIN POPULATION ANALYSIS *
                     *******************************

----------------------
LOEWDIN ATOMIC CHARGES
----------------------
   0 O :   -0.124623
   1 H :    0.186425
   2 C :   -0.343884
   3 H :    0.103635
   4 H :    0.090938
   5 H :    0.091008
   6 O :   -0.124704
   7 H :    0.187122
   8 C :   -0.343792
   9 H :    0.101661
  10 H :    0.082742
  11 H :    0.093473
  12 O :   -0.120062
  13 H :    0.188729
  14 C :   -0.350149
  15 H :    0.103020
  16 H :    0.089249
  17 H :    0.089213

-------------------------------
LOEWDIN REDUCED ORBITAL CHARGES
-------------------------------
  0 O s       :     3.390730  s :     3.390730
      pz      :     1.417112  p :     4.629653
      px      :     1.698360
      py      :     1.514181
      dz2     :     0.021594  d :     0.097206
      dxz     :     0.018403
      dyz     :     0.019115
      dx2y2   :     0.021861
      dxy     :     0.016233
      f0      :     0.000688  f :     0.007034
      f+1     :     0.001268
      f-1     :     0.001140
      f+2     :     0.001243
      f-2     :     0.000684
      f+3     :     0.001045
      f-3     :     0.000967
  1 H s       :     0.664947  s :     0.664947
      pz      :     0.067907  p :     0.148627
      px      :     0.051895
      py      :     0.028825
  2 C s       :     2.860758  s :     2.860758
      pz      :     1.041388  p :     2.978469
      px      :     1.078462
      py      :     0.858618
      dz2     :     0.092086  d :     0.442436
      dxz     :     0.042042
      dyz     :     0.089727
      dx2y2   :     0.089905
      dxy     :     0.128676
      f0      :     0.005374  f :     0.062221
      f+1     :     0.003252
      f-1     :     0.012290
      f+2     :     0.009985
      f-2     :     0.009261
      f+3     :     0.011187
      f-3     :     0.010872
  3 H s       :     0.832532  s :     0.832532
      pz      :     0.037313  p :     0.063833
      px      :     0.017202
      py      :     0.009317
  4 H s       :     0.845316  s :     0.845316
      pz      :     0.019718  p :     0.063747
      px      :     0.023272
      py      :     0.020756
  5 H s       :     0.845035  s :     0.845035
      pz      :     0.013037  p :     0.063957
      px      :     0.036641
      py      :     0.014279
  6 O s       :     3.391339  s :     3.391339
      pz      :     1.370576  p :     4.629863
      px      :     1.676987
      py      :     1.582300
      dz2     :     0.018054  d :     0.096508
      dxz     :     0.017123
      dyz     :     0.031184
      dx2y2   :     0.013792
      dxy     :     0.016355
      f0      :     0.000727  f :     0.006993
      f+1     :     0.001014
      f-1     :     0.001398
      f+2     :     0.001363
      f-2     :     0.001082
      f+3     :     0.000687
      f-3     :     0.000721
  7 H s       :     0.663181  s :     0.663181
      pz      :     0.057358  p :     0.149698
      px      :     0.037719
      py      :     0.054620
  8 C s       :     2.861283  s :     2.861283
      pz      :     0.961936  p :     2.977940
      px      :     0.994639
      py      :     1.021366
      dz2     :     0.081063  d :     0.442770
      dxz     :     0.077632
      dyz     :     0.116352
      dx2y2   :     0.085213
      dxy     :     0.082510
      f0      :     0.009456  f :     0.061799
      f+1     :     0.007647
      f-1     :     0.009231
      f+2     :     0.011652
      f-2     :     0.010786
      f+3     :     0.007557
      f-3     :     0.005469
  9 H s       :     0.834729  s :     0.834729
      pz      :     0.028184  p :     0.063610
      px      :     0.012759
      py      :     0.022667
 10 H s       :     0.853962  s :     0.853962
      pz      :     0.015150  p :     0.063296
      px      :     0.017219
      py      :     0.030927
 11 H s       :     0.842384  s :     0.842384
      pz      :     0.015352  p :     0.064143
      px      :     0.034702
      py      :     0.014089
 12 O s       :     3.389768  s :     3.389768
      pz      :     1.728803  p :     4.625522
      px      :     1.365248
      py      :     1.531471
      dz2     :     0.014752  d :     0.097708
      dxz     :     0.022646
      dyz     :     0.009901
      dx2y2   :     0.021524
      dxy     :     0.028884
      f0      :     0.000759  f :     0.007064
      f+1     :     0.001138
      f-1     :     0.000495
      f+2     :     0.001142
      f-2     :     0.001014
      f+3     :     0.001461
      f-3     :     0.001055
 13 H s       :     0.663948  s :     0.663948
      pz      :     0.042335  p :     0.147323
      px      :     0.037015
      py      :     0.067974
 14 C s       :     2.860419  s :     2.860419
      pz      :     1.042526  p :     2.979507
      px      :     0.849790
      py      :     1.087192
      dz2     :     0.111451  d :     0.447345
      dxz     :     0.102816
      dyz     :     0.023728
      dx2y2   :     0.074897
      dxy     :     0.134453
      f0      :     0.007164  f :     0.062878
      f+1     :     0.011838
      f-1     :     0.001518
      f+2     :     0.012861
      f-2     :     0.008171
      f+3     :     0.010944
      f-3     :     0.010381
 15 H s       :     0.833305  s :     0.833305
      pz      :     0.014152  p :     0.063675
      px      :     0.016055
      py      :     0.033468
 16 H s       :     0.847103  s :     0.847103
      pz      :     0.017069  p :     0.063648
      px      :     0.017114
      py      :     0.029465
 17 H s       :     0.847215  s :     0.847215
      pz      :     0.040578  p :     0.063573
      px      :     0.009233
      py      :     0.013761


                      *****************************
                      * MAYER POPULATION ANALYSIS *
                      *****************************

  NA   - Mulliken gross atomic population
  ZA   - Total nuclear charge
  QA   - Mulliken gross atomic charge
  VA   - Mayer's total valence
  BVA  - Mayer's bonded valence
  FA   - Mayer's free valence

  ATOM       NA         ZA         QA         VA         BVA        FA
  0 O      8.5377     8.0000    -0.5377     2.0890     1.6832     0.4058
  1 H      0.6704     1.0000     0.3296     0.9009     0.8481     0.0528
  2 C      6.0981     6.0000    -0.0981     3.9991     3.7206     0.2784
  3 H      0.8862     1.0000     0.1138     0.9717     0.9250     0.0468
  4 H      0.9033     1.0000     0.0967     0.9707     0.9217     0.0490
  5 H      0.9013     1.0000     0.0987     0.9718     0.9230     0.0488
  6 O      8.5426     8.0000    -0.5426     2.0920     1.6870     0.4050
  7 H      0.6672     1.0000     0.3328     0.9035     0.8513     0.0522
  8 C      6.0761     6.0000    -0.0761     4.0066     3.7277     0.2789
  9 H      0.8883     1.0000     0.1117     0.9692     0.9223     0.0468
 10 H      0.9334     1.0000     0.0666     0.9747     0.9238     0.0508
 11 H      0.8954     1.0000     0.1046     0.9739     0.9253     0.0486
 12 O      8.5343     8.0000    -0.5343     2.0922     1.6882     0.4040
 13 H      0.6722     1.0000     0.3278     0.9042     0.8514     0.0528
 14 C      6.0903     6.0000    -0.0903     4.0056     3.7275     0.2781
 15 H      0.8893     1.0000     0.1107     0.9710     0.9240     0.0469
 16 H      0.9070     1.0000     0.0930     0.9709     0.9217     0.0492
 17 H      0.9069     1.0000     0.0931     0.9710     0.9217     0.0493

  Mayer bond orders larger than 0.100000
B(  0-O ,  1-H ) :   0.8401 B(  0-O ,  2-C ) :   0.8683 B(  2-C ,  3-H ) :   0.9466 
B(  2-C ,  4-H ) :   0.9492 B(  2-C ,  5-H ) :   0.9498 B(  6-O ,  7-H ) :   0.8395 
B(  6-O ,  8-C ) :   0.8756 B(  8-C ,  9-H ) :   0.9450 B(  8-C , 10-H ) :   0.9502 
B(  8-C , 11-H ) :   0.9513 B( 12-O , 13-H ) :   0.8413 B( 12-O , 14-C ) :   0.8756 
B( 14-C , 15-H ) :   0.9458 B( 14-C , 16-H ) :   0.9497 B( 14-C , 17-H ) :   0.9490 



                *******************************************
                * RELAXED MP2 DENSITY POPULATION ANALYSIS *
                *******************************************

------------------------------------------------------------------------------
                           ORCA POPULATION ANALYSIS
------------------------------------------------------------------------------
Input electron density              ... 12meoh.boyd.etal.mol7,8,10-orca.engrad-mp2.def2tzvp.frozencore.pmp2re
BaseName (.gbw .S,...)              ... 12meoh.boyd.etal.mol7,8,10-orca.engrad-mp2.def2tzvp.frozencore

                    ********************************
                    * MULLIKEN POPULATION ANALYSIS *
                    ********************************

-----------------------
MULLIKEN ATOMIC CHARGES
-----------------------
   0 O :   -0.498724
   1 H :    0.324180
   2 C :   -0.180158
   3 H :    0.131618
   4 H :    0.112946
   5 H :    0.114620
   6 O :   -0.504052
   7 H :    0.326441
   8 C :   -0.159380
   9 H :    0.129223
  10 H :    0.082697
  11 H :    0.120588
  12 O :   -0.496986
  13 H :    0.322445
  14 C :   -0.172380
  15 H :    0.128787
  16 H :    0.109133
  17 H :    0.109001
Sum of atomic charges:    0.0000000

--------------------------------
MULLIKEN REDUCED ORBITAL CHARGES
--------------------------------
  0 O s       :     3.802253  s :     3.802253
      pz      :     1.427431  p :     4.634445
      px      :     1.763738
      py      :     1.443277
      dz2     :     0.012274  d :     0.057696
      dxz     :     0.011801
      dyz     :     0.010366
      dx2y2   :     0.013529
      dxy     :     0.009726
      f0      :     0.000534  f :     0.004329
      f+1     :     0.000910
      f-1     :     0.000520
      f+2     :     0.000743
      f-2     :     0.000475
      f+3     :     0.000533
      f-3     :     0.000615
  1 H s       :     0.630486  s :     0.630486
      pz      :     0.017532  p :     0.045334
      px      :     0.016900
      py      :     0.010902
  2 C s       :     3.218331  s :     3.218331
      pz      :     1.024376  p :     2.825098
      px      :     1.060369
      py      :     0.740354
      dz2     :     0.029894  d :     0.125013
      dxz     :     0.015671
      dyz     :     0.024172
      dx2y2   :     0.019331
      dxy     :     0.035945
      f0      :     0.001212  f :     0.011716
      f+1     :     0.001075
      f-1     :     0.002160
      f+2     :     0.001575
      f-2     :     0.001591
      f+3     :     0.002145
      f-3     :     0.001957
  3 H s       :     0.845285  s :     0.845285
      pz      :     0.013152  p :     0.023097
      px      :     0.006273
      py      :     0.003672
  4 H s       :     0.864673  s :     0.864673
      pz      :     0.006719  p :     0.022381
      px      :     0.008134
      py      :     0.007528
  5 H s       :     0.863303  s :     0.863303
      pz      :     0.004541  p :     0.022077
      px      :     0.012338
      py      :     0.005198
  6 O s       :     3.801961  s :     3.801961
      pz      :     1.362654  p :     4.640102
      px      :     1.718823
      py      :     1.558625
      dz2     :     0.008869  d :     0.057664
      dxz     :     0.009162
      dyz     :     0.018205
      dx2y2   :     0.010086
      dxy     :     0.011341
      f0      :     0.000491  f :     0.004325
      f+1     :     0.000706
      f-1     :     0.000759
      f+2     :     0.000692
      f-2     :     0.000724
      f+3     :     0.000466
      f-3     :     0.000486
  7 H s       :     0.628305  s :     0.628305
      pz      :     0.016473  p :     0.045254
      px      :     0.014964
      py      :     0.013817
  8 C s       :     3.207089  s :     3.207089
      pz      :     0.910794  p :     2.815482
      px      :     0.939640
      py      :     0.965048
      dz2     :     0.030264  d :     0.125204
      dxz     :     0.019327
      dyz     :     0.029370
      dx2y2   :     0.024985
      dxy     :     0.021258
      f0      :     0.001345  f :     0.011605
      f+1     :     0.001419
      f-1     :     0.001733
      f+2     :     0.002446
      f-2     :     0.002054
      f+3     :     0.001394
      f-3     :     0.001213
  9 H s       :     0.847786  s :     0.847786
      pz      :     0.010306  p :     0.022990
      px      :     0.004866
      py      :     0.007819
 10 H s       :     0.895050  s :     0.895050
      pz      :     0.005464  p :     0.022252
      px      :     0.006172
      py      :     0.010617
 11 H s       :     0.857148  s :     0.857148
      pz      :     0.005368  p :     0.022264
      px      :     0.011766
      py      :     0.005131
 12 O s       :     3.800996  s :     3.800996
      pz      :     1.778286  p :     4.633847
      px      :     1.314943
      py      :     1.540618
      dz2     :     0.009413  d :     0.057800
      dxz     :     0.012568
      dyz     :     0.009356
      dx2y2   :     0.012804
      dxy     :     0.013659
      f0      :     0.000642  f :     0.004343
      f+1     :     0.000634
      f-1     :     0.000477
      f+2     :     0.000650
      f-2     :     0.000582
      f+3     :     0.000821
      f-3     :     0.000535
 13 H s       :     0.632566  s :     0.632566
      pz      :     0.015080  p :     0.044989
      px      :     0.013300
      py      :     0.016609
 14 C s       :     3.213092  s :     3.213092
      pz      :     1.001302  p :     2.821153
      px      :     0.740069
      py      :     1.079782
      dz2     :     0.026941  d :     0.126391
      dxz     :     0.028727
      dyz     :     0.010389
      dx2y2   :     0.017914
      dxy     :     0.042419
      f0      :     0.001892  f :     0.011744
      f+1     :     0.002290
      f-1     :     0.000697
      f+2     :     0.001629
      f-2     :     0.001220
      f+3     :     0.001975
      f-3     :     0.002041
 15 H s       :     0.848132  s :     0.848132
      pz      :     0.005187  p :     0.023080
      px      :     0.006340
      py      :     0.011554
 16 H s       :     0.868627  s :     0.868627
      pz      :     0.006079  p :     0.022240
      px      :     0.006188
      py      :     0.009973
 17 H s       :     0.868938  s :     0.868938
      pz      :     0.013700  p :     0.022061
      px      :     0.003489
      py      :     0.004872


                     *******************************
                     * LOEWDIN POPULATION ANALYSIS *
                     *******************************

----------------------
LOEWDIN ATOMIC CHARGES
----------------------
   0 O :   -0.111079
   1 H :    0.189014
   2 C :   -0.378584
   3 H :    0.110843
   4 H :    0.096926
   5 H :    0.097239
   6 O :   -0.111373
   7 H :    0.189281
   8 C :   -0.379042
   9 H :    0.108961
  10 H :    0.088553
  11 H :    0.099261
  12 O :   -0.107208
  13 H :    0.191333
  14 C :   -0.384999
  15 H :    0.110281
  16 H :    0.095263
  17 H :    0.095329

-------------------------------
LOEWDIN REDUCED ORBITAL CHARGES
-------------------------------
  0 O s       :     3.393793  s :     3.393793
      pz      :     1.417199  p :     4.613420
      px      :     1.691137
      py      :     1.505084
      dz2     :     0.021376  d :     0.096719
      dxz     :     0.018102
      dyz     :     0.019046
      dx2y2   :     0.021450
      dxy     :     0.016745
      f0      :     0.000699  f :     0.007147
      f+1     :     0.001279
      f-1     :     0.001156
      f+2     :     0.001271
      f-2     :     0.000695
      f+3     :     0.001063
      f-3     :     0.000984
  1 H s       :     0.661735  s :     0.661735
      pz      :     0.067371  p :     0.149250
      px      :     0.052528
      py      :     0.029351
  2 C s       :     2.866774  s :     2.866774
      pz      :     1.055448  p :     3.018395
      px      :     1.094408
      py      :     0.868539
      dz2     :     0.089972  d :     0.432740
      dxz     :     0.040104
      dyz     :     0.086634
      dx2y2   :     0.087060
      dxy     :     0.128971
      f0      :     0.005246  f :     0.060675
      f+1     :     0.003172
      f-1     :     0.011970
      f+2     :     0.009806
      f-2     :     0.009054
      f+3     :     0.010722
      f-3     :     0.010704
  3 H s       :     0.824969  s :     0.824969
      pz      :     0.036885  p :     0.064187
      px      :     0.017537
      py      :     0.009766
  4 H s       :     0.838597  s :     0.838597
      pz      :     0.019946  p :     0.064477
      px      :     0.023391
      py      :     0.021140
  5 H s       :     0.838077  s :     0.838077
      pz      :     0.013549  p :     0.064684
      px      :     0.036307
      py      :     0.014828
  6 O s       :     3.394223  s :     3.394223
      pz      :     1.371327  p :     4.614060
      px      :     1.668909
      py      :     1.573823
      dz2     :     0.018363  d :     0.095987
      dxz     :     0.016994
      dyz     :     0.030261
      dx2y2   :     0.014096
      dxy     :     0.016274
      f0      :     0.000736  f :     0.007103
      f+1     :     0.001032
      f-1     :     0.001424
      f+2     :     0.001381
      f-2     :     0.001106
      f+3     :     0.000698
      f-3     :     0.000725
  7 H s       :     0.660508  s :     0.660508
      pz      :     0.056641  p :     0.150211
      px      :     0.038415
      py      :     0.055154
  8 C s       :     2.867357  s :     2.867357
      pz      :     0.974438  p :     3.018031
      px      :     1.008500
      py      :     1.035093
      dz2     :     0.080498  d :     0.433369
      dxz     :     0.073696
      dyz     :     0.113788
      dx2y2   :     0.084970
      dxy     :     0.080419
      f0      :     0.009361  f :     0.060284
      f+1     :     0.007437
      f-1     :     0.008949
      f+2     :     0.011228
      f-2     :     0.010634
      f+3     :     0.007433
      f-3     :     0.005242
  9 H s       :     0.827039  s :     0.827039
      pz      :     0.028078  p :     0.063999
      px      :     0.013220
      py      :     0.022701
 10 H s       :     0.847345  s :     0.847345
      pz      :     0.015684  p :     0.064102
      px      :     0.017505
      py      :     0.030913
 11 H s       :     0.835905  s :     0.835905
      pz      :     0.015701  p :     0.064834
      px      :     0.034573
      py      :     0.014561
 12 O s       :     3.392691  s :     3.392691
      pz      :     1.719202  p :     4.610157
      px      :     1.363791
      py      :     1.527164
      dz2     :     0.014853  d :     0.097184
      dxz     :     0.022549
      dyz     :     0.009989
      dx2y2   :     0.020968
      dxy     :     0.028824
      f0      :     0.000772  f :     0.007176
      f+1     :     0.001160
      f-1     :     0.000497
      f+2     :     0.001159
      f-2     :     0.001027
      f+3     :     0.001492
      f-3     :     0.001069
 13 H s       :     0.660713  s :     0.660713
      pz      :     0.043279  p :     0.147954
      px      :     0.036621
      py      :     0.068054
 14 C s       :     2.866314  s :     2.866314
      pz      :     1.057637  p :     3.019417
      px      :     0.859284
      py      :     1.102496
      dz2     :     0.108094  d :     0.437939
      dxz     :     0.102978
      dyz     :     0.022124
      dx2y2   :     0.071578
      dxy     :     0.133166
      f0      :     0.007011  f :     0.061329
      f+1     :     0.011315
      f-1     :     0.001480
      f+2     :     0.012708
      f-2     :     0.008076
      f+3     :     0.010710
      f-3     :     0.010028
 15 H s       :     0.825691  s :     0.825691
      pz      :     0.014572  p :     0.064028
      px      :     0.016287
      py      :     0.033169
 16 H s       :     0.840336  s :     0.840336
      pz      :     0.017357  p :     0.064401
      px      :     0.017614
      py      :     0.029429
 17 H s       :     0.840359  s :     0.840359
      pz      :     0.040225  p :     0.064312
      px      :     0.009870
      py      :     0.014217


                      *****************************
                      * MAYER POPULATION ANALYSIS *
                      *****************************

  NA   - Mulliken gross atomic population
  ZA   - Total nuclear charge
  QA   - Mulliken gross atomic charge
  VA   - Mayer's total valence
  BVA  - Mayer's bonded valence
  FA   - Mayer's free valence

  ATOM       NA         ZA         QA         VA         BVA        FA
  0 O      8.4987     8.0000    -0.4987     2.1440     1.7451     0.3989
  1 H      0.6758     1.0000     0.3242     0.9031     0.8502     0.0529
  2 C      6.1802     6.0000    -0.1802     4.0198     3.7436     0.2762
  3 H      0.8684     1.0000     0.1316     0.9635     0.9172     0.0462
  4 H      0.8871     1.0000     0.1129     0.9624     0.9140     0.0484
  5 H      0.8854     1.0000     0.1146     0.9654     0.9172     0.0482
  6 O      8.5041     8.0000    -0.5041     2.1466     1.7481     0.3985
  7 H      0.6736     1.0000     0.3264     0.9074     0.8552     0.0522
  8 C      6.1594     6.0000    -0.1594     4.0307     3.7542     0.2765
  9 H      0.8708     1.0000     0.1292     0.9607     0.9144     0.0463
 10 H      0.9173     1.0000     0.0827     0.9680     0.9179     0.0502
 11 H      0.8794     1.0000     0.1206     0.9669     0.9189     0.0480
 12 O      8.4970     8.0000    -0.4970     2.1468     1.7492     0.3975
 13 H      0.6776     1.0000     0.3224     0.9067     0.8537     0.0529
 14 C      6.1724     6.0000    -0.1724     4.0271     3.7513     0.2758
 15 H      0.8712     1.0000     0.1288     0.9625     0.9161     0.0464
 16 H      0.8909     1.0000     0.1091     0.9633     0.9147     0.0486
 17 H      0.8910     1.0000     0.1090     0.9640     0.9154     0.0486

  Mayer bond orders larger than 0.100000
B(  0-O ,  1-H ) :   0.8393 B(  0-O ,  2-C ) :   0.9187 B(  2-C ,  3-H ) :   0.9385 
B(  2-C ,  4-H ) :   0.9381 B(  2-C ,  5-H ) :   0.9398 B(  6-O ,  7-H ) :   0.8399 
B(  6-O ,  8-C ) :   0.9282 B(  8-C ,  9-H ) :   0.9365 B(  8-C , 10-H ) :   0.9400 
B(  8-C , 11-H ) :   0.9407 B( 12-O , 13-H ) :   0.8416 B( 12-O , 14-C ) :   0.9273 
B( 14-C , 15-H ) :   0.9376 B( 14-C , 16-H ) :   0.9390 B( 14-C , 17-H ) :   0.9385 



----------------------------------
MP2 DERIVATIVE INTEGRAL GENERATION
----------------------------------


Input Wavefunction Amplitudes       ... 12meoh.boyd.etal.mol7,8,10-orca.engrad-mp2.def2tzvp.frozencore.mp2tsaa.tmp
Input Correlated Electron Density   ... 12meoh.boyd.etal.mol7,8,10-orca.engrad-mp2.def2tzvp.frozencore.pmp2re
Input Energy Weighted Density       ... 12meoh.boyd.etal.mol7,8,10-orca.engrad-mp2.def2tzvp.frozencore.wmp2.tmp
Input SCF Electron Density          ... 12meoh.boyd.etal.mol7,8,10-orca.engrad-mp2.def2tzvp.frozencore.scfp

One-Electron Terms    ...
                        ... One-Electron Terms done
Prescreening matrices              ... done

Batch handling in the gradient evaluation:
Memory available                      ... 8000.0 MB
Memory per occupied orbital in Q2     ...   10.7 MB
Memory per occupied orbital in Q3     ...    0.1 MB
Total memory requirement per |i>      ...   10.8 MB
Max. Number of orbitals possible      ...    743
Number of orbitals treated per batch  ...     21
Number of batches to be done          ...      1
Batch   0: i=    6 ...    26

---------------------------------------
MP2 TOTAL ENERGY:     -346.522601579 Eh
---------------------------------------

The final MP2 gradient
  0:   0.01437688  -0.00079652   0.01978547
  1:  -0.01433109   0.00039342  -0.02271813
  2:  -0.00084670   0.00428148   0.00235952
  3:   0.00198031  -0.00174819   0.00400004
  4:   0.00240998  -0.00145717  -0.00217812
  5:  -0.00322529  -0.00158218  -0.00102441
  6:   0.00386375   0.01523856  -0.01393669
  7:  -0.00588581  -0.01353299   0.01902853
  8:  -0.00207254   0.00031292  -0.00429005
  9:   0.00199779   0.00165187  -0.00336766
 10:  -0.00119523  -0.00283351  -0.00016526
 11:   0.00296304   0.00007046   0.00250273
 12:  -0.01514516  -0.01951914  -0.00791168
 13:   0.01646554   0.02275953   0.00769600
 14:   0.00359905  -0.00464023  -0.00178104
 15:  -0.00378246  -0.00287613  -0.00032506
 16:  -0.00070988   0.00284994  -0.00148515
 17:  -0.00046217   0.00142787   0.00381097

-----------------------------------
NORM OF THE MP2 GRADIENT:  0.063957
-----------------------------------

-------------------------   --------------------
FINAL SINGLE POINT ENERGY      -346.522601579031
-------------------------   --------------------


                            ***************************************
                            *     ORCA property calculations      *
                            ***************************************

                                    ---------------------
                                    Active property flags
                                    ---------------------
   (+) Dipole Moment


------------------------------------------------------------------------------
                       ORCA ELECTRIC PROPERTIES CALCULATION
------------------------------------------------------------------------------

Dipole Moment Calculation                       ... on
Quadrupole Moment Calculation                   ... off
Polarizability Calculation                      ... off
GBWName                                         ... 12meoh.boyd.etal.mol7,8,10-orca.engrad-mp2.def2tzvp.frozencore.gbw
Electron density file                           ... 12meoh.boyd.etal.mol7,8,10-orca.engrad-mp2.def2tzvp.frozencore.scfp
The origin for moment calculation is the CENTER OF MASS  = ( 1.525128, -0.065580  0.229918)

-------------
DIPOLE MOMENT
-------------
                                X             Y             Z
Electronic contribution:      0.70046       2.34030      -0.17455
Nuclear contribution   :     -1.00280      -3.11705       0.41644
                        -----------------------------------------
Total Dipole Moment    :     -0.30234      -0.77674       0.24189
                        -----------------------------------------
Magnitude (a.u.)       :      0.86790
Magnitude (Debye)      :      2.20603



--------------------
Rotational spectrum 
--------------------
 
Rotational constants in cm-1:     0.046131     0.007766     0.006749 
Rotational constants in MHz :  1382.975834   232.833343   202.322723 

 Dipole components along the rotational axes: 
x,y,z [a.u.] :    -0.265344    -0.825125    -0.044891 
x,y,z [Debye]:    -0.674451    -2.097300    -0.114103 

 

                         *** MP2 UNRELAXED DENSITY ***

------------------------------------------------------------------------------
                       ORCA ELECTRIC PROPERTIES CALCULATION
------------------------------------------------------------------------------

Dipole Moment Calculation                       ... on
Quadrupole Moment Calculation                   ... off
Polarizability Calculation                      ... off
GBWName                                         ... 12meoh.boyd.etal.mol7,8,10-orca.engrad-mp2.def2tzvp.frozencore.gbw
Electron density file                           ... 12meoh.boyd.etal.mol7,8,10-orca.engrad-mp2.def2tzvp.frozencore.pmp2ur
The origin for moment calculation is the CENTER OF MASS  = ( 1.525128, -0.065580  0.229918)

-------------
DIPOLE MOMENT
-------------
                                X             Y             Z
Electronic contribution:      0.70779       2.35834      -0.17741
Nuclear contribution   :     -1.00280      -3.11705       0.41644
                        -----------------------------------------
Total Dipole Moment    :     -0.29500      -0.75871       0.23903
                        -----------------------------------------
Magnitude (a.u.)       :      0.84841
Magnitude (Debye)      :      2.15650



--------------------
Rotational spectrum 
--------------------
 
Rotational constants in cm-1:     0.046131     0.007766     0.006749 
Rotational constants in MHz :  1382.975834   232.833343   202.322723 

 Dipole components along the rotational axes: 
x,y,z [a.u.] :    -0.258855    -0.806906    -0.041260 
x,y,z [Debye]:    -0.657958    -2.050992    -0.104874 

 

                           *** MP2 RELAXED DENSITY ***

------------------------------------------------------------------------------
                       ORCA ELECTRIC PROPERTIES CALCULATION
------------------------------------------------------------------------------

Dipole Moment Calculation                       ... on
Quadrupole Moment Calculation                   ... off
Polarizability Calculation                      ... off
GBWName                                         ... 12meoh.boyd.etal.mol7,8,10-orca.engrad-mp2.def2tzvp.frozencore.gbw
Electron density file                           ... 12meoh.boyd.etal.mol7,8,10-orca.engrad-mp2.def2tzvp.frozencore.pmp2re
The origin for moment calculation is the CENTER OF MASS  = ( 1.525128, -0.065580  0.229918)

-------------
DIPOLE MOMENT
-------------
                                X             Y             Z
Electronic contribution:      0.71752       2.38767      -0.18068
Nuclear contribution   :     -1.00280      -3.11705       0.41644
                        -----------------------------------------
Total Dipole Moment    :     -0.28528      -0.72938       0.23576
                        -----------------------------------------
Magnitude (a.u.)       :      0.81790
Magnitude (Debye)      :      2.07894



--------------------
Rotational spectrum 
--------------------
 
Rotational constants in cm-1:     0.046131     0.007766     0.006749 
Rotational constants in MHz :  1382.975834   232.833343   202.322723 

 Dipole components along the rotational axes: 
x,y,z [a.u.] :    -0.250500    -0.777850    -0.034079 
x,y,z [Debye]:    -0.636720    -1.977136    -0.086621 

 

Timings for individual modules:

Sum of individual times         ...       45.326 sec (=   0.755 min)
GTO integral calculation        ...        1.321 sec (=   0.022 min)   2.9 %
SCF iterations                  ...       10.224 sec (=   0.170 min)  22.6 %
MP2 module                      ...       33.781 sec (=   0.563 min)  74.5 %
                             ****ORCA TERMINATED NORMALLY****
TOTAL RUN TIME: 0 days 0 hours 0 minutes 46 seconds 238 msec
