24
Energy:   -113.04676627
O    0.62589497   0.86705012   1.67506387
H    0.53716748  -0.06459399   1.47407004
H    0.22157342   1.31272444   0.93066456
O    0.33626108  -1.74384148   0.63190637
H    1.06498172  -1.72379604   0.01158689
H   -0.15943420  -2.52754733   0.39458133
C   -2.63113633   0.06251327   2.02067093
H   -1.90210656  -0.28056454   2.72474010
H   -3.57909191   0.15937561   2.50739160
H   -2.33132541   1.01300700   1.63134566
C   -2.74755064  -0.95112275   0.86715903
N   -2.83422639  -1.70582085   0.00831698
C   -1.00977854  -0.35937700  -2.54659913
H   -0.17728995  -0.42571648  -3.21552514
H   -1.90142060  -0.16448665  -3.10507141
H   -1.11570336  -1.28268792  -2.01633883
C   -0.77218880   0.78448538  -1.54323979
N   -0.59529244   1.63614291  -0.79619315
C    3.18167331   1.54015913  -0.45767097
H    4.20029450   1.66671242  -0.75982214
H    3.11714624   1.59105533   0.60916778
H    2.58290377   2.31519892  -0.88858564
C    2.67027064   0.16928416  -0.93805532
N    2.28950810  -0.85139456  -1.29572331
