24
Energy:   -112.77795164
O   -0.29361215  -1.88724741  -0.22150142
H    0.41357478  -2.51821501  -0.08734339
H   -0.65269243  -1.73960561   0.65342435
O   -1.55656151   0.43078215  -1.30611607
H   -1.21443727  -0.42960154  -1.06337596
H   -0.90346661   1.04963718  -0.97943983
C    1.39589040  -0.17796221  -2.98797179
H    1.18424708   0.81886399  -2.66171296
H    0.47763774  -0.70368629  -3.14711120
H    1.95040852  -0.14377661  -3.90243343
C    2.22400585  -0.90520009  -1.91235576
N    2.84057545  -1.44666175  -1.11151073
C   -2.84103600   1.38100607   1.91549875
H   -3.11596866   1.46134176   0.88454851
H   -2.32230320   2.26716497   2.21639372
H   -3.72192869   1.26364268   2.51144589
C   -1.92409733   0.15888971   2.10851455
N   -1.24139481  -0.75103146   2.25222358
C    2.13087097   0.27810240   1.67837944
H    3.12113008   0.21985012   1.27726380
H    1.71851227  -0.70628891   1.75475447
H    2.16510395   0.72676615   2.64916676
C    1.24985491   1.13299088   0.74855343
N    0.59389840   1.76949420   0.05625571
