24
Energy:   -119.85616691
O    0.02614580  -1.18281523  -2.37695833
H   -0.77496337  -0.73321950  -2.10803522
H    0.72834314  -0.56583054  -2.17085001
O    0.26260045  -2.74911404  -0.16936411
H    0.18696493  -2.24299971  -0.97828895
H    0.30944035  -3.66002032  -0.45968741
C   -0.24602406   3.29679111  -0.92198856
H   -0.72447238   4.25119665  -0.99338503
H   -0.76795786   2.58962630  -1.53223618
H    0.76642805   3.37932269  -1.25818546
C   -0.26339587   2.82216464   0.54294418
N   -0.27632996   2.46878365   1.63365319
C    2.08472770  -0.26436644   1.54167071
H    3.11381209  -0.24001185   1.83371926
H    1.71453779  -1.26500480   1.62279650
H    1.51715443   0.37885039   2.18122664
C    1.95329322   0.21500183   0.08409360
N    1.85543427   0.57191330  -1.00113881
C   -1.93749510  -0.69975985   1.69269958
H   -2.91075832  -1.02072730   2.00033377
H   -1.61352199   0.10598341   2.31777423
H   -1.24984486  -1.51520348   1.77688948
C   -1.99270511  -0.22384456   0.22912298
N   -2.03381148   0.13049601  -0.86057633
