60
Energy:   -253.36022199
C    2.52709673   1.72249303  -3.39938464
H    2.42921244   2.30083990  -4.29427778
H    3.41343906   1.12571748  -3.45555686
H    2.59140480   2.37813403  -2.55623670
C    1.29974885   0.80538200  -3.24406394
N    0.38593256   0.12255115  -3.12842063
C    0.48954682  -3.40659035   3.07127257
H    1.05427696  -3.26813184   2.17304693
H    0.11223255  -4.40729899   3.10466815
H    1.11960720  -3.23450620   3.91880431
C   -0.68700998  -2.41326550   3.09616924
N   -1.56301000  -1.67369000   3.11470594
C    2.23670734   2.02641439   3.75131971
H    2.04176292   2.56002706   2.84459242
H    3.18553202   2.32625413   4.14467319
H    1.46983587   2.24394369   4.46510417
C    2.25540503   0.51378371   3.46287768
N    2.26932630  -0.61243860   3.24811948
C    3.64401791  -1.63925605   0.32907468
H    4.44880127  -2.27322101   0.63780166
H    2.71828952  -2.03708639   0.68915392
H    3.78984361  -0.65749811   0.72880621
C    3.60820830  -1.56723954  -1.20882366
N    3.58154641  -1.51361998  -2.35385887
C   -2.96577233  -2.17064481   0.09063895
H   -2.83665475  -1.17113317   0.45009034
H   -2.16434916  -2.78391296   0.44633851
H   -3.89721257  -2.55975242   0.44548178
C   -2.96447771  -2.16652262  -1.44935499
N   -2.96351381  -2.16345347  -2.59595048
C    0.45837411  -3.16983088  -3.19743398
H    1.35803670  -2.69633954  -3.53107055
H   -0.38695306  -2.60649439  -3.53354863
H    0.40789436  -4.16125883  -3.59671022
C    0.45282482  -3.23517291  -1.65883084
N    0.44869313  -3.28382302  -0.51327086
C   -2.66511529   1.32716534  -3.35907924
H   -3.60815222   1.61139670  -3.77716304
H   -2.42033262   0.33413118  -3.67350522
H   -1.90762717   2.00438814  -3.69445979
C   -2.75036793   1.37261701  -1.82211270
N   -2.81384239   1.40645785  -0.67777125
C   -3.36941107   1.17364035   2.86970853
H   -3.52872017   0.76851595   1.89226543
H   -4.13408279   1.88952972   3.08806297
H   -3.40217115   0.38516208   3.59229270
C   -1.99241693   1.86119163   2.92224780
N   -0.96718220   2.37310481   2.96136567
C    0.07276447  -0.04603390   0.36900489
H   -0.25972805  -0.34541407  -0.60296240
H   -0.73792453   0.40888393   0.89884658
H    0.41486699  -0.90414095   0.90892826
C    1.22572144   0.96514264   0.22824899
N    2.08415031   1.71800954   0.12344982
C   -0.51332249   4.14058062   0.05869311
H   -1.29999587   3.49358106   0.38646854
H   -0.78528066   5.15771726   0.24940465
H    0.38570029   3.90623233   0.58948310
C   -0.28360473   3.94514591  -1.45148404
N   -0.11256942   3.79963589  -2.57587958
