
                                 *****************
                                 * O   R   C   A *
                                 *****************

           --- An Ab Initio, DFT and Semiempirical electronic structure package ---

                  #######################################################
                  #                        -***-                        #
                  #  Department of molecular theory and spectroscopy    #
                  #              Directorship: Frank Neese              #
                  # Max Planck Institute for Chemical Energy Conversion #
                  #                  D-45470 Muelheim/Ruhr              #
                  #                       Germany                       #
                  #                                                     #
                  #                  All rights reserved                #
                  #                        -***-                        #
                  #######################################################


                         Program Version 3.0.3 - RELEASE   -


 With contributions from (in alphabetic order):
   Ute Becker             : Parallelization
   Dmytro Bykov           : SCF Hessian
   Dmitry Ganyushin       : Spin-Orbit,Spin-Spin,Magnetic field MRCI
   Andreas Hansen         : Spin unrestricted coupled pair/coupled cluster methods
   Dimitrios Liakos       : Extrapolation schemes; parallel MDCI
   Robert Izsak           : Overlap fitted RIJCOSX, COSX-SCS-MP3
   Christian Kollmar      : KDIIS, OOCD, Brueckner-CCSD(T), CCSD density
   Simone Kossmann        : Meta GGA functionals, TD-DFT gradient, OOMP2, MP2 Hessian
   Taras Petrenko         : DFT Hessian,TD-DFT gradient, ASA and ECA modules, normal mode analysis, Resonance Raman, ABS, FL, XAS/XES, NRVS
   Christoph Reimann      : Effective Core Potentials
   Michael Roemelt        : Restricted open shell CIS
   Christoph Riplinger    : Improved optimizer, TS searches, QM/MM, DLPNO-CCSD
   Barbara Sandhoefer     : DKH picture change effects
   Igor Schapiro          : Molecular dynamics
   Kantharuban Sivalingam : CASSCF convergence, NEVPT2
   Boris Wezisla          : Elementary symmetry handling
   Frank Wennmohs         : Technical directorship


 We gratefully acknowledge several colleagues who have allowed us to
 interface, adapt or use parts of their codes:
   Stefan Grimme, W. Hujo, H. Kruse, T. Risthaus : VdW corrections, initial TS optimization,
                                                   DFT functionals, gCP
   Ed Valeev                                     : LibInt (2-el integral package), F12 methods
   Garnet Chan, S. Sharma, R. Olivares           : DMRG
   Ulf Ekstrom                                   : XCFun DFT Library
   Mihaly Kallay                                 : mrcc  (arbitrary order and MRCC methods)
   Andreas Klamt, Michael Diedenhofen            : otool_cosmo (COSMO solvation model)
   Frank Weinhold                                : gennbo (NPA and NBO analysis)
   Christopher J. Cramer and Donald G. Truhlar   : smd solvation model


 Your calculation uses the libint2 library for the computation of 2-el integrals
 For citations please refer to: http://libint.valeyev.net

 This ORCA versions uses:
   CBLAS   interface :  Fast vector & matrix operations
   LAPACKE interface :  Fast linear algebra routines
   SCALAPACK package :  Parallel linear algebra routines


Your calculation utilizes the basis: Ahlrichs-TZV
Cite in your paper:
H - Kr: A. Schaefer, H. Horn and R. Ahlrichs, J. Chem. Phys. 97, 2571 (1992).

The def2-TZV basis will be loaded
Cite in your paper:
 	F. Weigend, R. Ahlrichs, Phys. Chem. Chem. Phys. 2005, 7, 3297.

Your calculation utilizes the atom-pairwise dispersion correction
with the Becke-Johnson damping scheme (D3BJ)
Cite in your paper:
S.Grimme, S.Ehrlich, L.Goerigk, J Comput Chem, (2011), 32, 1456–1465 
S.Grimme, J.Antony, S.Ehrlich and H.Krieg, J.Chem.Phys., 132, (2010), 154104 
   

================================================================================
                                        WARNINGS
                       Please study these warnings very carefully!
================================================================================
Now building the actual basis set


INFO   : the flag for use of LIBINT has been found!

================================================================================
                                       INPUT FILE
================================================================================
NAME = 1_B3LYP_SMD_onBP86_SMD_12_waters.inp
|  1> ! B3LYP Def2-TZVP def2-TZVP/J RIJCOSX TightSCF Grid4 D3BJ COSMO
|  2> 
|  3> %pal nprocs 12 end
|  4> 
|  5> %scf
|  6>         maxiter 400
|  7> end
|  8> 
|  9> %cosmo
| 10>         SMD true
| 11>         solvent "WATER"
| 12> end
| 13> 
| 14> * xyz  0  1
| 15> O  -2.097228	0.363136	-2.552636
| 16> H  -2.513469	0.834502	-1.770382
| 17> H  -1.707747	-0.448195	-2.127672
| 18> O  -0.065345	-1.886520	2.734524
| 19> H  -0.739453	-1.265903	2.347191
| 20> H  0.145605	-2.487069	1.958873
| 21> O  1.397246	0.045036	-1.275120
| 22> H  1.105519	0.744489	-1.936963
| 23> H  0.572005	-0.547680	-1.218035
| 24> O  -0.679271	3.225149	-0.411024
| 25> H  -0.361783	2.875593	-1.296801
| 26> H  -0.075969	2.758048	0.227359
| 27> O  -2.765495	1.655067	-0.277366
| 28> H  -2.016019	2.359968	-0.301437
| 29> H  -3.587284	2.150607	-0.090808
| 30> O  0.038308	1.866388	-2.630956
| 31> H  0.186057	2.246647	-3.519211
| 32> H  -0.812605	1.293562	-2.712301
| 33> O  -1.411961	-0.025130	1.255123
| 34> H  -0.584287	0.563786	1.203659
| 35> H  -2.115876	0.566458	0.846832
| 36> O  0.660058	-3.131110	0.443083
| 37> H  1.573402	-2.673243	0.330841
| 38> H  0.822739	-4.088155	0.328003
| 39> O  2.844533	-1.712229	0.233195
| 40> H  2.527518	-1.051863	-0.439862
| 41> H  2.718467	-1.216785	1.096254
| 42> O  2.062434	-0.385358	2.460739
| 43> H  1.253719	-0.978022	2.682966
| 44> H  2.576754	-0.313228	3.288905
| 45> O  -0.788246	-1.399385	-0.928290
| 46> H  -0.352056	-2.229026	-0.563542
| 47> H  -1.087372	-0.920828	-0.082379
| 48> O  0.807970	1.380868	0.949596
| 49> H  1.098310	0.910621	0.097308
| 50> H  1.368389	0.922951	1.647739
| 51> **                         ****END OF INPUT****
================================================================================

                       ****************************
                       * Single Point Calculation *
                       ****************************

---------------------------------
CARTESIAN COORDINATES (ANGSTROEM)
---------------------------------
  O     -2.097228    0.363136   -2.552636
  H     -2.513469    0.834502   -1.770382
  H     -1.707747   -0.448195   -2.127672
  O     -0.065345   -1.886520    2.734524
  H     -0.739453   -1.265903    2.347191
  H      0.145605   -2.487069    1.958873
  O      1.397246    0.045036   -1.275120
  H      1.105519    0.744489   -1.936963
  H      0.572005   -0.547680   -1.218035
  O     -0.679271    3.225149   -0.411024
  H     -0.361783    2.875593   -1.296801
  H     -0.075969    2.758048    0.227359
  O     -2.765495    1.655067   -0.277366
  H     -2.016019    2.359968   -0.301437
  H     -3.587284    2.150607   -0.090808
  O      0.038308    1.866388   -2.630956
  H      0.186057    2.246647   -3.519211
  H     -0.812605    1.293562   -2.712301
  O     -1.411961   -0.025130    1.255123
  H     -0.584287    0.563786    1.203659
  H     -2.115876    0.566458    0.846832
  O      0.660058   -3.131110    0.443083
  H      1.573402   -2.673243    0.330841
  H      0.822739   -4.088155    0.328003
  O      2.844533   -1.712229    0.233195
  H      2.527518   -1.051863   -0.439862
  H      2.718467   -1.216785    1.096254
  O      2.062434   -0.385358    2.460739
  H      1.253719   -0.978022    2.682966
  H      2.576754   -0.313228    3.288905
  O     -0.788246   -1.399385   -0.928290
  H     -0.352056   -2.229026   -0.563542
  H     -1.087372   -0.920828   -0.082379
  O      0.807970    1.380868    0.949596
  H      1.098310    0.910621    0.097308
  H      1.368389    0.922951    1.647739

----------------------------
CARTESIAN COORDINATES (A.U.)
----------------------------
  NO LB      ZA    FRAG    MASS        X           Y           Z
   0 O     8.0000    0    15.999         -3.963186560391398          0.686227589367628         -4.823782959588208
   1 H     1.0000    0     1.008         -4.749768056100915          1.576980238209552         -3.345537132423773
   2 H     1.0000    0     1.008         -3.227174136025615         -0.846965804592835         -4.020717382812498
   3 O     8.0000    0    15.999         -0.123484154221084         -3.565006146165119          5.167501466634877
   4 H     1.0000    0     1.008         -1.397363658906471         -2.392209982109314          4.435548174004757
   5 H     1.0000    0     1.008          0.275153573729604         -4.699879286165394          3.701733501132724
   6 O     8.0000    0    15.999          2.640412281716933          0.085105706167277         -2.409627587885666
   7 H     1.0000    0     1.008          2.089128145846488          1.406880319716899         -3.660329601538509
   8 H     1.0000    0     1.008          1.080932797233626         -1.034965209025991         -2.301752571530772
   9 O     8.0000    0    15.999         -1.283636160714823          6.094648351089991         -0.776722794468849
  10 H     1.0000    0     1.008         -0.683670789908432          5.434083242621013         -2.450598740195213
  11 H     1.0000    0     1.008         -0.143560604667864          5.211955384209240          0.429646244082202
  12 O     8.0000    0    15.999         -5.226028174728552          3.127623363290644         -0.524145778861202
  13 H     1.0000    0     1.008         -3.809723790781788          4.459693204817868         -0.569633376630820
  14 H     1.0000    0     1.008         -6.778984324597563          4.064058251693981         -0.171602250769121
  15 O     8.0000    0    15.999          0.072391628738255          3.526962179637017         -4.971786310396920
  16 H     1.0000    0     1.008          0.351596775298986          4.245547549595778         -6.650344997483142
  17 H     1.0000    0     1.008         -1.535600905055079          2.444477917247442         -5.125506082760745
  18 O     8.0000    0    15.999         -2.668219601777584         -0.047488817745441          2.371838734385643
  19 H     1.0000    0     1.008         -1.104142413610446          1.065401138138927          2.274585868629520
  20 H     1.0000    0     1.008         -3.998426173336763          1.070450486368764          1.600280561440802
  21 O     8.0000    0    15.999          1.247328852503794         -5.916940395182170          0.837305524596230
  22 H     1.0000    0     1.008          2.973298878563965         -5.051697159422048          0.625198883872641
  23 H     1.0000    0     1.008          1.554751389696237         -7.725493343020835          0.619835841104572
  24 O     8.0000    0    15.999          5.375388348901420         -3.235643888557851          0.440674685799766
  25 H     1.0000    0     1.008          4.776316818556374         -1.987733000404809         -0.831218716718870
  26 H     1.0000    0     1.008          5.137158134102503         -2.299390413863370          2.071619833215708
  27 O     8.0000    0    15.999          3.897435429287743         -0.728221083515626          4.650122797059247
  28 H     1.0000    0     1.008          2.369185558893618         -1.848193732949930          5.070070966622165
  29 H     1.0000    0     1.008          4.869359374486121         -0.591915137475886          6.215129730484275
  30 O     8.0000    0    15.999         -1.489569066158891         -2.644454405917391         -1.754213872857759
  31 H     1.0000    0     1.008         -0.665289423803780         -4.212248685389953         -1.064940044962250
  32 H     1.0000    0     1.008         -2.054835285694219         -1.740112736446438         -0.155673749186299
  33 O     8.0000    0    15.999          1.526842024424354          2.609462347095571          1.794476377867085
  34 H     1.0000    0     1.008          2.075505110147050          1.720824301797504          0.183885470639609
  35 H     1.0000    0     1.008          2.585880454670368          1.744124625028753          3.113775450181270

--------------------------------
INTERNAL COORDINATES (ANGSTROEM)
--------------------------------
 O      0   0   0   0.000000     0.000     0.000
 H      1   0   0   1.003675     0.000     0.000
 H      1   2   0   0.995263   102.260     0.000
 O      3   1   2   5.329842   136.895   336.316
 H      4   3   1   0.994793    42.915    29.417
 H      4   3   1   1.003391    61.386   190.542
 O      3   1   2   3.257469   111.182   267.265
 H      7   3   1   1.006169    69.924   342.883
 H      7   3   1   1.017641    32.169   168.973
 O      2   1   3   3.305651   115.470    96.868
 H     10   2   1   1.003787    63.946    11.914
 H     10   2   1   0.994831   105.118   275.533
 O      2   1   3   1.722191   163.767    61.970
 H     13   2   1   1.029164   101.508    46.049
 H     13   2   1   0.977600   122.004   162.889
 O      8   7   3   1.696827   155.645    40.683
 H     16   8   7   0.977458   122.264   194.200
 H     16   8   7   1.028980   100.624   310.492
 O      5   4   3   1.784488   158.039   315.886
 H     19   5   4   1.017111    97.290   320.973
 H     19   5   4   1.006069   157.057   173.723
 O      6   4   3   1.725419   164.841    50.319
 H     22   6   4   1.027832   101.222    44.414
 H     22   6   4   0.977570   121.229   161.069
 O     23  22   6   1.596514   169.214   312.804
 H     25  23  22   0.994780   100.792   302.036
 H     25  23  22   1.003109    98.315    46.409
 O     27  25  23   1.727272   164.829   320.758
 H     28  27  25   1.026964   101.084    43.776
 H     28  27  25   0.977541   120.327   159.726
 O      9   7   3   1.630839   172.109   261.460
 H     31   9   7   1.005787    97.671   262.880
 H     31   9   7   1.016887    98.475     6.677
 O     20  19   5   1.634182   172.159    88.317
 H     34  20  19   1.015788    98.192     6.549
 H     34  20  19   1.005565    98.001   262.842

---------------------------
INTERNAL COORDINATES (A.U.)
---------------------------
 O      0   0   0   0.000000     0.000     0.000
 H      1   0   0   1.896671     0.000     0.000
 H      1   2   0   1.880774   102.260     0.000
 O      3   1   2  10.071941   136.895   336.316
 H      4   3   1   1.879887    42.915    29.417
 H      4   3   1   1.896134    61.386   190.542
 O      3   1   2   6.155724   111.182   267.265
 H      7   3   1   1.901383    69.924   342.883
 H      7   3   1   1.923063    32.169   168.973
 O      2   1   3   6.246775   115.470    96.868
 H     10   2   1   1.896883    63.946    11.914
 H     10   2   1   1.879959   105.118   275.533
 O      2   1   3   3.254469   163.767    61.970
 H     13   2   1   1.944839   101.508    46.049
 H     13   2   1   1.847395   122.004   162.889
 O      8   7   3   3.206539   155.645    40.683
 H     16   8   7   1.847127   122.264   194.200
 H     16   8   7   1.944490   100.624   310.492
 O      5   4   3   3.372193   158.039   315.886
 H     19   5   4   1.922061    97.290   320.973
 H     19   5   4   1.901194   157.057   173.723
 O      6   4   3   3.260569   164.841    50.319
 H     22   6   4   1.942320   101.222    44.414
 H     22   6   4   1.847340   121.229   161.069
 O     23  22   6   3.016974   169.214   312.804
 H     25  23  22   1.879862   100.792   302.036
 H     25  23  22   1.895602    98.315    46.409
 O     27  25  23   3.264072   164.829   320.758
 H     28  27  25   1.940681   101.084    43.776
 H     28  27  25   1.847285   120.327   159.726
 O      9   7   3   3.081839   172.109   261.460
 H     31   9   7   1.900662    97.671   262.880
 H     31   9   7   1.921637    98.475     6.677
 O     20  19   5   3.088156   172.159    88.317
 H     34  20  19   1.919560    98.192     6.549
 H     34  20  19   1.900243    98.001   262.842

---------------------
BASIS SET INFORMATION
---------------------
There are 2 groups of distinct atoms

 Group   1 Type O   : 11s6p2d1f contracted to 5s3p2d1f pattern {62111/411/11/1}
 Group   2 Type H   : 5s1p contracted to 3s1p pattern {311/1}

Atom   0O    basis set group =>   1
Atom   1H    basis set group =>   2
Atom   2H    basis set group =>   2
Atom   3O    basis set group =>   1
Atom   4H    basis set group =>   2
Atom   5H    basis set group =>   2
Atom   6O    basis set group =>   1
Atom   7H    basis set group =>   2
Atom   8H    basis set group =>   2
Atom   9O    basis set group =>   1
Atom  10H    basis set group =>   2
Atom  11H    basis set group =>   2
Atom  12O    basis set group =>   1
Atom  13H    basis set group =>   2
Atom  14H    basis set group =>   2
Atom  15O    basis set group =>   1
Atom  16H    basis set group =>   2
Atom  17H    basis set group =>   2
Atom  18O    basis set group =>   1
Atom  19H    basis set group =>   2
Atom  20H    basis set group =>   2
Atom  21O    basis set group =>   1
Atom  22H    basis set group =>   2
Atom  23H    basis set group =>   2
Atom  24O    basis set group =>   1
Atom  25H    basis set group =>   2
Atom  26H    basis set group =>   2
Atom  27O    basis set group =>   1
Atom  28H    basis set group =>   2
Atom  29H    basis set group =>   2
Atom  30O    basis set group =>   1
Atom  31H    basis set group =>   2
Atom  32H    basis set group =>   2
Atom  33O    basis set group =>   1
Atom  34H    basis set group =>   2
Atom  35H    basis set group =>   2
-------------------------------
AUXILIARY BASIS SET INFORMATION
-------------------------------
There are 2 groups of distinct atoms

 Group   1 Type O   : 12s5p4d2f1g contracted to 6s4p3d1f1g pattern {711111/2111/211/2/1}
 Group   2 Type H   : 5s2p1d contracted to 3s1p1d pattern {311/2/1}

Atom   0O    basis set group =>   1
Atom   1H    basis set group =>   2
Atom   2H    basis set group =>   2
Atom   3O    basis set group =>   1
Atom   4H    basis set group =>   2
Atom   5H    basis set group =>   2
Atom   6O    basis set group =>   1
Atom   7H    basis set group =>   2
Atom   8H    basis set group =>   2
Atom   9O    basis set group =>   1
Atom  10H    basis set group =>   2
Atom  11H    basis set group =>   2
Atom  12O    basis set group =>   1
Atom  13H    basis set group =>   2
Atom  14H    basis set group =>   2
Atom  15O    basis set group =>   1
Atom  16H    basis set group =>   2
Atom  17H    basis set group =>   2
Atom  18O    basis set group =>   1
Atom  19H    basis set group =>   2
Atom  20H    basis set group =>   2
Atom  21O    basis set group =>   1
Atom  22H    basis set group =>   2
Atom  23H    basis set group =>   2
Atom  24O    basis set group =>   1
Atom  25H    basis set group =>   2
Atom  26H    basis set group =>   2
Atom  27O    basis set group =>   1
Atom  28H    basis set group =>   2
Atom  29H    basis set group =>   2
Atom  30O    basis set group =>   1
Atom  31H    basis set group =>   2
Atom  32H    basis set group =>   2
Atom  33O    basis set group =>   1
Atom  34H    basis set group =>   2
Atom  35H    basis set group =>   2
smp-n59.crc.pitt.edu.99415hfi_wait_for_device: The /dev/hfi1_0 device failed to appear after 15.0 seconds: Connection timed out
smp-n59.crc.pitt.edu.99416hfi_wait_for_device: The /dev/hfi1_0 device failed to appear after 15.0 seconds: Connection timed out
smp-n59.crc.pitt.edu.99417hfi_wait_for_device: The /dev/hfi1_0 device failed to appear after 15.0 seconds: Connection timed out
smp-n59.crc.pitt.edu.99418hfi_wait_for_device: The /dev/hfi1_0 device failed to appear after 15.0 seconds: Connection timed out
smp-n59.crc.pitt.edu.99419hfi_wait_for_device: The /dev/hfi1_0 device failed to appear after 15.0 seconds: Connection timed out
smp-n59.crc.pitt.edu.99420hfi_wait_for_device: The /dev/hfi1_0 device failed to appear after 15.0 seconds: Connection timed out
smp-n59.crc.pitt.edu.99421hfi_wait_for_device: The /dev/hfi1_0 device failed to appear after 15.0 seconds: Connection timed out
smp-n59.crc.pitt.edu.99422hfi_wait_for_device: The /dev/hfi1_0 device failed to appear after 15.0 seconds: Connection timed out
smp-n59.crc.pitt.edu.99423hfi_wait_for_device: The /dev/hfi1_0 device failed to appear after 15.0 seconds: Connection timed out
smp-n59.crc.pitt.edu.99424hfi_wait_for_device: The /dev/hfi1_0 device failed to appear after 15.0 seconds: Connection timed out
smp-n59.crc.pitt.edu.99425hfi_wait_for_device: The /dev/hfi1_0 device failed to appear after 15.0 seconds: Connection timed out
smp-n59.crc.pitt.edu.99426hfi_wait_for_device: The /dev/hfi1_0 device failed to appear after 15.0 seconds: Connection timed out


           ************************************************************
           *        Program running with 12 parallel MPI-processes    *
           *              working on a common directory               *
           ************************************************************
------------------------------------------------------------------------------
                           ORCA GTO INTEGRAL CALCULATION
                           -- RI-GTO INTEGRALS CHOSEN --
------------------------------------------------------------------------------

                         BASIS SET STATISTICS AND STARTUP INFO

Gaussian basis set:
 # of primitive gaussian shells          ...  384
 # of primitive gaussian functions       ...  744
 # of contracted shells                  ...  228
 # of contracted basis functions         ...  516
 Highest angular momentum                ...    3
 Maximum contraction depth               ...    6
Auxiliary gaussian basis set:
 # of primitive gaussian shells          ...  480
 # of primitive gaussian functions       ... 1224
 # of contracted shells                  ...  300
 # of contracted aux-basis functions     ...  852
 Highest angular momentum                ...    4
 Maximum contraction depth               ...    7
Ratio of auxiliary to basis functions    ...  1.65
Integral package used                  ... LIBINT
 One Electron integrals                  ... done
 Ordering auxiliary basis shells         ... done
 Integral threshhold             Thresh  ...  2.500e-11
 Primitive cut-off               TCut    ...  2.500e-12
 Pre-screening matrix                    ... done
 Shell pair data                         ... 
 Ordering of the shell pairs             ... done (   0.003 sec) 19889 of 26106 pairs
 Determination of significant pairs      ... done (   0.000 sec)
 Creation of shell pair data             ... done (   0.002 sec)
 Storage of shell pair data              ... done (   0.003 sec)
 Shell pair data done in (   0.008 sec)
 Computing two index integrals           ... done
 Cholesky decomposition of the V-matrix  ... done


Timings:
 Total evaluation time                   ...   0.368 sec (  0.006 min)
 One electron matrix time                ...   0.108 sec (  0.002 min) = 29.4%
 Schwartz matrix evaluation time         ...   0.202 sec (  0.003 min) = 55.0%
 Two index repulsion integral time       ...   0.020 sec (  0.000 min) =  5.4%
 Cholesky decomposition of V             ...   0.016 sec (  0.000 min) =  4.3%
 Three index repulsion integral time     ...   0.000 sec (  0.000 min) =  0.0%

           ************************************************************
           *              Shut down parallel processing               *
           ************************************************************
smp-n59.crc.pitt.edu.99471hfi_wait_for_device: The /dev/hfi1_0 device failed to appear after 15.0 seconds: Connection timed out
smp-n59.crc.pitt.edu.99477hfi_wait_for_device: The /dev/hfi1_0 device failed to appear after 15.0 seconds: Connection timed out
smp-n59.crc.pitt.edu.99467hfi_wait_for_device: The /dev/hfi1_0 device failed to appear after 15.0 seconds: Connection timed out
smp-n59.crc.pitt.edu.99468hfi_wait_for_device: The /dev/hfi1_0 device failed to appear after 15.0 seconds: Connection timed out
smp-n59.crc.pitt.edu.99469hfi_wait_for_device: The /dev/hfi1_0 device failed to appear after 15.0 seconds: Connection timed out
smp-n59.crc.pitt.edu.99470hfi_wait_for_device: The /dev/hfi1_0 device failed to appear after 15.0 seconds: Connection timed out
smp-n59.crc.pitt.edu.99473hfi_wait_for_device: The /dev/hfi1_0 device failed to appear after 15.0 seconds: Connection timed out
smp-n59.crc.pitt.edu.99474hfi_wait_for_device: The /dev/hfi1_0 device failed to appear after 15.0 seconds: Connection timed out
smp-n59.crc.pitt.edu.99475hfi_wait_for_device: The /dev/hfi1_0 device failed to appear after 15.0 seconds: Connection timed out
smp-n59.crc.pitt.edu.99476hfi_wait_for_device: The /dev/hfi1_0 device failed to appear after 15.0 seconds: Connection timed out
smp-n59.crc.pitt.edu.99472hfi_wait_for_device: The /dev/hfi1_0 device failed to appear after 15.0 seconds: Connection timed out
smp-n59.crc.pitt.edu.99478hfi_wait_for_device: The /dev/hfi1_0 device failed to appear after 15.0 seconds: Connection timed out


           ************************************************************
           *        Program running with 12 parallel MPI-processes    *
           *              working on a common directory               *
           ************************************************************
-------------------------------------------------------------------------------
                                 ORCA SCF
-------------------------------------------------------------------------------

------------
SCF SETTINGS
------------
Hamiltonian:
 Density Functional     Method          .... DFT(GTOs)
 Exchange Functional    Exchange        .... B88
   X-Alpha parameter    XAlpha          ....  0.666667
   Becke's b parameter  XBeta           ....  0.004200
 Correlation Functional Correlation     .... LYP
 LDA part of GGA corr.  LDAOpt          .... VWN-5
 Gradients option       PostSCFGGA      .... off
 Hybrid DFT is turned on
   Fraction HF Exchange ScalHFX         ....  0.200000
   Scaling of DF-GGA-X  ScalDFX         ....  0.720000
   Scaling of DF-GGA-C  ScalDFC         ....  0.810000
   Scaling of DF-LDA-C  ScalLDAC        ....  1.000000
   Perturbative correction              ....  0.000000
   NL short-range parameter             ....  4.800000
 RI-approximation to the Coulomb term is turned on
   Number of auxiliary basis functions  .... 852
   RIJ-COSX (HFX calculated with COS-X)).... on


General Settings:
 Integral files         IntName         .... 1_B3LYP_SMD_onBP86_SMD_12_waters
 Hartree-Fock type      HFTyp           .... RHF
 Total Charge           Charge          ....    0
 Multiplicity           Mult            ....    1
 Number of Electrons    NEL             ....  120
 Basis Dimension        Dim             ....  516
 Nuclear Repulsion      ENuc            ....   1055.4087616323 Eh

Convergence Acceleration:
 DIIS                   CNVDIIS         .... on
   Start iteration      DIISMaxIt       ....    12
   Startup error        DIISStart       ....  0.200000
   # of expansion vecs  DIISMaxEq       ....     5
   Bias factor          DIISBfac        ....   1.050
   Max. coefficient     DIISMaxC        ....  10.000
 Newton-Raphson         CNVNR           .... off
 SOSCF                  CNVSOSCF        .... on
   Start iteration      SOSCFMaxIt      ....   150
   Startup grad/error   SOSCFStart      ....  0.003300
 Level Shifting         CNVShift        .... on
   Level shift para.    LevelShift      ....    0.2500
   Turn off err/grad.   ShiftErr        ....    0.0010
 Zerner damping         CNVZerner       .... off
 Static damping         CNVDamp         .... on
   Fraction old density DampFac         ....    0.7000
   Max. Damping (<1)    DampMax         ....    0.9800
   Min. Damping (>=0)   DampMin         ....    0.0000
   Turn off err/grad.   DampErr         ....    0.1000
 Fernandez-Rico         CNVRico         .... off

SCF Procedure:
 Maximum # iterations   MaxIter         ....   400
 SCF integral mode      SCFMode         .... Direct
   Integral package                     .... LIBINT
 Reset frequeny         DirectResetFreq ....    20
 Integral Threshold     Thresh          ....  2.500e-11 Eh
 Primitive CutOff       TCut            ....  2.500e-12 Eh

Convergence Tolerance:
 Convergence Check Mode ConvCheckMode   .... Total+1el-Energy
 Energy Change          TolE            ....  1.000e-08 Eh
 1-El. energy change                    ....  1.000e-05 Eh
 Orbital Gradient       TolG            ....  1.000e-05
 Orbital Rotation angle TolX            ....  1.000e-05
 DIIS Error             TolErr          ....  5.000e-07


Diagonalization of the overlap matrix:
Smallest eigenvalue                        ... 1.924e-03
Time for diagonalization                   ...    0.051 sec
Threshold for overlap eigenvalues          ... 1.000e-08
Number of eigenvalues below threshold      ... 0
Time for construction of square roots      ...    0.025 sec
Total time needed                          ...    0.077 sec

-------------------
DFT GRID GENERATION
-------------------

General Integration Accuracy     IntAcc      ...  4.670
Radial Grid Type                 RadialGrid  ... Gauss-Chebyshev
Angular Grid (max. acc.)         AngularGrid ... Lebedev-302
Angular grid pruning method      GridPruning ... 3 (G Style)
Weight generation scheme         WeightScheme... Becke
Basis function cutoff            BFCut       ...    1.0000e-11
Integration weight cutoff        WCut        ...    1.0000e-14
Grids for H and He will be reduced by one unit

# of grid points (after initial pruning)     ... 156000 (   0.0 sec)
# of grid points (after weights+screening)   ... 137313 (   0.1 sec)
nearest neighbour list constructed           ...    0.0 sec
Grid point re-assignment to atoms done       ...    0.0 sec
Grid point division into batches done        ...    0.3 sec
Reduced shell lists constructed in    0.5 sec

Total number of grid points                  ...   137313
Total number of batches                      ...     2164
Average number of points per batch           ...       63
Average number of grid points per atom       ...     3814
Average number of shells per batch           ...    95.93 (42.07%)
Average number of basis functions per batch  ...   188.59 (36.55%)
Average number of large shells per batch     ...    62.05 (64.69%)
Average number of large basis fcns per batch ...   118.14 (62.65%)
Maximum spatial batch extension              ...  15.43, 11.97, 15.43 au
Average spatial batch extension              ...   0.18,  0.17,  0.18 au

Time for grid setup =    0.660 sec

------------------------------
INITIAL GUESS: MODEL POTENTIAL
------------------------------
Loading Hartree-Fock densities                     ... done
Calculating cut-offs                               ... done
Setting up the integral package                    ... done
Initializing the effective Hamiltonian             ... done
Starting the Coulomb interaction                   ... done (   0.1 sec)
Reading the grid                                   ... done
Mapping shells                                     ... done
Starting the XC term evaluation                    ... done (   0.3 sec)
  promolecular density results
     # of electrons  =    119.989142115
     EX              =   -105.503298645
     EC              =     -4.172917873
     EX+EC           =   -109.676216518
Transforming the Hamiltonian                       ... done (   0.0 sec)
Diagonalizing the Hamiltonian                      ... done (   0.1 sec)
Back transforming the eigenvectors                 ... done (   0.0 sec)
Now organizing SCF variables                       ... done
                      ------------------
                      INITIAL GUESS DONE (   1.2 sec)
                      ------------------
--------------------
COSX GRID GENERATION
--------------------

General Integration Accuracy     IntAcc      ...  3.340
Radial Grid Type                 RadialGrid  ... Gauss-Chebyshev
Angular Grid (max. acc.)         AngularGrid ... Lebedev-50
Angular grid pruning method      GridPruning ... 3 (G Style)
Weight generation scheme         WeightScheme... Becke
Basis function cutoff            BFCut       ...    1.0000e-11
Integration weight cutoff        WCut        ...    1.0000e-14
Grids for H and He will be reduced by one unit

# of grid points (after initial pruning)     ...  14640 (   0.0 sec)
# of grid points (after weights+screening)   ...  13099 (   0.0 sec)
nearest neighbour list constructed           ...    0.0 sec
Grid point re-assignment to atoms done       ...    0.0 sec
Grid point division into batches done        ...    0.0 sec
Reduced shell lists constructed in    0.0 sec

Total number of grid points                  ...    13099
Total number of batches                      ...      219
Average number of points per batch           ...       59
Average number of grid points per atom       ...      364
Average number of shells per batch           ...   109.65 (48.09%)
Average number of basis functions per batch  ...   223.05 (43.23%)
Average number of large shells per batch     ...    70.25 (64.07%)
Average number of large basis fcns per batch ...   134.15 (60.14%)
Maximum spatial batch extension              ...  13.22, 16.92, 10.96 au
Average spatial batch extension              ...   0.41,  0.45,  0.37 au

Overlap Fitting                  UseSFitting ... on
Constructing numerical overlap ... done (      0.0 sec)
Inverting numerical overlap    ... done (      0.0 sec)
Obtaining analytic overlap     ... done (      0.0 sec)
Final contraction and storage  ... done (      0.0 sec)


General Integration Accuracy     IntAcc      ...  3.670
Radial Grid Type                 RadialGrid  ... Gauss-Chebyshev
Angular Grid (max. acc.)         AngularGrid ... Lebedev-50
Angular grid pruning method      GridPruning ... 3 (G Style)
Weight generation scheme         WeightScheme... Becke
Basis function cutoff            BFCut       ...    1.0000e-11
Integration weight cutoff        WCut        ...    1.0000e-14
Grids for H and He will be reduced by one unit

# of grid points (after initial pruning)     ...  19224 (   0.0 sec)
# of grid points (after weights+screening)   ...  17171 (   0.0 sec)
nearest neighbour list constructed           ...    0.0 sec
Grid point re-assignment to atoms done       ...    0.0 sec
Grid point division into batches done        ...    0.0 sec
Reduced shell lists constructed in    0.0 sec

Total number of grid points                  ...    17171
Total number of batches                      ...      286
Average number of points per batch           ...       60
Average number of grid points per atom       ...      477
Average number of shells per batch           ...   108.64 (47.65%)
Average number of basis functions per batch  ...   218.96 (42.43%)
Average number of large shells per batch     ...    70.52 (64.91%)
Average number of large basis fcns per batch ...   135.40 (61.84%)
Maximum spatial batch extension              ...  13.54, 15.93, 11.77 au
Average spatial batch extension              ...   0.39,  0.38,  0.32 au

Overlap Fitting                  UseSFitting ... on
Constructing numerical overlap ... done (      0.0 sec)
Inverting numerical overlap    ... done (      0.0 sec)
Obtaining analytic overlap     ... done (      0.0 sec)
Final contraction and storage  ... done (      0.0 sec)


General Integration Accuracy     IntAcc      ...  4.010
Radial Grid Type                 RadialGrid  ... Gauss-Chebyshev
Angular Grid (max. acc.)         AngularGrid ... Lebedev-110
Angular grid pruning method      GridPruning ... 3 (G Style)
Weight generation scheme         WeightScheme... Becke
Basis function cutoff            BFCut       ...    1.0000e-11
Integration weight cutoff        WCut        ...    1.0000e-14
Grids for H and He will be reduced by one unit

# of grid points (after initial pruning)     ...  33096 (   0.0 sec)
# of grid points (after weights+screening)   ...  29766 (   0.0 sec)
nearest neighbour list constructed           ...    0.0 sec
Grid point re-assignment to atoms done       ...    0.0 sec
Grid point division into batches done        ...    0.0 sec
Reduced shell lists constructed in    0.1 sec

Total number of grid points                  ...    29766
Total number of batches                      ...      483
Average number of points per batch           ...       61
Average number of grid points per atom       ...      827
Average number of shells per batch           ...   105.76 (46.39%)
Average number of basis functions per batch  ...   212.00 (41.09%)
Average number of large shells per batch     ...    68.81 (65.06%)
Average number of large basis fcns per batch ...   132.48 (62.49%)
Maximum spatial batch extension              ...  15.14, 17.24, 13.19 au
Average spatial batch extension              ...   0.32,  0.29,  0.29 au

Overlap Fitting                  UseSFitting ... on
Constructing numerical overlap ... done (      0.0 sec)
Inverting numerical overlap    ... done (      0.0 sec)
Obtaining analytic overlap     ... done (      0.0 sec)
Final contraction and storage  ... done (      0.0 sec)

Time for X-Grid setup             =    0.387 sec

--------------------
COSMO INITIALIZATION
--------------------

Epsilon                                      ...   78.3550
Refractive Index                             ...    1.3300
Potential Evaluation                         ...  ANALYTIC
Technical COSMO parameters:
  rsolv                                      ...    1.3000
  routf                                      ...    0.8500
  disex                                      ...   10.0000
  nppa                                       ... 1082   
  nspa                                       ...   92   
Solvent:                                     ... WATER
Solvent:                                     ... WATER
SMD-CDS solvent descriptors:
  Soln                                       ...    1.3328
  Soln25                                     ...    1.3323
  Sola                                       ...    0.0000
  Solb                                       ...    0.0000
  Solg                                       ...    0.0000
  Solc                                       ...    0.0000
  Solh                                       ...    0.0000
Radii:
 Radius for O  used is    2.8724 Bohr (=   1.5200 Ang.)
 Radius for H  used is    2.2677 Bohr (=   1.2000 Ang.)
Initializing COSMO package            ... done
Setting COSMO radii                   ... done
Setting atoms and making cavity       ...  USING 1082 GRID
done
Cholesky decomposition of A           ... done
--------------
SCF ITERATIONS
--------------
ITER       Energy         Delta-E        Max-DP      RMS-DP      [F,P]     Damp
               ***  Starting incremental Fock matrix formation  ***
  0   -916.4607055476   0.000000000000 0.05582636  0.00100514  0.3087408 0.7000
  1   -916.8916190630  -0.430913515438 0.03471776  0.00061867  0.1310424 0.7000
                               ***Turning on DIIS***
  2   -917.0360026782  -0.144383615221 0.03864441  0.00075810  0.0333219 0.0000
  3   -917.2827463850  -0.246743706764 0.02146720  0.00038871  0.0742144 0.0000
  4   -917.3319893169  -0.049242931884 0.00486145  0.00011816  0.0152990 0.0000
  5   -917.3340683082  -0.002078991319 0.00182220  0.00004063  0.0033795 0.0000
                      *** Initiating the SOSCF procedure ***
                           *** Shutting down DIIS ***
                      *** Re-Reading the Fockian *** 
                      *** Removing any level shift *** 
ITER      Energy       Delta-E        Grad      Rot      Max-DP    RMS-DP
  6   -917.33415971  -0.0000913972  0.000276  0.000276  0.000601  0.000015
               *** Restarting incremental Fock matrix formation ***
  7   -917.33418689  -0.0000271893  0.000109  0.000249  0.000383  0.000008
  8   -917.33418754  -0.0000006490  0.000066  0.000091  0.000134  0.000003
  9   -917.33418795  -0.0000004029  0.000028  0.000070  0.000085  0.000002
 10   -917.33418808  -0.0000001305  0.000009  0.000009  0.000024  0.000000
 11   -917.33418814  -0.0000000643  0.000011  0.000007  0.000016  0.000000
                  ***Gradient check signals convergence***
              ***Rediagonalizing the Fockian in SOSCF/NRSCF***

               *****************************************************
               *                     SUCCESS                       *
               *           SCF CONVERGED AFTER  12 CYCLES          *
               *****************************************************

Setting up the final grid:

General Integration Accuracy     IntAcc      ...  5.010
Radial Grid Type                 RadialGrid  ... Gauss-Chebyshev
Angular Grid (max. acc.)         AngularGrid ... Lebedev-434
Angular grid pruning method      GridPruning ... 3 (G Style)
Weight generation scheme         WeightScheme... Becke
Basis function cutoff            BFCut       ...    1.0000e-11
Integration weight cutoff        WCut        ...    1.0000e-14
Grids for H and He will be reduced by one unit

# of grid points (after initial pruning)     ... 290712 (   0.0 sec)
# of grid points (after weights+screening)   ... 255186 (   0.2 sec)
nearest neighbour list constructed           ...    0.0 sec
Grid point re-assignment to atoms done       ...    0.0 sec
Grid point division into batches done        ...    1.2 sec
Reduced shell lists constructed in    1.5 sec

Total number of grid points                  ...   255186
Total number of batches                      ...     4008
Average number of points per batch           ...       63
Average number of grid points per atom       ...     7088
Average number of shells per batch           ...    93.01 (40.80%)
Average number of basis functions per batch  ...   181.32 (35.14%)
Average number of large shells per batch     ...    59.76 (64.25%)
Average number of large basis fcns per batch ...   113.01 (62.32%)
Maximum spatial batch extension              ...  14.21, 10.58, 13.29 au
Average spatial batch extension              ...   0.14,  0.14,  0.14 au

Final grid set up in    1.8 sec
Final integration                            ... done (   0.6 sec)
Change in XC energy                          ...    -0.000090112
Integrated number of electrons               ...   120.000278238
Previous integrated no of electrons          ...   120.000269762
Old exchange energy                            =    -21.414404409 Eh
New exchange energy                            =    -21.413424040 Eh
Exchange energy change after final integration =      0.000980369 Eh
Total energy after final integration           =   -917.333297860 Eh
Final COS-X integration done in                =     3.805 sec
  -2.70849635838141        1.54340060928545       -3.29001141495264     
  2.977508332396996E-003  0.214664271108431       1.387053521772607E-002
Total Energy after outlying charge correction =   -917.337767573 Eh

SMD CDS free energy correction energy :                 6.68600     Kcal/mol
Total Energy after SMD CDS correction =              -917.322643042 Eh

----------------
TOTAL SCF ENERGY
----------------

Total Energy       :         -917.32264304 Eh          -24961.61814 eV
Total Energy       :         -917.32264304 Eh          -24961.61814 eV
COSMO(ediel)       :           -0.05456649 Eh              -1.48483 eV
SMD CDS (Gcds)     :            0.01065482 Eh               0.28993 eV

Components:
Nuclear Repulsion  :         1055.40876163 Eh           28719.13246 eV
Electronic Energy  :        -1972.73140467 Eh          -53680.75060 eV

One Electron Energy:        -3366.78182345 Eh          -91614.79102 eV
Two Electron Energy:         1394.05041877 Eh           37934.04042 eV

Virial components:
Potential Energy   :        -1830.74013779 Eh          -49816.97180 eV
Kinetic Energy     :          913.41749475 Eh           24855.35365 eV
Virial Ratio       :            2.00427532


DFT components:
N(Alpha)           :       60.000139119022 electrons
N(Beta)            :       60.000139119022 electrons
N(Total)           :      120.000278238043 electrons
E(X)               :      -85.368699227030 Eh       
E(C)               :       -4.927006211479 Eh       
E(XC)              :      -90.295705438510 Eh       

---------------
SCF CONVERGENCE
---------------

  Last Energy change         ...    2.4895e-08  Tolerance :   1.0000e-08
  Last MAX-Density change    ...    3.3060e-14  Tolerance :   1.0000e-07
  Last RMS-Density change    ...    2.3379e-16  Tolerance :   5.0000e-09
  Last Orbital Gradient      ...    8.4634e-07  Tolerance :   1.0000e-05
  Last Orbital Rotation      ...    1.7701e-06  Tolerance :   1.0000e-05

             **** THE GBW FILE WAS UPDATED (1_B3LYP_SMD_onBP86_SMD_12_waters.gbw) ****
             **** DENSITY FILE WAS UPDATED (1_B3LYP_SMD_onBP86_SMD_12_waters.scfp.tmp) ****
             **** ENERGY FILE WAS UPDATED (1_B3LYP_SMD_onBP86_SMD_12_waters.en.tmp) ****
----------------
ORBITAL ENERGIES
----------------

  NO   OCC          E(Eh)            E(eV) 
   0   2.0000     -19.132776      -520.6293 
   1   2.0000     -19.132523      -520.6224 
   2   2.0000     -19.132442      -520.6202 
   3   2.0000     -19.132094      -520.6107 
   4   2.0000     -19.123253      -520.3702 
   5   2.0000     -19.123233      -520.3696 
   6   2.0000     -19.122902      -520.3606 
   7   2.0000     -19.122791      -520.3576 
   8   2.0000     -19.122395      -520.3468 
   9   2.0000     -19.121967      -520.3352 
  10   2.0000     -19.121701      -520.3279 
  11   2.0000     -19.121407      -520.3199 
  12   2.0000      -1.033888       -28.1335 
  13   2.0000      -1.023701       -27.8563 
  14   2.0000      -1.015910       -27.6443 
  15   2.0000      -1.013003       -27.5652 
  16   2.0000      -1.010173       -27.4882 
  17   2.0000      -1.006010       -27.3749 
  18   2.0000      -1.000866       -27.2349 
  19   2.0000      -0.993127       -27.0244 
  20   2.0000      -0.991455       -26.9789 
  21   2.0000      -0.988582       -26.9007 
  22   2.0000      -0.985610       -26.8198 
  23   2.0000      -0.970252       -26.4019 
  24   2.0000      -0.540874       -14.7179 
  25   2.0000      -0.538672       -14.6580 
  26   2.0000      -0.537320       -14.6212 
  27   2.0000      -0.534316       -14.5395 
  28   2.0000      -0.533117       -14.5068 
  29   2.0000      -0.526888       -14.3373 
  30   2.0000      -0.524915       -14.2837 
  31   2.0000      -0.522577       -14.2200 
  32   2.0000      -0.516142       -14.0449 
  33   2.0000      -0.510397       -13.8886 
  34   2.0000      -0.509557       -13.8657 
  35   2.0000      -0.507823       -13.8186 
  36   2.0000      -0.471985       -12.8434 
  37   2.0000      -0.443867       -12.0782 
  38   2.0000      -0.436883       -11.8882 
  39   2.0000      -0.430982       -11.7276 
  40   2.0000      -0.413852       -11.2615 
  41   2.0000      -0.413147       -11.2423 
  42   2.0000      -0.403872       -10.9899 
  43   2.0000      -0.403389       -10.9768 
  44   2.0000      -0.383480       -10.4350 
  45   2.0000      -0.379165       -10.3176 
  46   2.0000      -0.378305       -10.2942 
  47   2.0000      -0.353355        -9.6153 
  48   2.0000      -0.328380        -8.9357 
  49   2.0000      -0.327661        -8.9161 
  50   2.0000      -0.324845        -8.8395 
  51   2.0000      -0.323180        -8.7942 
  52   2.0000      -0.322669        -8.7803 
  53   2.0000      -0.320826        -8.7301 
  54   2.0000      -0.320175        -8.7124 
  55   2.0000      -0.318400        -8.6641 
  56   2.0000      -0.317180        -8.6309 
  57   2.0000      -0.315788        -8.5930 
  58   2.0000      -0.314406        -8.5554 
  59   2.0000      -0.312457        -8.5024 
  60   0.0000       0.015598         0.4244 
  61   0.0000       0.041131         1.1192 
  62   0.0000       0.058620         1.5951 
  63   0.0000       0.059081         1.6077 
  64   0.0000       0.094737         2.5779 
  65   0.0000       0.098991         2.6937 
  66   0.0000       0.101047         2.7496 
  67   0.0000       0.117144         3.1876 
  68   0.0000       0.146813         3.9950 
  69   0.0000       0.153175         4.1681 
  70   0.0000       0.160010         4.3541 
  71   0.0000       0.167620         4.5612 
  72   0.0000       0.192478         5.2376 
  73   0.0000       0.203367         5.5339 
  74   0.0000       0.204961         5.5773 
  75   0.0000       0.206687         5.6242 
  76   0.0000       0.212256         5.7758 
  77   0.0000       0.215586         5.8664 
  78   0.0000       0.222906         6.0656 
  79   0.0000       0.227908         6.2017 
  80   0.0000       0.233350         6.3498 
  81   0.0000       0.235913         6.4195 
  82   0.0000       0.243287         6.6202 
  83   0.0000       0.244526         6.6539 
  84   0.0000       0.251299         6.8382 
  85   0.0000       0.278418         7.5761 
  86   0.0000       0.292325         7.9546 
  87   0.0000       0.294088         8.0025 
  88   0.0000       0.299874         8.1600 
  89   0.0000       0.314885         8.5685 
  90   0.0000       0.322620         8.7789 
  91   0.0000       0.331113         9.0101 
  92   0.0000       0.333315         9.0700 
  93   0.0000       0.340797         9.2736 
  94   0.0000       0.340823         9.2743 
  95   0.0000       0.342037         9.3073 
  96   0.0000       0.354759         9.6535 
  97   0.0000       0.362830         9.8731 
  98   0.0000       0.366976         9.9859 
  99   0.0000       0.378513        10.2999 
 100   0.0000       0.385485        10.4896 
 101   0.0000       0.387860        10.5542 
 102   0.0000       0.391736        10.6597 
 103   0.0000       0.399473        10.8702 
 104   0.0000       0.419830        11.4242 
 105   0.0000       0.427605        11.6357 
 106   0.0000       0.430351        11.7104 
 107   0.0000       0.472457        12.8562 
 108   0.0000       0.479111        13.0373 
 109   0.0000       0.479481        13.0473 
 110   0.0000       0.490665        13.3517 
 111   0.0000       0.507156        13.8004 
 112   0.0000       0.511224        13.9111 
 113   0.0000       0.513492        13.9728 
 114   0.0000       0.516066        14.0429 
 115   0.0000       0.537472        14.6253 
 116   0.0000       0.552734        15.0407 
 117   0.0000       0.557539        15.1714 
 118   0.0000       0.563557        15.3352 
 119   0.0000       0.571504        15.5514 
 120   0.0000       0.593052        16.1378 
 121   0.0000       0.606453        16.5024 
 122   0.0000       0.617210        16.7951 
 123   0.0000       0.618476        16.8296 
 124   0.0000       0.627494        17.0750 
 125   0.0000       0.633588        17.2408 
 126   0.0000       0.644188        17.5292 
 127   0.0000       0.649008        17.6604 
 128   0.0000       0.657295        17.8859 
 129   0.0000       0.660656        17.9774 
 130   0.0000       0.662376        18.0242 
 131   0.0000       0.681039        18.5320 
 132   0.0000       0.681990        18.5579 
 133   0.0000       0.685576        18.6555 
 134   0.0000       0.688278        18.7290 
 135   0.0000       0.699988        19.0477 
 136   0.0000       0.708037        19.2667 
 137   0.0000       0.749591        20.3974 
 138   0.0000       0.754083        20.5196 
 139   0.0000       0.762591        20.7512 
 140   0.0000       0.791700        21.5433 
 141   0.0000       0.832844        22.6628 
 142   0.0000       0.835461        22.7341 
 143   0.0000       0.858732        23.3673 
 144   0.0000       0.876090        23.8396 
 145   0.0000       0.882820        24.0228 
 146   0.0000       0.883425        24.0392 
 147   0.0000       0.903101        24.5746 
 148   0.0000       0.909580        24.7509 
 149   0.0000       0.914212        24.8770 
 150   0.0000       0.914973        24.8977 
 151   0.0000       0.984882        26.8000 
 152   0.0000       0.991413        26.9777 
 153   0.0000       0.995873        27.0991 
 154   0.0000       1.010564        27.4988 
 155   0.0000       1.083198        29.4753 
 156   0.0000       1.125306        30.6211 
 157   0.0000       1.130319        30.7575 
 158   0.0000       1.138226        30.9727 
 159   0.0000       1.144684        31.1484 
 160   0.0000       1.145946        31.1828 
 161   0.0000       1.161497        31.6059 
 162   0.0000       1.168202        31.7884 
 163   0.0000       1.173619        31.9358 
 164   0.0000       1.176365        32.0105 
 165   0.0000       1.179693        32.1011 
 166   0.0000       1.191854        32.4320 
 167   0.0000       1.193999        32.4904 
 168   0.0000       1.198326        32.6081 
 169   0.0000       1.206433        32.8287 
 170   0.0000       1.227176        33.3932 
 171   0.0000       1.256021        34.1781 
 172   0.0000       1.281244        34.8644 
 173   0.0000       1.285025        34.9673 
 174   0.0000       1.291778        35.1511 
 175   0.0000       1.321919        35.9712 
 176   0.0000       1.327738        36.1296 
 177   0.0000       1.332481        36.2587 
 178   0.0000       1.337898        36.4060 
 179   0.0000       1.340926        36.4884 
 180   0.0000       1.347665        36.6718 
 181   0.0000       1.361516        37.0487 
 182   0.0000       1.364251        37.1231 
 183   0.0000       1.371343        37.3161 
 184   0.0000       1.375754        37.4362 
 185   0.0000       1.379089        37.5269 
 186   0.0000       1.382600        37.6225 
 187   0.0000       1.393799        37.9272 
 188   0.0000       1.397609        38.0309 
 189   0.0000       1.405928        38.2572 
 190   0.0000       1.406456        38.2716 
 191   0.0000       1.443600        39.2824 
 192   0.0000       1.539802        41.9002 
 193   0.0000       1.552165        42.2366 
 194   0.0000       1.640306        44.6350 
 195   0.0000       1.650025        44.8995 
 196   0.0000       1.657290        45.0971 
 197   0.0000       1.658861        45.1399 
 198   0.0000       1.660873        45.1947 
 199   0.0000       1.669439        45.4278 
 200   0.0000       1.670937        45.4685 
 201   0.0000       1.688726        45.9526 
 202   0.0000       1.694949        46.1219 
 203   0.0000       1.696493        46.1639 
 204   0.0000       1.698351        46.2145 
 205   0.0000       1.709549        46.5192 
 206   0.0000       1.718670        46.7674 
 207   0.0000       1.724014        46.9128 
 208   0.0000       1.733887        47.1815 
 209   0.0000       1.746713        47.5305 
 210   0.0000       1.752533        47.6889 
 211   0.0000       1.765203        48.0336 
 212   0.0000       1.778233        48.3882 
 213   0.0000       1.788428        48.6656 
 214   0.0000       1.789155        48.6854 
 215   0.0000       1.824145        49.6375 
 216   0.0000       1.834363        49.9156 
 217   0.0000       1.866436        50.7883 
 218   0.0000       1.874524        51.0084 
 219   0.0000       1.896119        51.5960 
 220   0.0000       1.914045        52.0838 
 221   0.0000       1.921114        52.2762 
 222   0.0000       1.925882        52.4059 
 223   0.0000       1.939183        52.7678 
 224   0.0000       1.941333        52.8264 
 225   0.0000       1.945015        52.9265 
 226   0.0000       1.965817        53.4926 
 227   0.0000       1.984955        54.0134 
 228   0.0000       1.999743        54.4158 
 229   0.0000       2.003306        54.5127 
 230   0.0000       2.024132        55.0794 
 231   0.0000       2.028190        55.1898 
 232   0.0000       2.032222        55.2996 
 233   0.0000       2.054285        55.8999 
 234   0.0000       2.060921        56.0805 
 235   0.0000       2.065713        56.2109 
 236   0.0000       2.077518        56.5321 
 237   0.0000       2.078912        56.5701 
 238   0.0000       2.098038        57.0905 
 239   0.0000       2.098895        57.1138 
 240   0.0000       2.114336        57.5340 
 241   0.0000       2.123515        57.7838 
 242   0.0000       2.132208        58.0203 
 243   0.0000       2.133485        58.0551 
 244   0.0000       2.168553        59.0093 
 245   0.0000       2.171837        59.0987 
 246   0.0000       2.184802        59.4515 
 247   0.0000       2.189611        59.5823 
 248   0.0000       2.206764        60.0491 
 249   0.0000       2.211620        60.1812 
 250   0.0000       2.233807        60.7850 
 251   0.0000       2.239243        60.9329 
 252   0.0000       2.244644        61.0799 
 253   0.0000       2.245455        61.1019 
 254   0.0000       2.253844        61.3302 
 255   0.0000       2.274805        61.9006 
 256   0.0000       2.290407        62.3251 
 257   0.0000       2.290796        62.3357 
 258   0.0000       2.308123        62.8072 
 259   0.0000       2.316886        63.0457 
 260   0.0000       2.320914        63.1553 
 261   0.0000       2.325874        63.2903 
 262   0.0000       2.332766        63.4778 
 263   0.0000       2.344776        63.8046 
 264   0.0000       2.346507        63.8517 
 265   0.0000       2.355401        64.0937 
 266   0.0000       2.366690        64.4009 
 267   0.0000       2.374717        64.6193 
 268   0.0000       2.383077        64.8468 
 269   0.0000       2.383446        64.8569 
 270   0.0000       2.389426        65.0196 
 271   0.0000       2.390614        65.0519 
 272   0.0000       2.399072        65.2821 
 273   0.0000       2.406412        65.4818 
 274   0.0000       2.409400        65.5631 
 275   0.0000       2.419133        65.8280 
 276   0.0000       2.420750        65.8720 
 277   0.0000       2.426485        66.0280 
 278   0.0000       2.434547        66.2474 
 279   0.0000       2.436819        66.3092 
 280   0.0000       2.464578        67.0646 
 281   0.0000       2.489483        67.7423 
 282   0.0000       2.492096        67.8134 
 283   0.0000       2.497137        67.9506 
 284   0.0000       2.504222        68.1433 
 285   0.0000       2.514491        68.4228 
 286   0.0000       2.533061        68.9281 
 287   0.0000       2.535627        68.9979 
 288   0.0000       2.553317        69.4793 
 289   0.0000       2.579559        70.1934 
 290   0.0000       2.592201        70.5374 
 291   0.0000       2.604505        70.8722 
 292   0.0000       2.621649        71.3387 
 293   0.0000       2.624957        71.4287 
 294   0.0000       2.634185        71.6798 
 295   0.0000       2.644242        71.9535 
 296   0.0000       2.660683        72.4009 
 297   0.0000       2.670088        72.6568 
 298   0.0000       2.683326        73.0170 
 299   0.0000       2.692318        73.2617 
 300   0.0000       2.698276        73.4238 
 301   0.0000       2.701724        73.5176 
 302   0.0000       2.705135        73.6105 
 303   0.0000       2.737348        74.4870 
 304   0.0000       2.743846        74.6638 
 305   0.0000       2.781032        75.6757 
 306   0.0000       2.784776        75.7776 
 307   0.0000       2.786439        75.8229 
 308   0.0000       2.796539        76.0977 
 309   0.0000       2.871532        78.1384 
 310   0.0000       2.896585        78.8201 
 311   0.0000       2.905320        79.0578 
 312   0.0000       2.942038        80.0569 
 313   0.0000       2.949227        80.2525 
 314   0.0000       2.969280        80.7982 
 315   0.0000       2.991112        81.3923 
 316   0.0000       2.992799        81.4382 
 317   0.0000       3.001545        81.6762 
 318   0.0000       3.018073        82.1259 
 319   0.0000       3.025894        82.3388 
 320   0.0000       3.029107        82.4262 
 321   0.0000       3.038959        82.6943 
 322   0.0000       3.060009        83.2671 
 323   0.0000       3.062828        83.3438 
 324   0.0000       3.069159        83.5161 
 325   0.0000       3.092820        84.1599 
 326   0.0000       3.100785        84.3766 
 327   0.0000       3.129096        85.1470 
 328   0.0000       3.147822        85.6566 
 329   0.0000       3.148960        85.6876 
 330   0.0000       3.169259        86.2399 
 331   0.0000       3.177372        86.4607 
 332   0.0000       3.193651        86.9037 
 333   0.0000       3.226672        87.8022 
 334   0.0000       3.245997        88.3281 
 335   0.0000       3.249490        88.4231 
 336   0.0000       3.744575       101.8951 
 337   0.0000       3.759093       102.2901 
 338   0.0000       3.767487       102.5185 
 339   0.0000       3.768155       102.5367 
 340   0.0000       3.775900       102.7475 
 341   0.0000       3.780899       102.8835 
 342   0.0000       3.782633       102.9307 
 343   0.0000       3.802499       103.4713 
 344   0.0000       3.851023       104.7917 
 345   0.0000       3.863194       105.1229 
 346   0.0000       3.888789       105.8193 
 347   0.0000       3.898543       106.0848 
 348   0.0000       3.899524       106.1115 
 349   0.0000       3.915306       106.5409 
 350   0.0000       3.940125       107.2163 
 351   0.0000       3.940915       107.2377 
 352   0.0000       3.952246       107.5461 
 353   0.0000       3.973350       108.1203 
 354   0.0000       3.985716       108.4568 
 355   0.0000       3.989568       108.5617 
 356   0.0000       4.019519       109.3767 
 357   0.0000       4.042169       109.9930 
 358   0.0000       4.051377       110.2436 
 359   0.0000       4.070414       110.7616 
 360   0.0000       5.089404       138.4897 
 361   0.0000       5.089758       138.4993 
 362   0.0000       5.090018       138.5064 
 363   0.0000       5.090287       138.5137 
 364   0.0000       5.093183       138.5926 
 365   0.0000       5.093486       138.6008 
 366   0.0000       5.093768       138.6085 
 367   0.0000       5.097110       138.6994 
 368   0.0000       5.109908       139.0477 
 369   0.0000       5.111295       139.0854 
 370   0.0000       5.113370       139.1419 
 371   0.0000       5.114062       139.1607 
 372   0.0000       5.198057       141.4463 
 373   0.0000       5.205157       141.6395 
 374   0.0000       5.206745       141.6827 
 375   0.0000       5.211259       141.8056 
 376   0.0000       5.216839       141.9574 
 377   0.0000       5.228101       142.2639 
 378   0.0000       5.232371       142.3800 
 379   0.0000       5.232910       142.3947 
 380   0.0000       5.235487       142.4648 
 381   0.0000       5.252721       142.9338 
 382   0.0000       5.257143       143.0541 
 383   0.0000       5.257408       143.0614 
 384   0.0000       5.309368       144.4752 
 385   0.0000       5.314973       144.6278 
 386   0.0000       5.320738       144.7846 
 387   0.0000       5.327305       144.9633 
 388   0.0000       5.333926       145.1435 
 389   0.0000       5.338768       145.2753 
 390   0.0000       5.341328       145.3449 
 391   0.0000       5.344633       145.4349 
 392   0.0000       5.351531       145.6226 
 393   0.0000       5.352389       145.6459 
 394   0.0000       5.357634       145.7886 
 395   0.0000       5.366877       146.0401 
 396   0.0000       5.369185       146.1030 
 397   0.0000       5.385179       146.5382 
 398   0.0000       5.386934       146.5859 
 399   0.0000       5.391268       146.7039 
 400   0.0000       5.394461       146.7907 
 401   0.0000       5.395564       146.8208 
 402   0.0000       5.400900       146.9660 
 403   0.0000       5.406628       147.1218 
 404   0.0000       5.409330       147.1954 
 405   0.0000       5.420139       147.4895 
 406   0.0000       5.420440       147.4977 
 407   0.0000       5.422582       147.5559 
 408   0.0000       5.428004       147.7035 
 409   0.0000       5.430452       147.7701 
 410   0.0000       5.431229       147.7913 
 411   0.0000       5.437695       147.9672 
 412   0.0000       5.439047       148.0040 
 413   0.0000       5.442192       148.0896 
 414   0.0000       5.444873       148.1625 
 415   0.0000       5.447147       148.2244 
 416   0.0000       5.466409       148.7486 
 417   0.0000       5.469050       148.8204 
 418   0.0000       5.476784       149.0309 
 419   0.0000       5.486393       149.2923 
 420   0.0000       5.891092       160.3048 
 421   0.0000       5.895434       160.4229 
 422   0.0000       5.907573       160.7532 
 423   0.0000       5.925440       161.2394 
 424   0.0000       5.933749       161.4655 
 425   0.0000       5.935930       161.5249 
 426   0.0000       5.938546       161.5960 
 427   0.0000       5.939422       161.6199 
 428   0.0000       5.967816       162.3925 
 429   0.0000       5.974875       162.5846 
 430   0.0000       5.982066       162.7803 
 431   0.0000       5.997386       163.1972 
 432   0.0000       6.068139       165.1225 
 433   0.0000       6.133650       166.9051 
 434   0.0000       6.156686       167.5320 
 435   0.0000       6.165533       167.7727 
 436   0.0000       6.171003       167.9215 
 437   0.0000       6.212462       169.0497 
 438   0.0000       6.212843       169.0600 
 439   0.0000       6.214154       169.0957 
 440   0.0000       6.280208       170.8931 
 441   0.0000       6.283139       170.9729 
 442   0.0000       6.292985       171.2408 
 443   0.0000       6.296798       171.3446 
 444   0.0000       6.301284       171.4667 
 445   0.0000       6.316349       171.8766 
 446   0.0000       6.337040       172.4396 
 447   0.0000       6.349194       172.7704 
 448   0.0000       6.353354       172.8836 
 449   0.0000       6.358893       173.0343 
 450   0.0000       6.376505       173.5135 
 451   0.0000       6.377432       173.5387 
 452   0.0000       6.385403       173.7556 
 453   0.0000       6.386450       173.7841 
 454   0.0000       6.398001       174.0985 
 455   0.0000       6.399123       174.1290 
 456   0.0000       6.404540       174.2764 
 457   0.0000       6.405798       174.3106 
 458   0.0000       6.409412       174.4090 
 459   0.0000       6.422388       174.7621 
 460   0.0000       6.427934       174.9130 
 461   0.0000       6.441758       175.2891 
 462   0.0000       6.448592       175.4751 
 463   0.0000       6.463139       175.8709 
 464   0.0000       6.475697       176.2127 
 465   0.0000       6.486481       176.5061 
 466   0.0000       6.499535       176.8613 
 467   0.0000       6.501947       176.9270 
 468   0.0000       6.517567       177.3520 
 469   0.0000       6.532906       177.7694 
 470   0.0000       6.540095       177.9650 
 471   0.0000       6.554732       178.3633 
 472   0.0000       6.588000       179.2686 
 473   0.0000       6.612007       179.9219 
 474   0.0000       6.631286       180.4465 
 475   0.0000       6.664466       181.3493 
 476   0.0000       6.738290       183.3582 
 477   0.0000       6.754741       183.8059 
 478   0.0000       6.780572       184.5087 
 479   0.0000       6.786390       184.6671 
 480   0.0000       6.874409       187.0622 
 481   0.0000       6.885529       187.3648 
 482   0.0000       6.929995       188.5747 
 483   0.0000       6.931996       188.6292 
 484   0.0000       6.944817       188.9781 
 485   0.0000       6.977403       189.8648 
 486   0.0000       6.981484       189.9758 
 487   0.0000       6.989820       190.2027 
 488   0.0000       7.016238       190.9215 
 489   0.0000       7.031896       191.3476 
 490   0.0000       7.058303       192.0662 
 491   0.0000       7.080024       192.6572 
 492   0.0000       7.081254       192.6907 
 493   0.0000       7.086843       192.8428 
 494   0.0000       7.101239       193.2345 
 495   0.0000       7.113370       193.5646 
 496   0.0000       7.115739       193.6291 
 497   0.0000       7.119217       193.7237 
 498   0.0000       7.131207       194.0500 
 499   0.0000       7.154272       194.6776 
 500   0.0000       7.194785       195.7800 
 501   0.0000       7.227143       196.6605 
 502   0.0000       7.236555       196.9167 
 503   0.0000       7.245864       197.1700 
 504   0.0000      43.418341      1181.4731 
 505   0.0000      43.419917      1181.5160 
 506   0.0000      43.463509      1182.7022 
 507   0.0000      43.474114      1182.9908 
 508   0.0000      43.508166      1183.9174 
 509   0.0000      43.512862      1184.0452 
 510   0.0000      43.571498      1185.6407 
 511   0.0000      43.584369      1185.9910 
 512   0.0000      43.669780      1188.3151 
 513   0.0000      43.689583      1188.8540 
 514   0.0000      43.695885      1189.0255 
 515   0.0000      43.940290      1195.6761 

                    ********************************
                    * MULLIKEN POPULATION ANALYSIS *
                    ********************************

-----------------------
MULLIKEN ATOMIC CHARGES
-----------------------
   0 O :   -0.745172
   1 H :    0.375000
   2 H :    0.389034
   3 O :   -0.747429
   4 H :    0.388951
   5 H :    0.374327
   6 O :   -0.782182
   7 H :    0.386147
   8 H :    0.364430
   9 O :   -0.745896
  10 H :    0.374458
  11 H :    0.389191
  12 O :   -0.753254
  13 H :    0.377054
  14 H :    0.387074
  15 O :   -0.752348
  16 H :    0.386608
  17 H :    0.376212
  18 O :   -0.781403
  19 H :    0.364478
  20 H :    0.385794
  21 O :   -0.753163
  22 H :    0.377148
  23 H :    0.387570
  24 O :   -0.746696
  25 H :    0.388631
  26 H :    0.374919
  27 O :   -0.752504
  28 H :    0.376840
  29 H :    0.387548
  30 O :   -0.779444
  31 H :    0.385444
  32 H :    0.367937
  33 O :   -0.779114
  34 H :    0.367708
  35 H :    0.386100
Sum of atomic charges:   -0.0000000

--------------------------------
MULLIKEN REDUCED ORBITAL CHARGES
--------------------------------
  0 O s       :     3.795201  s :     3.795201
      pz      :     1.655317  p :     4.929481
      px      :     1.759854
      py      :     1.514311
      dz2     :     0.004118  d :     0.019541
      dxz     :     0.004091
      dyz     :     0.007318
      dx2y2   :     0.001135
      dxy     :     0.002879
      f0      :     0.000038  f :     0.000948
      f+1     :     0.000117
      f-1     :     0.000071
      f+2     :     0.000094
      f-2     :     0.000291
      f+3     :     0.000267
      f-3     :     0.000071
  1 H s       :     0.571432  s :     0.571432
      pz      :     0.024396  p :     0.053568
      px      :     0.013959
      py      :     0.015213
  2 H s       :     0.560366  s :     0.560366
      pz      :     0.014289  p :     0.050601
      px      :     0.015135
      py      :     0.021177
  3 O s       :     3.796390  s :     3.796390
      pz      :     1.679991  p :     4.930513
      px      :     1.663427
      py      :     1.587096
      dz2     :     0.004053  d :     0.019571
      dxz     :     0.003976
      dyz     :     0.007278
      dx2y2   :     0.000453
      dxy     :     0.003811
      f0      :     0.000042  f :     0.000955
      f+1     :     0.000008
      f-1     :     0.000207
      f+2     :     0.000100
      f-2     :     0.000258
      f+3     :     0.000164
      f-3     :     0.000176
  4 H s       :     0.560453  s :     0.560453
      pz      :     0.013697  p :     0.050596
      px      :     0.018233
      py      :     0.018667
  5 H s       :     0.572131  s :     0.572131
      pz      :     0.024430  p :     0.053541
      px      :     0.012093
      py      :     0.017018
  6 O s       :     3.807838  s :     3.807838
      pz      :     1.719563  p :     4.955338
      px      :     1.659106
      py      :     1.576669
      dz2     :     0.002551  d :     0.018083
      dxz     :     0.002608
      dyz     :     0.003989
      dx2y2   :     0.002376
      dxy     :     0.006558
      f0      :     0.000091  f :     0.000924
      f+1     :     0.000114
      f-1     :     0.000210
      f+2     :     0.000136
      f-2     :     0.000141
      f+3     :     0.000039
      f-3     :     0.000194
  7 H s       :     0.559487  s :     0.559487
      pz      :     0.019192  p :     0.054365
      px      :     0.013570
      py      :     0.021604
  8 H s       :     0.578513  s :     0.578513
      pz      :     0.010797  p :     0.057058
      px      :     0.027704
      py      :     0.018557
  9 O s       :     3.795570  s :     3.795570
      pz      :     1.401639  p :     4.929837
      px      :     1.688876
      py      :     1.839321
      dz2     :     0.001919  d :     0.019541
      dxz     :     0.005015
      dyz     :     0.005757
      dx2y2   :     0.001451
      dxy     :     0.005398
      f0      :     0.000126  f :     0.000948
      f+1     :     0.000182
      f-1     :     0.000196
      f+2     :     0.000019
      f-2     :     0.000276
      f+3     :     0.000042
      f-3     :     0.000108
 10 H s       :     0.571797  s :     0.571797
      pz      :     0.026565  p :     0.053745
      px      :     0.012424
      py      :     0.014756
 11 H s       :     0.560358  s :     0.560358
      pz      :     0.016175  p :     0.050451
      px      :     0.017456
      py      :     0.016821
 12 O s       :     3.805087  s :     3.805087
      pz      :     1.890975  p :     4.930135
      px      :     1.410572
      py      :     1.628588
      dz2     :     0.003555  d :     0.017007
      dxz     :     0.000805
      dyz     :     0.001674
      dx2y2   :     0.000593
      dxy     :     0.010380
      f0      :     0.000116  f :     0.001025
      f+1     :     0.000287
      f-1     :     0.000172
      f+2     :     0.000028
      f-2     :     0.000064
      f+3     :     0.000023
      f-3     :     0.000335
 13 H s       :     0.565235  s :     0.565235
      pz      :     0.010930  p :     0.057711
      px      :     0.026417
      py      :     0.020363
 14 H s       :     0.569436  s :     0.569436
      pz      :     0.013545  p :     0.043490
      px      :     0.016972
      py      :     0.012973
 15 O s       :     3.804765  s :     3.804765
      pz      :     1.558074  p :     4.929561
      px      :     1.644754
      py      :     1.726733
      dz2     :     0.007022  d :     0.016997
      dxz     :     0.001216
      dyz     :     0.003080
      dx2y2   :     0.001235
      dxy     :     0.004445
      f0      :     0.000124  f :     0.001025
      f+1     :     0.000077
      f-1     :     0.000353
      f+2     :     0.000037
      f-2     :     0.000080
      f+3     :     0.000056
      f-3     :     0.000298
 16 H s       :     0.569866  s :     0.569866
      pz      :     0.018500  p :     0.043526
      px      :     0.011412
      py      :     0.013614
 17 H s       :     0.565888  s :     0.565888
      pz      :     0.008313  p :     0.057900
      px      :     0.029676
      py      :     0.019911
 18 O s       :     3.807411  s :     3.807411
      pz      :     1.856686  p :     4.954952
      px      :     1.451985
      py      :     1.646281
      dz2     :     0.002913  d :     0.018115
      dxz     :     0.002235
      dyz     :     0.003280
      dx2y2   :     0.000477
      dxy     :     0.009210
      f0      :     0.000167  f :     0.000924
      f+1     :     0.000170
      f-1     :     0.000095
      f+2     :     0.000020
      f-2     :     0.000203
      f+3     :     0.000005
      f-3     :     0.000265
 19 H s       :     0.578628  s :     0.578628
      pz      :     0.011372  p :     0.056894
      px      :     0.028024
      py      :     0.017498
 20 H s       :     0.559632  s :     0.559632
      pz      :     0.017194  p :     0.054574
      px      :     0.018363
      py      :     0.019017
 21 O s       :     3.803035  s :     3.803035
      pz      :     1.897289  p :     4.932290
      px      :     1.605382
      py      :     1.429620
      dz2     :     0.003465  d :     0.016798
      dxz     :     0.001254
      dyz     :     0.001143
      dx2y2   :     0.006607
      dxy     :     0.004330
      f0      :     0.000106  f :     0.001039
      f+1     :     0.000183
      f-1     :     0.000313
      f+2     :     0.000038
      f-2     :     0.000022
      f+3     :     0.000021
      f-3     :     0.000356
 22 H s       :     0.565032  s :     0.565032
      pz      :     0.011243  p :     0.057820
      px      :     0.030588
      py      :     0.015990
 23 H s       :     0.568900  s :     0.568900
      pz      :     0.013397  p :     0.043530
      px      :     0.010702
      py      :     0.019431
 24 O s       :     3.796006  s :     3.796006
      pz      :     1.400094  p :     4.930136
      px      :     1.892691
      py      :     1.637351
      dz2     :     0.001505  d :     0.019600
      dxz     :     0.002081
      dyz     :     0.009282
      dx2y2   :     0.002839
      dxy     :     0.003893
      f0      :     0.000089  f :     0.000954
      f+1     :     0.000081
      f-1     :     0.000349
      f+2     :     0.000154
      f-2     :     0.000147
      f+3     :     0.000091
      f-3     :     0.000044
 25 H s       :     0.560711  s :     0.560711
      pz      :     0.017256  p :     0.050658
      px      :     0.014913
      py      :     0.018489
 26 H s       :     0.571589  s :     0.571589
      pz      :     0.025852  p :     0.053492
      px      :     0.012441
      py      :     0.015199
 27 O s       :     3.803081  s :     3.803081
      pz      :     1.589546  p :     4.931554
      px      :     1.559452
      py      :     1.782556
      dz2     :     0.005090  d :     0.016829
      dxz     :     0.004917
      dyz     :     0.001897
      dx2y2   :     0.000642
      dxy     :     0.004283
      f0      :     0.000039  f :     0.001041
      f+1     :     0.000387
      f-1     :     0.000025
      f+2     :     0.000135
      f-2     :     0.000096
      f+3     :     0.000071
      f-3     :     0.000289
 28 H s       :     0.565665  s :     0.565665
      pz      :     0.008954  p :     0.057495
      px      :     0.028520
      py      :     0.020022
 29 H s       :     0.568888  s :     0.568888
      pz      :     0.017516  p :     0.043563
      px      :     0.013712
      py      :     0.012335
 30 O s       :     3.805779  s :     3.805779
      pz      :     1.612792  p :     4.954721
      px      :     1.792186
      py      :     1.549742
      dz2     :     0.004626  d :     0.018017
      dxz     :     0.002736
      dyz     :     0.006531
      dx2y2   :     0.001033
      dxy     :     0.003091
      f0      :     0.000048  f :     0.000926
      f+1     :     0.000074
      f-1     :     0.000127
      f+2     :     0.000082
      f-2     :     0.000228
      f+3     :     0.000304
      f-3     :     0.000064
 31 H s       :     0.559744  s :     0.559744
      pz      :     0.014108  p :     0.054812
      px      :     0.017397
      py      :     0.023306
 32 H s       :     0.575568  s :     0.575568
      pz      :     0.027305  p :     0.056495
      px      :     0.012920
      py      :     0.016269
 33 O s       :     3.806371  s :     3.806371
      pz      :     1.431730  p :     4.953766
      px      :     1.732093
      py      :     1.789944
      dz2     :     0.001228  d :     0.018047
      dxz     :     0.004138
      dyz     :     0.007031
      dx2y2   :     0.001337
      dxy     :     0.004314
      f0      :     0.000060  f :     0.000929
      f+1     :     0.000173
      f-1     :     0.000239
      f+2     :     0.000027
      f-2     :     0.000292
      f+3     :     0.000063
      f-3     :     0.000075
 34 H s       :     0.576101  s :     0.576101
      pz      :     0.027764  p :     0.056191
      px      :     0.012045
      py      :     0.016382
 35 H s       :     0.559196  s :     0.559196
      pz      :     0.019372  p :     0.054704
      px      :     0.017220
      py      :     0.018111


                     *******************************
                     * LOEWDIN POPULATION ANALYSIS *
                     *******************************

----------------------
LOEWDIN ATOMIC CHARGES
----------------------
   0 O :   -0.318770
   1 H :    0.149033
   2 H :    0.154187
   3 O :   -0.319948
   4 H :    0.153634
   5 H :    0.148512
   6 O :   -0.325339
   7 H :    0.149493
   8 H :    0.137877
[...]
      dxy     :     0.007408
      f0      :     0.000184  f :     0.001917
      f+1     :     0.000088
      f-1     :     0.000502
      f+2     :     0.000206
      f-2     :     0.000444
      f+3     :     0.000186
      f-3     :     0.000306
  4 H s       :     0.669186  s :     0.669186
      pz      :     0.047042  p :     0.177180
      px      :     0.067571
      py      :     0.062567
  5 H s       :     0.666152  s :     0.666152
      pz      :     0.089674  p :     0.185336
      px      :     0.036342
      py      :     0.059321
  6 O s       :     3.476425  s :     3.476425
      pz      :     1.663376  p :     4.818331
      px      :     1.628408
      py      :     1.526547
      dz2     :     0.004199  d :     0.028757
      dxz     :     0.002806
      dyz     :     0.008280
      dx2y2   :     0.002886
      dxy     :     0.010586
      f0      :     0.000096  f :     0.001826
      f+1     :     0.000275
      f-1     :     0.000360
      f+2     :     0.000234
      f-2     :     0.000253
      f+3     :     0.000120
      f-3     :     0.000488
  7 H s       :     0.662159  s :     0.662159
      pz      :     0.070439  p :     0.188348
      px      :     0.044064
      py      :     0.073846
  8 H s       :     0.660322  s :     0.660322
      pz      :     0.032870  p :     0.201800
      px      :     0.104931
      py      :     0.063999
  9 O s       :     3.471164  s :     3.471164
      pz      :     1.385153  p :     4.818096
      px      :     1.652950
      py      :     1.779992
      dz2     :     0.004470  d :     0.028040
      dxz     :     0.008269
      dyz     :     0.008049
      dx2y2   :     0.001078
      dxy     :     0.006175
      f0      :     0.000195  f :     0.001923
      f+1     :     0.000407
      f-1     :     0.000385
      f+2     :     0.000032
      f-2     :     0.000683
      f+3     :     0.000021
      f-3     :     0.000201
 10 H s       :     0.665389  s :     0.665389
      pz      :     0.094871  p :     0.185944
      px      :     0.040998
      py      :     0.050075
 11 H s       :     0.669232  s :     0.669232
      pz      :     0.054427  p :     0.176558
      px      :     0.063408
      py      :     0.058723
 12 O s       :     3.466175  s :     3.466175
      pz      :     1.810265  p :     4.792826
      px      :     1.374586
      py      :     1.607975
      dz2     :     0.005234  d :     0.027927
      dxz     :     0.001545
      dyz     :     0.003033
      dx2y2   :     0.001277
      dxy     :     0.016838
      f0      :     0.000110  f :     0.002025
      f+1     :     0.000435
      f-1     :     0.000281
      f+2     :     0.000045
      f-2     :     0.000156
      f+3     :     0.000214
      f-3     :     0.000785
 13 H s       :     0.645101  s :     0.645101
      pz      :     0.033739  p :     0.203631
      px      :     0.093038
      py      :     0.076854
 14 H s       :     0.655032  s :     0.655032
      pz      :     0.043088  p :     0.157223
      px      :     0.065746
      py      :     0.048389
 15 O s       :     3.466015  s :     3.466015
      pz      :     1.529385  p :     4.792625
      px      :     1.600873
      py      :     1.662368
      dz2     :     0.010816  d :     0.027955
      dxz     :     0.001562
      dyz     :     0.006086
      dx2y2   :     0.001645
      dxy     :     0.007847
      f0      :     0.000350  f :     0.002028
      f+1     :     0.000238
      f-1     :     0.000714
      f+2     :     0.000069
      f-2     :     0.000118
      f+3     :     0.000042
      f-3     :     0.000496
 16 H s       :     0.655259  s :     0.655259
      pz      :     0.078798  p :     0.157293
      px      :     0.034232
      py      :     0.044263
 17 H s       :     0.645176  s :     0.645176
      pz      :     0.025327  p :     0.204150
      px      :     0.109757
      py      :     0.069066
 18 O s       :     3.475747  s :     3.475747
      pz      :     1.779279  p :     4.817064
      px      :     1.416652
      py      :     1.621132
      dz2     :     0.003936  d :     0.028856
      dxz     :     0.003625
      dyz     :     0.005343
      dx2y2   :     0.001029
      dxy     :     0.014924
      f0      :     0.000178  f :     0.001831
      f+1     :     0.000231
      f-1     :     0.000183
      f+2     :     0.000033
      f-2     :     0.000426
      f+3     :     0.000142
      f-3     :     0.000637
 19 H s       :     0.660615  s :     0.660615
      pz      :     0.035880  p :     0.201311
      px      :     0.100484
      py      :     0.064947
 20 H s       :     0.662127  s :     0.662127
      pz      :     0.057245  p :     0.189021
      px      :     0.064354
      py      :     0.067422
 21 O s       :     3.464098  s :     3.464098
      pz      :     1.819915  p :     4.793951
      px      :     1.579684
      py      :     1.394351
      dz2     :     0.005296  d :     0.027815
      dxz     :     0.001894
      dyz     :     0.002264
      dx2y2   :     0.010830
      dxy     :     0.007532
      f0      :     0.000081  f :     0.002035
      f+1     :     0.000258
      f-1     :     0.000508
      f+2     :     0.000072
      f-2     :     0.000083
      f+3     :     0.000180
      f-3     :     0.000854
 22 H s       :     0.645340  s :     0.645340
      pz      :     0.035022  p :     0.204078
      px      :     0.116734
      py      :     0.052322
 23 H s       :     0.654876  s :     0.654876
      pz      :     0.041926  p :     0.157164
      px      :     0.033761
      py      :     0.081477
 24 O s       :     3.470904  s :     3.470904
      pz      :     1.382307  p :     4.817483
      px      :     1.814542
      py      :     1.620634
      dz2     :     0.003850  d :     0.028075
      dxz     :     0.002732
      dyz     :     0.014507
      dx2y2   :     0.002003
      dxy     :     0.004983
      f0      :     0.000117  f :     0.001923
      f+1     :     0.000107
      f-1     :     0.000766
      f+2     :     0.000369
      f-2     :     0.000370
      f+3     :     0.000106
      f-3     :     0.000087
 25 H s       :     0.669132  s :     0.669132
      pz      :     0.059167  p :     0.177383
      px      :     0.050066
      py      :     0.068151
 26 H s       :     0.666006  s :     0.666006
      pz      :     0.091583  p :     0.185264
      px      :     0.040579
      py      :     0.053102
 27 O s       :     3.463944  s :     3.463944
      pz      :     1.560158  p :     4.793699
      px      :     1.514912
      py      :     1.718628
      dz2     :     0.007488  d :     0.027820
      dxz     :     0.008749
      dyz     :     0.002990
      dx2y2   :     0.001308
      dxy     :     0.007286
      f0      :     0.000181  f :     0.002036
      f+1     :     0.000835
      f-1     :     0.000085
      f+2     :     0.000247
      f-2     :     0.000190
      f+3     :     0.000076
      f-3     :     0.000422
 28 H s       :     0.645958  s :     0.645958
      pz      :     0.029228  p :     0.203008
      px      :     0.103101
      py      :     0.070679
 29 H s       :     0.654737  s :     0.654737
      pz      :     0.073698  p :     0.157116
      px      :     0.045773
      py      :     0.037645
 30 O s       :     3.474117  s :     3.474117
      pz      :     1.593451  p :     4.814435
      px      :     1.722234
      py      :     1.498750
      dz2     :     0.005874  d :     0.028824
      dxz     :     0.004083
      dyz     :     0.010302
      dx2y2   :     0.002039
      dxy     :     0.006525
      f0      :     0.000219  f :     0.001842
      f+1     :     0.000199
      f-1     :     0.000431
      f+2     :     0.000143
      f-2     :     0.000379
      f+3     :     0.000403
      f-3     :     0.000067
 31 H s       :     0.661678  s :     0.661678
      pz      :     0.046625  p :     0.189712
      px      :     0.056705
      py      :     0.086382
 32 H s       :     0.660746  s :     0.660746
      pz      :     0.104706  p :     0.199913
      px      :     0.041941
      py      :     0.053266
 33 O s       :     3.473889  s :     3.473889
      pz      :     1.401286  p :     4.814311
      px      :     1.685412
      py      :     1.727613
      dz2     :     0.003533  d :     0.028785
      dxz     :     0.007333
      dyz     :     0.010751
      dx2y2   :     0.001321
      dxy     :     0.005848
      f0      :     0.000083  f :     0.001844
      f+1     :     0.000348
      f-1     :     0.000512
      f+2     :     0.000060
      f-2     :     0.000661
      f+3     :     0.000043
      f-3     :     0.000136
 34 H s       :     0.661500  s :     0.661500
      pz      :     0.100755  p :     0.198827
      px      :     0.040141
      py      :     0.057930
 35 H s       :     0.661636  s :     0.661636
      pz      :     0.066243  p :     0.189418
      px      :     0.061497
      py      :     0.061678


                      *****************************
                      * MAYER POPULATION ANALYSIS *
                      *****************************

  NA   - Mulliken gross atomic population
  ZA   - Total nuclear charge
  QA   - Mulliken gross atomic charge
  VA   - Mayer's total valence
  BVA  - Mayer's bonded valence
  FA   - Mayer's free valence

  ATOM       NA         ZA         QA         VA         BVA        FA
  0 O      8.7452     8.0000    -0.7452     1.7752     1.7752    -0.0000
  1 H      0.6250     1.0000     0.3750     0.9183     0.9183    -0.0000
  2 H      0.6110     1.0000     0.3890     0.8930     0.8930    -0.0000
  3 O      8.7474     8.0000    -0.7474     1.7734     1.7734     0.0000
  4 H      0.6110     1.0000     0.3890     0.8927     0.8927    -0.0000
  5 H      0.6257     1.0000     0.3743     0.9190     0.9190     0.0000
  6 O      8.7822     8.0000    -0.7822     1.7362     1.7362    -0.0000
  7 H      0.6139     1.0000     0.3861     0.9163     0.9163    -0.0000
  8 H      0.6356     1.0000     0.3644     0.9300     0.9300    -0.0000
  9 O      8.7459     8.0000    -0.7459     1.7740     1.7740     0.0000
 10 H      0.6255     1.0000     0.3745     0.9192     0.9192    -0.0000
 11 H      0.6108     1.0000     0.3892     0.8925     0.8925    -0.0000
 12 O      8.7533     8.0000    -0.7533     1.7937     1.7937    -0.0000
 13 H      0.6229     1.0000     0.3771     0.9150     0.9150    -0.0000
 14 H      0.6129     1.0000     0.3871     0.8688     0.8688    -0.0000
 15 O      8.7523     8.0000    -0.7523     1.7930     1.7930     0.0000
 16 H      0.6134     1.0000     0.3866     0.8691     0.8691     0.0000
 17 H      0.6238     1.0000     0.3762     0.9160     0.9160     0.0000
 18 O      8.7814     8.0000    -0.7814     1.7371     1.7371     0.0000
 19 H      0.6355     1.0000     0.3645     0.9298     0.9298     0.0000
 20 H      0.6142     1.0000     0.3858     0.9174     0.9174     0.0000
 21 O      8.7532     8.0000    -0.7532     1.7926     1.7926     0.0000
 22 H      0.6229     1.0000     0.3771     0.9156     0.9156     0.0000
 23 H      0.6124     1.0000     0.3876     0.8686     0.8686     0.0000
 24 O      8.7467     8.0000    -0.7467     1.7744     1.7744    -0.0000
 25 H      0.6114     1.0000     0.3886     0.8934     0.8934    -0.0000
 26 H      0.6251     1.0000     0.3749     0.9184     0.9184    -0.0000
 27 O      8.7525     8.0000    -0.7525     1.7937     1.7937     0.0000
 28 H      0.6232     1.0000     0.3768     0.9157     0.9157     0.0000
 29 H      0.6125     1.0000     0.3875     0.8686     0.8686     0.0000
 30 O      8.7794     8.0000    -0.7794     1.7364     1.7364     0.0000
 31 H      0.6146     1.0000     0.3854     0.9177     0.9177    -0.0000
 32 H      0.6321     1.0000     0.3679     0.9240     0.9240    -0.0000
 33 O      8.7791     8.0000    -0.7791     1.7377     1.7377    -0.0000
 34 H      0.6323     1.0000     0.3677     0.9238     0.9238    -0.0000
 35 H      0.6139     1.0000     0.3861     0.9167     0.9167    -0.0000

  Mayer bond orders larger than 0.1
B(  0-O ,  1-H ) :   0.7909 B(  0-O ,  2-H ) :   0.8114 B(  0-O , 17-H ) :   0.1753 
B(  1-H , 12-O ) :   0.1183 B(  3-O ,  4-H ) :   0.8114 B(  3-O ,  5-H ) :   0.7908 
B(  3-O , 28-H ) :   0.1727 B(  5-H , 21-O ) :   0.1197 B(  6-O ,  7-H ) :   0.7757 
B(  6-O ,  8-H ) :   0.7467 B(  6-O , 34-H ) :   0.1600 B(  7-H , 15-O ) :   0.1234 
B(  8-H , 30-O ) :   0.1623 B(  9-O , 10-H ) :   0.7903 B(  9-O , 11-H ) :   0.8118 
B(  9-O , 13-H ) :   0.1743 B( 10-H , 15-O ) :   0.1199 B( 12-O , 13-H ) :   0.7284 
B( 12-O , 14-H ) :   0.8491 B( 12-O , 20-H ) :   0.1254 B( 15-O , 16-H ) :   0.8496 
B( 15-O , 17-H ) :   0.7283 B( 18-O , 19-H ) :   0.7475 B( 18-O , 20-H ) :   0.7749 
B( 18-O , 32-H ) :   0.1615 B( 19-H , 33-O ) :   0.1612 B( 21-O , 22-H ) :   0.7285 
B( 21-O , 23-H ) :   0.8488 B( 21-O , 31-H ) :   0.1263 B( 22-H , 24-O ) :   0.1743 
B( 24-O , 25-H ) :   0.8112 B( 24-O , 26-H ) :   0.7907 B( 26-H , 27-O ) :   0.1192 
B( 27-O , 28-H ) :   0.7303 B( 27-O , 29-H ) :   0.8488 B( 27-O , 35-H ) :   0.1251 
B( 30-O , 31-H ) :   0.7744 B( 30-O , 32-H ) :   0.7478 B( 33-O , 34-H ) :   0.7495 
B( 33-O , 35-H ) :   0.7747 

-------
TIMINGS
-------

Total SCF time: 0 days 0 hours 0 min 43 sec 

Total time                  ....      43.527 sec
Sum of individual times     ....      45.782 sec  (105.2%)

Fock matrix formation       ....      33.664 sec  ( 77.3%)
  Coulomb formation         ....      29.419 sec  ( 87.4% of F)
  Split-RI-J                ....       3.230 sec  (  9.6% of F)
  Chain of spheres X        ....      25.260 sec  ( 75.0% of F)
  XC integration            ....       4.164 sec  ( 12.4% of F)
    Basis function eval.    ....       1.119 sec  ( 26.9% of XC)
    Density eval.           ....       0.928 sec  ( 22.3% of XC)
    XC-Functional eval.     ....       0.130 sec  (  3.1% of XC)
    XC-Potential eval.      ....       1.462 sec  ( 35.1% of XC)
Diagonalization             ....       0.650 sec  (  1.5%)
Density matrix formation    ....       0.045 sec  (  0.1%)
Population analysis         ....       0.399 sec  (  0.9%)
Initial guess               ....       1.222 sec  (  2.8%)
Orbital Transformation      ....       0.000 sec  (  0.0%)
Orbital Orthonormalization  ....       0.000 sec  (  0.0%)
DIIS solution               ....       0.226 sec  (  0.5%)
SOSCF solution              ....       0.473 sec  (  1.1%)
Grid generation             ....       2.844 sec  (  6.5%)
COSMO(total)                ....       6.259 sec  ( 14.4%)
   Initialization           ....       1.761 sec  ( 28.1% of COSMO)
   Potential evaluation     ....       2.318 sec  ( 37.0% of COSMO)
   Charge calculation       ....       0.410 sec  (  6.5% of COSMO)
   Fock-Matrix contrib.     ....       1.825 sec  ( 29.2% of COSMO)
   Outer-lying charge       ....       0.181 sec  (  2.9% of COSMO)
           ************************************************************
           *              Shut down parallel processing               *
           ************************************************************

Entering the calculation of the dispersion correction...

Checking the input atom types...

Done


-------------------------------------------------------------------------------
                          DFT DISPERSION CORRECTION                            
                                                                               
                                DFTD3 V2.1  Rev 6                               
                          USING Becke-Johnson damping                          
-------------------------------------------------------------------------------
The B3LYP functional is recognized
Active option DFTDOPT                   ...         4   

molecular C6(AA) [au] = 6406.632551 


            DFT-D V3
 parameters
 s6 scaling factor         :     1.0000 
 a1 scaling factor         :     0.3981 
 s8 scaling factor         :     1.9889 
 a2 scaling factor         :     4.4211 
 ad hoc parameters k1-k3   :    16.0000     1.3333    -4.0000 

 Edisp/kcal,au: -28.000651302136  -0.044621873410 
 E6   /kcal   : -15.419861069 
 E8   /kcal   : -12.580790233 
 % E8         :  44.930348574 

-------------------------   ----------------
Dispersion correction           -0.044621873
-------------------------   ----------------


-------------------------   --------------------
FINAL SINGLE POINT ENERGY      -917.367264915122
-------------------------   --------------------


                            ***************************************
                            *     ORCA property calculations      *
                            ***************************************

                                    ---------------------
                                    Active property flags
                                    ---------------------
   (+) Dipole Moment


------------------------------------------------------------------------------
                       ORCA ELECTRIC PROPERTIES CALCULATION
------------------------------------------------------------------------------

Dipole Moment Calculation                       ... on
Quadrupole Moment Calculation                   ... off
Polarizability Calculation                      ... off
GBWName                                         ... 1_B3LYP_SMD_onBP86_SMD_12_waters.gbw
Electron density file                           ... 1_B3LYP_SMD_onBP86_SMD_12_waters.scfp.tmp

-------------
DIPOLE MOMENT
-------------
                                X             Y             Z
Electronic contribution:      0.00566      -0.00230       0.00772
Nuclear contribution   :     -0.00952       0.01283      -0.00433
                        -----------------------------------------
Total Dipole Moment    :     -0.00386       0.01052       0.00339
                        -----------------------------------------
Magnitude (a.u.)       :      0.01171
Magnitude (Debye)      :      0.02977

smp-n59.crc.pitt.edu.99566hfi_wait_for_device: The /dev/hfi1_0 device failed to appear after 15.0 seconds: Connection timed out
smp-n59.crc.pitt.edu.99567hfi_wait_for_device: The /dev/hfi1_0 device failed to appear after 15.0 seconds: Connection timed out
smp-n59.crc.pitt.edu.99568hfi_wait_for_device: The /dev/hfi1_0 device failed to appear after 15.0 seconds: Connection timed out
smp-n59.crc.pitt.edu.99570hfi_wait_for_device: The /dev/hfi1_0 device failed to appear after 15.0 seconds: Connection timed out
smp-n59.crc.pitt.edu.99572hfi_wait_for_device: The /dev/hfi1_0 device failed to appear after 15.0 seconds: Connection timed out
smp-n59.crc.pitt.edu.99573hfi_wait_for_device: The /dev/hfi1_0 device failed to appear after 15.0 seconds: Connection timed out
smp-n59.crc.pitt.edu.99576hfi_wait_for_device: The /dev/hfi1_0 device failed to appear after 15.0 seconds: Connection timed out
smp-n59.crc.pitt.edu.99577hfi_wait_for_device: The /dev/hfi1_0 device failed to appear after 15.0 seconds: Connection timed out
smp-n59.crc.pitt.edu.99571hfi_wait_for_device: The /dev/hfi1_0 device failed to appear after 15.0 seconds: Connection timed out
smp-n59.crc.pitt.edu.99574hfi_wait_for_device: The /dev/hfi1_0 device failed to appear after 15.0 seconds: Connection timed out
smp-n59.crc.pitt.edu.99575hfi_wait_for_device: The /dev/hfi1_0 device failed to appear after 15.0 seconds: Connection timed out
smp-n59.crc.pitt.edu.99569hfi_wait_for_device: The /dev/hfi1_0 device failed to appear after 15.0 seconds: Connection timed out

Timings for individual modules:

Sum of individual times         ...       76.364 sec (=   1.273 min)
GTO integral calculation        ...       15.722 sec (=   0.262 min)  20.6 %
SCF iterations                  ...       60.642 sec (=   1.011 min)  79.4 %
                             ****ORCA TERMINATED NORMALLY****
TOTAL RUN TIME: 0 days 0 hours 1 minutes 31 seconds 855 msec
cp: cannot stat ‘/scratch/slurm-1328759/*.{prop}’: No such file or directory
