48
Energy:   -663.41690575
O    3.35108077  -1.48339900  -2.11122951
H    4.24830599  -1.76207280  -2.29442249
H    3.06505241  -2.05065709  -1.39524215
O   -1.13932068   0.59023593  -1.15243813
H   -0.37422488   0.81136348  -0.62143637
H   -0.81432827   0.58894911  -2.05277702
O    0.98970848  -2.03764428  -3.44969258
H    1.87369123  -1.87500764  -3.12051836
H    0.62803441  -1.16550946  -3.60718727
O   -2.39273869   2.84673006  -0.20587447
H   -2.04571119   2.08636203  -0.67239802
H   -2.79625798   2.48154960   0.58155632
O   -3.09431009   1.68097340   2.21796163
H   -3.87906355   1.87360046   2.73107825
H   -2.98279569   0.73354060   2.29649495
O   -1.28820094  -1.78563192   0.19318654
H   -1.35971280  -1.00376748  -0.35435881
H   -1.00886028  -2.47544564  -0.40877498
O    1.04261000  -1.40514100   1.53059880
H    0.21000657  -1.60547453   1.10296595
H    0.79788098  -1.12186559   2.41156111
O   -2.45464061  -0.90908805   2.56395617
H   -2.17947213  -1.34151036   1.75554718
H   -1.65013973  -0.82168703   3.07520097
O    2.34403671   1.09797007  -2.00675519
H    2.02603602   1.21143762  -1.11108085
H    2.80383131   0.25853648  -1.99363914
O   -0.41262211   2.22817826   2.53933082
H   -1.35571832   2.07675156   2.47711074
H   -0.28317954   3.09610692   2.15700071
O    1.00394716   1.07256171   0.43417029
H    0.59578911   1.58444096   1.13246714
H    1.15095748   0.21039731   0.82313346
O   -0.08324942  -3.58107735  -1.52028156
H    0.22879869  -3.05393588  -2.25579478
H   -0.39082902  -4.39406715  -1.92112346
O    0.19979713   0.60929217  -3.55083637
H    0.16048857   1.21864207  -4.28797909
H    0.98941959   0.86198504  -3.07242805
O   -0.44381386   4.40210774   0.89333122
H   -0.10881620   5.03490763   0.25805749
H   -1.15265667   3.95250986   0.43329267
O    2.33111291  -3.10320122  -0.22014511
H    1.52661096  -3.43344762  -0.62007733
H    2.03214463  -2.57967479   0.52333986
O   -0.02557161  -0.20392964   3.77017756
H    0.22223049  -0.12498404   4.69136894
H   -0.06592550   0.69874880   3.45430566
