4
Energy:    -66.28165150
O    0.01330583   0.11552873  -0.30909944
H   -0.62269130   0.20147608  -1.01927727
H    0.74844024  -0.35585066  -0.70103146
K   -0.16505137  -0.02734294   2.47959097
