4
Energy:    -69.48789523
O   -0.00723581   0.29230541  -0.03323674
H   -0.37523438   0.86818583   0.63696521
H    0.21501138   0.87785059  -0.75709783
K    0.19335255  -2.47932372   0.19347511
