4
Energy:    -68.43710031
O    0.10539147   0.28333822  -0.02302621
H   -0.45069947   1.00781661   0.26354972
H    0.94966608   0.69080518  -0.21642453
K   -0.74664053  -2.41020089  -0.01300063
