
                                 *****************
                                 * O   R   C   A *
                                 *****************

           --- An Ab Initio, DFT and Semiempirical electronic structure package ---

                  #######################################################
                  #                        -***-                        #
                  #          Department of theory and spectroscopy      #
                  #               Directorship: Frank Neese             #
                  #        Max Planck Institute fuer Kohlenforschung    #
                  #                Kaiser Wilhelm Platz 1               #
                  #                 D-45470 Muelheim/Ruhr               #
                  #                      Germany                        #
                  #                                                     #
                  #                  All rights reserved                #
                  #                        -***-                        #
                  #######################################################


                         Program Version 4.2.0 -  RELEASE  -


 With contributions from (in alphabetic order):
   Daniel Aravena         : Magnetic Suceptibility
   Michael Atanasov       : Ab Initio Ligand Field Theory (pilot matlab implementation)
   Alexander A. Auer      : GIAO ZORA, VPT2
   Ute Becker             : Parallelization
   Giovanni Bistoni       : ED, misc. LED, open-shell LED, HFLED
   Martin Brehm           : Molecular dynamics
   Dmytro Bykov           : SCF Hessian
   Vijay G. Chilkuri      : MRCI spin determinant printing, contributions to CSF-ICE
   Dipayan Datta          : RHF DLPNO-CCSD density
   Achintya Kumar Dutta   : EOM-CC, STEOM-CC
   Dmitry Ganyushin       : Spin-Orbit,Spin-Spin,Magnetic field MRCI
   Miquel Garcia          : C-PCM Hessian, Gaussian charge scheme
   Yang Guo               : DLPNO-NEVPT2, CIM, IAO-localization
   Andreas Hansen         : Spin unrestricted coupled pair/coupled cluster methods
   Benjamin Helmich-Paris : CASSCF linear response (MC-RPA)
   Lee Huntington         : MR-EOM, pCC
   Robert Izsak           : Overlap fitted RIJCOSX, COSX-SCS-MP3, EOM
   Christian Kollmar      : KDIIS, OOCD, Brueckner-CCSD(T), CCSD density
   Simone Kossmann        : Meta GGA functionals, TD-DFT gradient, OOMP2, MP2 Hessian
   Martin Krupicka        : AUTO-CI
   Lucas Lang             : DCDCAS
   Dagmar Lenk            : GEPOL surface, SMD
   Dimitrios Liakos       : Extrapolation schemes; Compound Job, initial MDCI parallelization
   Dimitrios Manganas     : Further ROCIS development; embedding schemes
   Dimitrios Pantazis     : SARC Basis sets
   Taras Petrenko         : DFT Hessian,TD-DFT gradient, ASA, ECA, R-Raman, ABS, FL, XAS/XES, NRVS
   Peter Pinski           : DLPNO-MP2, DLPNO-MP2 Gradient
   Christoph Reimann      : Effective Core Potentials
   Marius Retegan         : Local ZFS, SOC
   Christoph Riplinger    : Optimizer, TS searches, QM/MM, DLPNO-CCSD(T), (RO)-DLPNO pert. Triples
   Tobias Risthaus        : Range-separated hybrids, TD-DFT gradient, RPA, STAB
   Michael Roemelt        : Original ROCIS implementation
   Masaaki Saitow         : Open-shell DLPNO-CCSD energy and density
   Barbara Sandhoefer     : DKH picture change effects
   Avijit Sen             : IP-ROCIS
   Kantharuban Sivalingam : CASSCF convergence, NEVPT2, FIC-MRCI
   Bernardo de Souza      : ESD, SOC TD-DFT
   Georgi Stoychev        : AutoAux, RI-MP2 NMR
   Willem Van den Heuvel  : Paramagnetic NMR
   Boris Wezisla          : Elementary symmetry handling
   Frank Wennmohs         : Technical directorship


 We gratefully acknowledge several colleagues who have allowed us to
 interface, adapt or use parts of their codes:
   Stefan Grimme, W. Hujo, H. Kruse,             : VdW corrections, initial TS optimization,
                  C. Bannwarth                     DFT functionals, gCP, sTDA/sTD-DF
   Ed Valeev, F. Pavosevic, A. Kumar             : LibInt (2-el integral package), F12 methods
   Garnet Chan, S. Sharma, J. Yang, R. Olivares  : DMRG
   Ulf Ekstrom                                   : XCFun DFT Library
   Mihaly Kallay                                 : mrcc  (arbitrary order and MRCC methods)
   Andreas Klamt, Michael Diedenhofen            : otool_cosmo (COSMO solvation model)
   Jiri Pittner, Ondrej Demel                    : Mk-CCSD
   Frank Weinhold                                : gennbo (NPA and NBO analysis)
   Christopher J. Cramer and Donald G. Truhlar   : smd solvation model
   Lars Goerigk                                  : TD-DFT with DH, B97 family of functionals
   V. Asgeirsson, H. Jonsson                     : NEB implementation
   FAccTs GmbH                                   : IRC, NEB, NEB-TS, Multilevel, MM, QM/MM, CI optimization
   S Lehtola, MJT Oliveira, MAL Marques          : LibXC Library


 Your calculation uses the libint2 library for the computation of 2-el integrals
 For citations please refer to: http://libint.valeyev.net

 Your ORCA version has been built with support for libXC version: 4.2.3
 For citations please refer to: https://tddft.org/programs/libxc/

 This ORCA versions uses:
   CBLAS   interface :  Fast vector & matrix operations
   LAPACKE interface :  Fast linear algebra routines
   SCALAPACK package :  Parallel linear algebra routines


----- Orbital basis set information -----
Your calculation utilizes the basis: def2-TZVP
   F. Weigend and R. Ahlrichs, Phys. Chem. Chem. Phys. 7, 3297 (2005).

================================================================================
                                        WARNINGS
                       Please study these warnings very carefully!
================================================================================


WARNING: The frozen-core approximation for MP2-gradient calculations is turned on by default.

INFO   : the flag for use of LIBINT has been found!

================================================================================
                                       INPUT FILE
================================================================================
NAME = 12h2o.su.etal.mol0,1,2,6,8,9,10,11-orca.engrad-mp2.def2tzvp.frozencore.inp
|  1> # 12h2o.su.etal.mol0,1,2,6,8,9,10,11
|  2> ! MP2 def2-TZVP EnGrad TightSCF
|  3> 
|  4> %pal
|  5>     nprocs 6
|  6> end
|  7> 
|  8> %maxcore 8000
|  9> 
| 10> %scf
| 11>     ConvForced true
| 12> end
| 13> 
| 14> *xyz 0 1
| 15> O   1.794470000   0.923410000   2.768350000
| 16> H   2.338250000   1.359750000   3.430940000
| 17> H   0.879480000   1.303000000   2.865760000
| 18> O  -1.794470000  -0.923410000   2.768350000
| 19> H  -2.338250000  -1.359750000   3.430940000
| 20> H  -0.879480000  -1.303000000   2.865760000
| 21> O   0.923410000  -1.794470000  -2.768350000
| 22> H   1.359750000  -2.338250000  -3.430940000
| 23> H   1.303000000  -0.879480000  -2.865760000
| 24> O   1.737840000   0.885520000  -0.052730000
| 25> H   2.090180000   1.032320000   0.841890000
| 26> H   0.839590000   1.284090000  -0.017130000
| 27> O   1.752130000   0.741530000  -2.896280000
| 28> H   2.036450000   0.920500000  -1.984040000
| 29> H   0.921210000   1.242140000  -2.984230000
| 30> O   0.741530000  -1.752130000   2.896280000
| 31> H   0.920500000  -2.036450000   1.984040000
| 32> H   1.242140000  -0.921210000   2.984230000
| 33> O  -0.923410000   1.794470000  -2.768350000
| 34> H  -1.359750000   2.338250000  -3.430940000
| 35> H  -1.303000000   0.879480000  -2.865760000
| 36> O  -0.741530000   1.752130000   2.896280000
| 37> H  -0.920500000   2.036450000   1.984040000
| 38> H  -1.242140000   0.921210000   2.984230000
| 39> *
| 40> 
| 41>                          ****END OF INPUT****
================================================================================

                     *******************************
                     * Energy+Gradient Calculation *
                     *******************************

---------------------------------
CARTESIAN COORDINATES (ANGSTROEM)
---------------------------------
  O      1.794470    0.923410    2.768350
  H      2.338250    1.359750    3.430940
  H      0.879480    1.303000    2.865760
  O     -1.794470   -0.923410    2.768350
  H     -2.338250   -1.359750    3.430940
  H     -0.879480   -1.303000    2.865760
  O      0.923410   -1.794470   -2.768350
  H      1.359750   -2.338250   -3.430940
  H      1.303000   -0.879480   -2.865760
  O      1.737840    0.885520   -0.052730
  H      2.090180    1.032320    0.841890
  H      0.839590    1.284090   -0.017130
  O      1.752130    0.741530   -2.896280
  H      2.036450    0.920500   -1.984040
  H      0.921210    1.242140   -2.984230
  O      0.741530   -1.752130    2.896280
  H      0.920500   -2.036450    1.984040
  H      1.242140   -0.921210    2.984230
  O     -0.923410    1.794470   -2.768350
  H     -1.359750    2.338250   -3.430940
  H     -1.303000    0.879480   -2.865760
  O     -0.741530    1.752130    2.896280
  H     -0.920500    2.036450    1.984040
  H     -1.242140    0.921210    2.984230

----------------------------
CARTESIAN COORDINATES (A.U.)
----------------------------
  NO LB      ZA    FRAG     MASS         X           Y           Z
   0 O     8.0000    0    15.999    3.391057    1.744992    5.231423
   1 H     1.0000    0     1.008    4.418652    2.569555    6.483537
   2 H     1.0000    0     1.008    1.661976    2.462313    5.415502
   3 O     8.0000    0    15.999   -3.391057   -1.744992    5.231423
   4 H     1.0000    0     1.008   -4.418652   -2.569555    6.483537
   5 H     1.0000    0     1.008   -1.661976   -2.462313    5.415502
   6 O     8.0000    0    15.999    1.744992   -3.391057   -5.231423
   7 H     1.0000    0     1.008    2.569555   -4.418652   -6.483537
   8 H     1.0000    0     1.008    2.462313   -1.661976   -5.415502
   9 O     8.0000    0    15.999    3.284042    1.673390   -0.099645
  10 H     1.0000    0     1.008    3.949868    1.950802    1.590942
  11 H     1.0000    0     1.008    1.586595    2.426578   -0.032371
  12 O     8.0000    0    15.999    3.311046    1.401289   -5.473176
  13 H     1.0000    0     1.008    3.848333    1.739493   -3.749292
  14 H     1.0000    0     1.008    1.740835    2.347304   -5.639377
  15 O     8.0000    0    15.999    1.401289   -3.311046    5.473176
  16 H     1.0000    0     1.008    1.739493   -3.848333    3.749292
  17 H     1.0000    0     1.008    2.347304   -1.740835    5.639377
  18 O     8.0000    0    15.999   -1.744992    3.391057   -5.231423
  19 H     1.0000    0     1.008   -2.569555    4.418652   -6.483537
  20 H     1.0000    0     1.008   -2.462313    1.661976   -5.415502
  21 O     8.0000    0    15.999   -1.401289    3.311046    5.473176
  22 H     1.0000    0     1.008   -1.739493    3.848333    3.749292
  23 H     1.0000    0     1.008   -2.347304    1.740835    5.639377

--------------------------------
INTERNAL COORDINATES (ANGSTROEM)
--------------------------------
 O      0   0   0     0.000000000000     0.00000000     0.00000000
 H      1   0   0     0.961828878803     0.00000000     0.00000000
 H      1   2   0     0.995381322057   106.21731035     0.00000000
 O      3   1   2     3.480861789658   117.35405144   223.81249033
 H      4   3   1     0.961828878803   134.84484566    98.22461471
 H      4   3   1     0.995381322057    62.29205096    12.66575463
 O      6   4   3     5.935920367146   102.58474291   273.48279218
 H      7   6   4     0.961828878803   146.97742434   224.01286022
 H      7   6   4     0.995381322057    97.62005672    87.72090689
 O      1   2   3     2.821902722526   134.92023192   114.47749497
 H     10   1   2     0.972645187106    21.75017499    16.91177088
 H     10   1   2     0.983350632989    88.66470709   242.75499327
 O      9   7   6     1.682356278379   171.61043709   321.17145860
 H     13   9   7     0.972136791249   103.79460456    70.64587838
 H     13   9   7     0.974050112161   105.61118924   321.69395179
 O      6   4   3     1.682356278379   171.61043709   328.33166207
 H     16   6   4     0.972136791249   103.79460456   289.35412162
 H     16   6   4     0.974050112161   105.61118924    38.30604821
 O     15  13   9     1.937600461318   161.54375213    39.05245435
 H     19  15  13     0.961828878803   121.08403650   202.75419110
 H     19  15  13     0.995381322057    95.17003195   315.21089530
 O      3   1   2     1.682356278379   171.61043709   195.73896161
 H     22   3   1     0.972136791249   103.79460456   289.35412162
 H     22   3   1     0.974050112161   105.61118924    38.30604821

---------------------------
INTERNAL COORDINATES (A.U.)
---------------------------
 O      0   0   0     0.000000000000     0.00000000     0.00000000
 H      1   0   0     1.817593168635     0.00000000     0.00000000
 H      1   2   0     1.880998097508   106.21731035     0.00000000
 O      3   1   2     6.577875492484   117.35405144   223.81249033
 H      4   3   1     1.817593168635   134.84484566    98.22461471
 H      4   3   1     1.880998097508    62.29205096    12.66575463
 O      6   4   3    11.217263846671   102.58474291   273.48279218
 H      7   6   4     1.817593168635   146.97742434   224.01286022
 H      7   6   4     1.880998097508    97.62005672    87.72090689
 O      1   2   3     5.332623322141   134.92023192   114.47749497
 H     10   1   2     1.838033029106    21.75017499    16.91177088
 H     10   1   2     1.858263389967    88.66470709   242.75499327
 O      9   7   6     3.179192625819   171.61043709   321.17145860
 H     13   9   7     1.837072300170   103.79460456    70.64587838
 H     13   9   7     1.840687952699   105.61118924   321.69395179
 O      6   4   3     3.179192625819   171.61043709   328.33166207
 H     16   6   4     1.837072300170   103.79460456   289.35412162
 H     16   6   4     1.840687952699   105.61118924    38.30604821
 O     15  13   9     3.661534228851   161.54375213    39.05245435
 H     19  15  13     1.817593168635   121.08403650   202.75419110
 H     19  15  13     1.880998097508    95.17003195   315.21089530
 O      3   1   2     3.179192625819   171.61043709   195.73896161
 H     22   3   1     1.837072300170   103.79460456   289.35412162
 H     22   3   1     1.840687952699   105.61118924    38.30604821

---------------------
BASIS SET INFORMATION
---------------------
There are 2 groups of distinct atoms

 Group   1 Type O   : 11s6p2d1f contracted to 5s3p2d1f pattern {62111/411/11/1}
 Group   2 Type H   : 5s1p contracted to 3s1p pattern {311/1}

Atom   0O    basis set group =>   1
Atom   1H    basis set group =>   2
Atom   2H    basis set group =>   2
Atom   3O    basis set group =>   1
Atom   4H    basis set group =>   2
Atom   5H    basis set group =>   2
Atom   6O    basis set group =>   1
Atom   7H    basis set group =>   2
Atom   8H    basis set group =>   2
Atom   9O    basis set group =>   1
Atom  10H    basis set group =>   2
Atom  11H    basis set group =>   2
Atom  12O    basis set group =>   1
Atom  13H    basis set group =>   2
Atom  14H    basis set group =>   2
Atom  15O    basis set group =>   1
Atom  16H    basis set group =>   2
Atom  17H    basis set group =>   2
Atom  18O    basis set group =>   1
Atom  19H    basis set group =>   2
Atom  20H    basis set group =>   2
Atom  21O    basis set group =>   1
Atom  22H    basis set group =>   2
Atom  23H    basis set group =>   2


           ************************************************************
           *        Program running with 6 parallel MPI-processes     *
           *              working on a common directory               *
           ************************************************************
------------------------------------------------------------------------------
                           ORCA GTO INTEGRAL CALCULATION
------------------------------------------------------------------------------

                         BASIS SET STATISTICS AND STARTUP INFO

 # of primitive gaussian shells          ...  256
 # of primitive gaussian functions       ...  496
 # of contracted shells                  ...  152
 # of contracted basis functions         ...  344
 Highest angular momentum                ...    3
 Maximum contraction depth               ...    6
 Integral package used                   ... LIBINT
 Integral threshhold            Thresh   ...  2.500e-11
 Primitive cut-off              TCut     ...  2.500e-12


------------------------------ INTEGRAL EVALUATION ----------------------------


 * One electron integrals 
 Pre-screening matrix                    ... done
 Shell pair data                         ... done (   0.002 sec)



           ************************************************************
           *        Program running with 6 parallel MPI-processes     *
           *              working on a common directory               *
           ************************************************************
-------------------------------------------------------------------------------
                                 ORCA SCF
-------------------------------------------------------------------------------

------------
SCF SETTINGS
------------
Hamiltonian:
 Ab initio Hamiltonian  Method          .... Hartree-Fock(GTOs)


General Settings:
 Integral files         IntName         .... 12h2o.su.etal.mol0,1,2,6,8,9,10,11-orca.engrad-mp2.def2tzvp.frozencore
 Hartree-Fock type      HFTyp           .... RHF
 Total Charge           Charge          ....    0
 Multiplicity           Mult            ....    1
 Number of Electrons    NEL             ....   80
 Basis Dimension        Dim             ....  344
 Nuclear Repulsion      ENuc            ....    432.0192102837 Eh

Convergence Acceleration:
 DIIS                   CNVDIIS         .... on
   Start iteration      DIISMaxIt       ....    12
   Startup error        DIISStart       ....  0.200000
   # of expansion vecs  DIISMaxEq       ....     5
   Bias factor          DIISBfac        ....   1.050
   Max. coefficient     DIISMaxC        ....  10.000
 Newton-Raphson         CNVNR           .... off
 SOSCF                  CNVSOSCF        .... on
   Start iteration      SOSCFMaxIt      ....   150
   Startup grad/error   SOSCFStart      ....  0.003300
 Level Shifting         CNVShift        .... on
   Level shift para.    LevelShift      ....    0.2500
   Turn off err/grad.   ShiftErr        ....    0.0010
 Zerner damping         CNVZerner       .... off
 Static damping         CNVDamp         .... on
   Fraction old density DampFac         ....    0.7000
   Max. Damping (<1)    DampMax         ....    0.9800
   Min. Damping (>=0)   DampMin         ....    0.0000
   Turn off err/grad.   DampErr         ....    0.1000
 Fernandez-Rico         CNVRico         .... off

SCF Procedure:
 Maximum # iterations   MaxIter         ....   125
 SCF integral mode      SCFMode         .... Direct
   Integral package                     .... LIBINT
 Reset frequency        DirectResetFreq ....    20
 Integral Threshold     Thresh          ....  2.500e-11 Eh
 Primitive CutOff       TCut            ....  2.500e-12 Eh

Convergence Tolerance:
 Convergence Check Mode ConvCheckMode   .... Total+1el-Energy
 Convergence forced     ConvForced      .... 1
 Energy Change          TolE            ....  1.000e-08 Eh
 1-El. energy change                    ....  1.000e-05 Eh
 Orbital Gradient       TolG            ....  1.000e-05
 Orbital Rotation angle TolX            ....  1.000e-05
 DIIS Error             TolErr          ....  5.000e-07


Diagonalization of the overlap matrix:
Smallest eigenvalue                        ... 3.703e-03
Time for diagonalization                   ...    0.016 sec
Threshold for overlap eigenvalues          ... 1.000e-08
Number of eigenvalues below threshold      ... 0
Time for construction of square roots      ...    0.009 sec
Total time needed                          ...    0.025 sec

-------------------
DFT GRID GENERATION
-------------------

General Integration Accuracy     IntAcc      ...  4.340
Radial Grid Type                 RadialGrid  ... Gauss-Chebyshev
Angular Grid (max. acc.)         AngularGrid ... Lebedev-110
Angular grid pruning method      GridPruning ... 3 (G Style)
Weight generation scheme         WeightScheme... Becke
Basis function cutoff            BFCut       ...    1.0000e-11
Integration weight cutoff        WCut        ...    1.0000e-14
Grids for H and He will be reduced by one unit

# of grid points (after initial pruning)     ...  26432 (   0.0 sec)
# of grid points (after weights+screening)   ...  24810 (   0.0 sec)
nearest neighbour list constructed           ...    0.0 sec
Grid point re-assignment to atoms done       ...    0.0 sec
Grid point division into batches done        ...    0.0 sec
Reduced shell lists constructed in    0.1 sec

Total number of grid points                  ...    24810
Total number of batches                      ...      401
Average number of points per batch           ...       61
Average number of grid points per atom       ...     1034
Average number of shells per batch           ...    70.72 (46.53%)
Average number of basis functions per batch  ...   142.78 (41.51%)
Average number of large shells per batch     ...    46.71 (66.04%)
Average number of large basis fcns per batch ...    92.09 (64.50%)
Maximum spatial batch extension              ...  14.29, 16.09, 13.18 au
Average spatial batch extension              ...   0.49,  0.58,  0.53 au

Time for grid setup =    0.092 sec

------------------------------
INITIAL GUESS: MODEL POTENTIAL
------------------------------
Loading Hartree-Fock densities                     ... done
Calculating cut-offs                               ... done
Setting up the integral package                    ... done
Initializing the effective Hamiltonian             ... done
Starting the Coulomb interaction                   ... done (   0.0 sec)
Reading the grid                                   ... done
Mapping shells                                     ... done
Starting the XC term evaluation                    ... done (   0.0 sec)
Transforming the Hamiltonian                       ... done (   0.0 sec)
Diagonalizing the Hamiltonian                      ... done (   0.0 sec)
Back transforming the eigenvectors                 ... done (   0.0 sec)
Now organizing SCF variables                       ... done
                      ------------------
                      INITIAL GUESS DONE (   0.3 sec)
                      ------------------
--------------
SCF ITERATIONS
--------------
ITER       Energy         Delta-E        Max-DP      RMS-DP      [F,P]     Damp
               ***  Starting incremental Fock matrix formation  ***
  0   -607.8236640805   0.000000000000 0.04407943  0.00083054  0.3500730 0.7000
  1   -608.0942807757  -0.270616695158 0.02939143  0.00057508  0.2163170 0.7000
                               ***Turning on DIIS***
  2   -608.2379618326  -0.143681056899 0.01646283  0.00032183  0.1634483 0.7000
  3   -609.5707844407  -1.332822608112 0.00766242  0.00014722  0.1218372 0.7000
  4   -609.3012736780   0.269510762670 0.01705273  0.00033900  0.0861883 0.0000
  5   -608.5661860434   0.735087634632 0.00207186  0.00005379  0.0057506 0.0000
                      *** Initiating the SOSCF procedure ***
                           *** Shutting down DIIS ***
                      *** Re-Reading the Fockian *** 
                      *** Removing any level shift *** 
ITER      Energy       Delta-E        Grad      Rot      Max-DP    RMS-DP
  6   -608.52732065   0.0388653939  0.000731  0.000731  0.001355  0.000033
               *** Restarting incremental Fock matrix formation ***
  7   -608.51555747   0.0117631832  0.000293  0.000401  0.000660  0.000015
  8   -608.51556888  -0.0000114167  0.000118  0.000297  0.000519  0.000012
  9   -608.51557168  -0.0000027972  0.000075  0.000037  0.000111  0.000002
 10   -608.51557192  -0.0000002371  0.000012  0.000009  0.000021  0.000000
                  ***Gradient check signals convergence***
              ***Rediagonalizing the Fockian in SOSCF/NRSCF***

               *****************************************************
               *                     SUCCESS                       *
               *           SCF CONVERGED AFTER  11 CYCLES          *
               *****************************************************


----------------
TOTAL SCF ENERGY
----------------

Total Energy       :         -608.51557192 Eh          -16558.55053 eV

Components:
Nuclear Repulsion  :          432.01921028 Eh           11755.84037 eV
Electronic Energy  :        -1040.53478221 Eh          -28314.39090 eV
One Electron Energy:        -1701.70801236 Eh          -46305.82916 eV
Two Electron Energy:          661.17323015 Eh           17991.43826 eV

Virial components:
Potential Energy   :        -1216.24430993 Eh          -33095.69023 eV
Kinetic Energy     :          607.72873801 Eh           16537.13969 eV
Virial Ratio       :            2.00129471


---------------
SCF CONVERGENCE
---------------

  Last Energy change         ...   -5.9438e-09  Tolerance :   1.0000e-08
  Last MAX-Density change    ...    5.4933e-06  Tolerance :   1.0000e-07
  Last RMS-Density change    ...    1.2592e-07  Tolerance :   5.0000e-09
  Last Orbital Gradient      ...    2.4940e-06  Tolerance :   1.0000e-05
  Last Orbital Rotation      ...    2.8101e-06  Tolerance :   1.0000e-05

             **** THE GBW FILE WAS UPDATED (12h2o.su.etal.mol0,1,2,6,8,9,10,11-orca.engrad-mp2.def2tzvp.frozencore.gbw) ****
             **** DENSITY FILE WAS UPDATED (12h2o.su.etal.mol0,1,2,6,8,9,10,11-orca.engrad-mp2.def2tzvp.frozencore.scfp) ****
             **** ENERGY FILE WAS UPDATED (12h2o.su.etal.mol0,1,2,6,8,9,10,11-orca.engrad-mp2.def2tzvp.frozencore.en.tmp) ****
             **** THE GBW FILE WAS UPDATED (12h2o.su.etal.mol0,1,2,6,8,9,10,11-orca.engrad-mp2.def2tzvp.frozencore.gbw) ****
             **** DENSITY FILE WAS UPDATED (12h2o.su.etal.mol0,1,2,6,8,9,10,11-orca.engrad-mp2.def2tzvp.frozencore.scfp) ****
----------------
ORBITAL ENERGIES
----------------

  NO   OCC          E(Eh)            E(eV) 
   0   2.0000     -20.593882      -560.3880 
   1   2.0000     -20.585031      -560.1472 
   2   2.0000     -20.577710      -559.9480 
   3   2.0000     -20.570303      -559.7464 
   4   2.0000     -20.559750      -559.4592 
   5   2.0000     -20.550817      -559.2162 
   6   2.0000     -20.534468      -558.7713 
   7   2.0000     -20.501219      -557.8665 
   8   2.0000      -1.380954       -37.5777 
   9   2.0000      -1.371752       -37.3273 
  10   2.0000      -1.362981       -37.0886 
  11   2.0000      -1.357543       -36.9406 
  12   2.0000      -1.341337       -36.4996 
  13   2.0000      -1.330979       -36.2178 
  14   2.0000      -1.325220       -36.0611 
  15   2.0000      -1.282556       -34.9001 
  16   2.0000      -0.744195       -20.2506 
  17   2.0000      -0.738675       -20.1004 
  18   2.0000      -0.736397       -20.0384 
  19   2.0000      -0.720087       -19.5946 
  20   2.0000      -0.713931       -19.4271 
  21   2.0000      -0.711637       -19.3646 
  22   2.0000      -0.691105       -18.8059 
  23   2.0000      -0.668676       -18.1956 
  24   2.0000      -0.637859       -17.3570 
  25   2.0000      -0.614837       -16.7306 
  26   2.0000      -0.604826       -16.4581 
  27   2.0000      -0.601502       -16.3677 
  28   2.0000      -0.588422       -16.0118 
  29   2.0000      -0.568348       -15.4655 
  30   2.0000      -0.560507       -15.2522 
  31   2.0000      -0.537462       -14.6251 
  32   2.0000      -0.527681       -14.3589 
  33   2.0000      -0.525575       -14.3016 
  34   2.0000      -0.519188       -14.1278 
  35   2.0000      -0.510984       -13.9046 
  36   2.0000      -0.505430       -13.7535 
  37   2.0000      -0.501417       -13.6443 
  38   2.0000      -0.473596       -12.8872 
  39   2.0000      -0.452136       -12.3032 
  40   0.0000       0.093115         2.5338 
  41   0.0000       0.116980         3.1832 
  42   0.0000       0.144562         3.9337 
  43   0.0000       0.149359         4.0643 
  44   0.0000       0.166529         4.5315 
  45   0.0000       0.179710         4.8902 
  46   0.0000       0.197750         5.3811 
  47   0.0000       0.207813         5.6549 
  48   0.0000       0.251721         6.8497 
  49   0.0000       0.265209         7.2167 
  50   0.0000       0.280000         7.6192 
  51   0.0000       0.289891         7.8883 
  52   0.0000       0.319978         8.7071 
  53   0.0000       0.327528         8.9125 
  54   0.0000       0.337649         9.1879 
  55   0.0000       0.355013         9.6604 
  56   0.0000       0.420157        11.4331 
  57   0.0000       0.462658        12.5896 
  58   0.0000       0.476736        12.9727 
  59   0.0000       0.495955        13.4956 
  60   0.0000       0.500190        13.6109 
  61   0.0000       0.507135        13.7999 
  62   0.0000       0.522099        14.2070 
  63   0.0000       0.529852        14.4180 
  64   0.0000       0.545993        14.8572 
  65   0.0000       0.554642        15.0926 
  66   0.0000       0.561519        15.2797 
  67   0.0000       0.569046        15.4845 
  68   0.0000       0.572619        15.5818 
  69   0.0000       0.588273        16.0077 
  70   0.0000       0.595137        16.1945 
  71   0.0000       0.598255        16.2793 
  72   0.0000       0.621546        16.9131 
  73   0.0000       0.624306        16.9882 
  74   0.0000       0.632875        17.2214 
  75   0.0000       0.644697        17.5431 
  76   0.0000       0.654088        17.7986 
  77   0.0000       0.669777        18.2256 
  78   0.0000       0.688666        18.7396 
  79   0.0000       0.712148        19.3785 
  80   0.0000       0.717432        19.5223 
  81   0.0000       0.735980        20.0270 
  82   0.0000       0.744554        20.2604 
  83   0.0000       0.749887        20.4055 
  84   0.0000       0.758443        20.6383 
  85   0.0000       0.760510        20.6945 
  86   0.0000       0.770686        20.9714 
  87   0.0000       0.783423        21.3180 
  88   0.0000       0.790822        21.5193 
  89   0.0000       0.810985        22.0680 
  90   0.0000       0.817565        22.2471 
  91   0.0000       0.840917        22.8825 
  92   0.0000       0.857183        23.3251 
  93   0.0000       0.864680        23.5291 
  94   0.0000       0.886378        24.1196 
  95   0.0000       0.911117        24.7927 
  96   0.0000       0.934909        25.4402 
  97   0.0000       0.959220        26.1017 
  98   0.0000       0.966839        26.3090 
  99   0.0000       1.022208        27.8157 
 100   0.0000       1.037983        28.2449 
 101   0.0000       1.063332        28.9347 
 102   0.0000       1.085123        29.5277 
 103   0.0000       1.119143        30.4534 
 104   0.0000       1.333651        36.2905 
 105   0.0000       1.380141        37.5556 
 106   0.0000       1.383126        37.6368 
 107   0.0000       1.393531        37.9199 
 108   0.0000       1.399535        38.0833 
 109   0.0000       1.416774        38.5524 
 110   0.0000       1.423364        38.7317 
 111   0.0000       1.425070        38.7781 
 112   0.0000       1.436950        39.1014 
 113   0.0000       1.453167        39.5427 
 114   0.0000       1.462299        39.7912 
 115   0.0000       1.475764        40.1576 
 116   0.0000       1.483321        40.3632 
 117   0.0000       1.512275        41.1511 
 118   0.0000       1.524655        41.4880 
 119   0.0000       1.541296        41.9408 
 120   0.0000       1.554077        42.2886 
 121   0.0000       1.571316        42.7577 
 122   0.0000       1.573717        42.8230 
 123   0.0000       1.601035        43.5664 
 124   0.0000       1.611628        43.8546 
 125   0.0000       1.623436        44.1759 
 126   0.0000       1.631787        44.4032 
 127   0.0000       1.670422        45.4545 
 128   0.0000       1.799514        48.9673 
 129   0.0000       1.811082        49.2821 
 130   0.0000       1.828618        49.7592 
 131   0.0000       1.857420        50.5430 
 132   0.0000       1.866329        50.7854 
 133   0.0000       1.872058        50.9413 
 134   0.0000       1.877346        51.0852 
 135   0.0000       1.914769        52.1035 
 136   0.0000       1.923416        52.3388 
 137   0.0000       1.947818        53.0028 
 138   0.0000       1.976954        53.7957 
 139   0.0000       1.980575        53.8942 
 140   0.0000       1.985213        54.0204 
 141   0.0000       2.006076        54.5881 
 142   0.0000       2.019161        54.9442 
 143   0.0000       2.027010        55.1578 
 144   0.0000       2.035525        55.3895 
 145   0.0000       2.079767        56.5933 
 146   0.0000       2.094119        56.9839 
 147   0.0000       2.097243        57.0689 
 148   0.0000       2.133510        58.0558 
 149   0.0000       2.142792        58.3083 
 150   0.0000       2.181077        59.3501 
 151   0.0000       2.192868        59.6710 
 152   0.0000       2.230209        60.6871 
 153   0.0000       2.239535        60.9409 
 154   0.0000       2.267498        61.7018 
 155   0.0000       2.290465        62.3267 
 156   0.0000       2.305461        62.7348 
 157   0.0000       2.310999        62.8855 
 158   0.0000       2.320606        63.1469 
 159   0.0000       2.347583        63.8810 
 160   0.0000       2.351297        63.9820 
 161   0.0000       2.355882        64.1068 
 162   0.0000       2.373004        64.5727 
 163   0.0000       2.382188        64.8226 
 164   0.0000       2.396336        65.2076 
 165   0.0000       2.400435        65.3192 
 166   0.0000       2.411941        65.6322 
 167   0.0000       2.435418        66.2711 
 168   0.0000       2.459323        66.9216 
 169   0.0000       2.484351        67.6026 
 170   0.0000       2.495295        67.9004 
 171   0.0000       2.527673        68.7815 
 172   0.0000       2.531463        68.8846 
 173   0.0000       2.555640        69.5425 
 174   0.0000       2.566332        69.8334 
 175   0.0000       2.578861        70.1744 
 176   0.0000       2.594706        70.6055 
 177   0.0000       2.608008        70.9675 
 178   0.0000       2.616211        71.1907 
 179   0.0000       2.625807        71.4519 
 180   0.0000       2.639224        71.8169 
 181   0.0000       2.653298        72.1999 
 182   0.0000       2.662840        72.4596 
 183   0.0000       2.672051        72.7102 
 184   0.0000       2.673824        72.7584 
 185   0.0000       2.701036        73.4989 
 186   0.0000       2.705769        73.6277 
 187   0.0000       2.735378        74.4334 
 188   0.0000       2.764882        75.2363 
 189   0.0000       2.772924        75.4551 
 190   0.0000       2.790423        75.9313 
 191   0.0000       2.816629        76.6444 
 192   0.0000       2.885893        78.5291 
 193   0.0000       2.892894        78.7196 
 194   0.0000       2.934710        79.8575 
 195   0.0000       2.944486        80.1235 
 196   0.0000       2.950467        80.2863 
 197   0.0000       2.962224        80.6062 
 198   0.0000       2.972530        80.8866 
 199   0.0000       2.992504        81.4302 
 200   0.0000       3.001373        81.6715 
 201   0.0000       3.006493        81.8108 
 202   0.0000       3.014409        82.0262 
 203   0.0000       3.038965        82.6944 
 204   0.0000       3.045119        82.8619 
 205   0.0000       3.055820        83.1531 
 206   0.0000       3.077215        83.7353 
 207   0.0000       3.092653        84.1554 
 208   0.0000       3.120665        84.9176 
 209   0.0000       3.126026        85.0635 
 210   0.0000       3.137355        85.3718 
 211   0.0000       3.157861        85.9298 
 212   0.0000       3.190308        86.8127 
 213   0.0000       3.220564        87.6360 
 214   0.0000       3.256032        88.6011 
 215   0.0000       3.271036        89.0094 
 216   0.0000       3.282774        89.3288 
 217   0.0000       3.322554        90.4113 
 218   0.0000       3.328440        90.5715 
 219   0.0000       3.342300        90.9486 
 220   0.0000       3.371178        91.7344 
 221   0.0000       3.494179        95.0814 
 222   0.0000       3.523580        95.8815 
 223   0.0000       3.548351        96.5555 
 224   0.0000       3.968316       107.9834 
 225   0.0000       4.023231       109.4777 
 226   0.0000       4.027953       109.6062 
 227   0.0000       4.073365       110.8419 
 228   0.0000       4.090664       111.3126 
 229   0.0000       4.118418       112.0679 
 230   0.0000       4.134934       112.5173 
 231   0.0000       4.155222       113.0693 
 232   0.0000       4.287028       116.6560 
 233   0.0000       4.295898       116.8973 
 234   0.0000       4.307757       117.2200 
 235   0.0000       4.324035       117.6630 
 236   0.0000       4.351702       118.4158 
 237   0.0000       4.360335       118.6508 
 238   0.0000       4.384603       119.3111 
 239   0.0000       4.434915       120.6802 
 240   0.0000       5.517366       150.1352 
 241   0.0000       5.517828       150.1477 
 242   0.0000       5.527431       150.4090 
 243   0.0000       5.532883       150.5574 
 244   0.0000       5.551423       151.0619 
 245   0.0000       5.552079       151.0798 
 246   0.0000       5.566469       151.4713 
 247   0.0000       5.603925       152.4906 
 248   0.0000       5.614851       152.7879 
 249   0.0000       5.622736       153.0024 
 250   0.0000       5.648373       153.7001 
 251   0.0000       5.661632       154.0608 
 252   0.0000       5.668263       154.2413 
 253   0.0000       5.682602       154.6315 
 254   0.0000       5.693229       154.9206 
 255   0.0000       5.717194       155.5727 
 256   0.0000       5.782943       157.3619 
 257   0.0000       5.790322       157.5627 
 258   0.0000       5.806273       157.9967 
 259   0.0000       5.810115       158.1013 
 260   0.0000       5.819838       158.3658 
 261   0.0000       5.821175       158.4022 
 262   0.0000       5.821600       158.4138 
 263   0.0000       5.831729       158.6894 
 264   0.0000       5.845661       159.0685 
 265   0.0000       5.858498       159.4178 
 266   0.0000       5.865017       159.5952 
 267   0.0000       5.865677       159.6132 
 268   0.0000       5.869818       159.7259 
 269   0.0000       5.876974       159.9206 
 270   0.0000       5.882923       160.0825 
 271   0.0000       5.885330       160.1480 
 272   0.0000       5.887432       160.2052 
 273   0.0000       5.896716       160.4578 
 274   0.0000       5.901271       160.5817 
 275   0.0000       5.912284       160.8814 
 276   0.0000       5.918881       161.0609 
 277   0.0000       5.926195       161.2600 
 278   0.0000       5.937380       161.5643 
 279   0.0000       5.986840       162.9102 
 280   0.0000       6.401194       174.1853 
 281   0.0000       6.457504       175.7176 
 282   0.0000       6.463472       175.8800 
 283   0.0000       6.470507       176.0715 
 284   0.0000       6.480821       176.3521 
 285   0.0000       6.484153       176.4428 
 286   0.0000       6.510526       177.1604 
 287   0.0000       6.530636       177.7076 
 288   0.0000       6.653606       181.0538 
 289   0.0000       6.678261       181.7247 
 290   0.0000       6.679418       181.7562 
 291   0.0000       6.719388       182.8438 
 292   0.0000       6.724178       182.9742 
 293   0.0000       6.726037       183.0248 
 294   0.0000       6.766065       184.1140 
 295   0.0000       6.775300       184.3653 
 296   0.0000       6.826499       185.7585 
 297   0.0000       6.842713       186.1997 
 298   0.0000       6.844504       186.2484 
 299   0.0000       6.859979       186.6695 
 300   0.0000       6.861711       186.7167 
 301   0.0000       6.882852       187.2919 
 302   0.0000       6.885438       187.3623 
 303   0.0000       6.898149       187.7082 
 304   0.0000       6.903348       187.8497 
 305   0.0000       6.911000       188.0579 
 306   0.0000       6.920567       188.3182 
 307   0.0000       6.923141       188.3882 
 308   0.0000       6.928767       188.5413 
 309   0.0000       6.935353       188.7206 
 310   0.0000       6.952964       189.1998 
 311   0.0000       6.963854       189.4961 
 312   0.0000       6.968734       189.6289 
 313   0.0000       6.984485       190.0575 
 314   0.0000       6.990379       190.2179 
 315   0.0000       7.015519       190.9020 
 316   0.0000       7.020192       191.0291 
 317   0.0000       7.075911       192.5453 
 318   0.0000       7.101916       193.2529 
 319   0.0000       7.125812       193.9032 
 320   0.0000       7.349938       200.0020 
 321   0.0000       7.356542       200.1817 
 322   0.0000       7.384165       200.9333 
 323   0.0000       7.443702       202.5534 
 324   0.0000       7.463149       203.0826 
 325   0.0000       7.466096       203.1628 
 326   0.0000       7.472211       203.3292 
 327   0.0000       7.485621       203.6941 
 328   0.0000       7.526401       204.8038 
 329   0.0000       7.534040       205.0117 
 330   0.0000       7.541762       205.2218 
 331   0.0000       7.553091       205.5301 
 332   0.0000       7.569617       205.9798 
 333   0.0000       7.584786       206.3925 
 334   0.0000       7.602241       206.8675 
 335   0.0000       7.614294       207.1955 
 336   0.0000      44.858230      1220.6545 
 337   0.0000      44.956267      1223.3222 
 338   0.0000      44.976017      1223.8596 
 339   0.0000      44.984201      1224.0823 
 340   0.0000      45.000456      1224.5247 
 341   0.0000      45.003301      1224.6021 
 342   0.0000      45.049404      1225.8566 
 343   0.0000      45.064188      1226.2589 

                    ********************************
                    * MULLIKEN POPULATION ANALYSIS *
                    ********************************

-----------------------
MULLIKEN ATOMIC CHARGES
-----------------------
   0 O :   -0.794608
   1 H :    0.363794
   2 H :    0.411567
   3 O :   -0.778228
   4 H :    0.351296
   5 H :    0.409387
   6 O :   -0.767523
   7 H :    0.327262
   8 H :    0.399116
   9 O :   -0.737171
  10 H :    0.395489
  11 H :    0.337724
  12 O :   -0.757723
  13 H :    0.400444
  14 H :    0.376261
  15 O :   -0.747141
  16 H :    0.375503
  17 H :    0.398127
  18 O :   -0.733042
  19 H :    0.364285
  20 H :    0.382669
  21 O :   -0.741878
  22 H :    0.356860
  23 H :    0.407530
Sum of atomic charges:   -0.0000000

--------------------------------
MULLIKEN REDUCED ORBITAL CHARGES
--------------------------------
  0 O s       :     3.808249  s :     3.808249
      pz      :     1.726318  p :     4.963043
      px      :     1.442314
      py      :     1.794411
      dz2     :     0.003595  d :     0.021938
      dxz     :     0.004381
      dyz     :     0.005046
      dx2y2   :     0.002202
      dxy     :     0.006714
      f0      :     0.000080  f :     0.001378
      f+1     :     0.000315
      f-1     :     0.000168
      f+2     :     0.000060
      f-2     :     0.000344
      f+3     :     0.000081
      f-3     :     0.000329
  1 H s       :     0.590987  s :     0.590987
      pz      :     0.016877  p :     0.045219
      px      :     0.013729
      py      :     0.014612
  2 H s       :     0.532615  s :     0.532615
      pz      :     0.009920  p :     0.055818
      px      :     0.032823
      py      :     0.013075
  3 O s       :     3.806253  s :     3.806253
      pz      :     1.735006  p :     4.947852
      px      :     1.435521
      py      :     1.777324
      dz2     :     0.004073  d :     0.022708
      dxz     :     0.004913
      dyz     :     0.005183
      dx2y2   :     0.002273
      dxy     :     0.006267
      f0      :     0.000089  f :     0.001415
      f+1     :     0.000333
      f-1     :     0.000174
      f+2     :     0.000060
      f-2     :     0.000354
      f+3     :     0.000080
      f-3     :     0.000323
  4 H s       :     0.603085  s :     0.603085
      pz      :     0.017268  p :     0.045619
      px      :     0.013593
      py      :     0.014757
  5 H s       :     0.534160  s :     0.534160
      pz      :     0.010432  p :     0.056453
      px      :     0.032838
      py      :     0.013183
  6 O s       :     3.808272  s :     3.808272
      pz      :     1.717051  p :     4.934094
      px      :     1.801792
      py      :     1.415251
      dz2     :     0.004078  d :     0.023697
      dxz     :     0.005565
      dyz     :     0.004790
      dx2y2   :     0.002272
      dxy     :     0.006992
      f0      :     0.000087  f :     0.001461
      f+1     :     0.000183
      f-1     :     0.000327
      f+2     :     0.000069
      f-2     :     0.000358
      f+3     :     0.000348
      f-3     :     0.000087
  7 H s       :     0.626645  s :     0.626645
      pz      :     0.017127  p :     0.046093
      px      :     0.015143
      py      :     0.013824
  8 H s       :     0.543899  s :     0.543899
      pz      :     0.010619  p :     0.056985
      px      :     0.013873
      py      :     0.032493
  9 O s       :     3.808262  s :     3.808262
      pz      :     1.592798  p :     4.903725
      px      :     1.435286
      py      :     1.875641
      dz2     :     0.010078  d :     0.023711
      dxz     :     0.002499
      dyz     :     0.002459
      dx2y2   :     0.003112
      dxy     :     0.005563
      f0      :     0.000181  f :     0.001473
      f+1     :     0.000429
      f-1     :     0.000123
      f+2     :     0.000079
      f-2     :     0.000036
      f+3     :     0.000131
      f-3     :     0.000493
 10 H s       :     0.555061  s :     0.555061
      pz      :     0.024909  p :     0.049450
      px      :     0.011284
      py      :     0.013257
 11 H s       :     0.618926  s :     0.618926
      pz      :     0.009877  p :     0.043350
      px      :     0.018073
      py      :     0.015400
 12 O s       :     3.792035  s :     3.792035
      pz      :     1.573111  p :     4.940280
      px      :     1.579294
      py      :     1.787875
      dz2     :     0.011554  d :     0.024052
      dxz     :     0.001171
      dyz     :     0.002305
      dx2y2   :     0.002325
      dxy     :     0.006697
      f0      :     0.000230  f :     0.001356
      f+1     :     0.000377
      f-1     :     0.000151
      f+2     :     0.000051
      f-2     :     0.000055
      f+3     :     0.000049
      f-3     :     0.000443
 13 H s       :     0.551861  s :     0.551861
      pz      :     0.024744  p :     0.047695
      px      :     0.011036
      py      :     0.011914
 14 H s       :     0.573978  s :     0.573978
      pz      :     0.010082  p :     0.049761
      px      :     0.023767
      py      :     0.015912
 15 O s       :     3.796379  s :     3.796379
      pz      :     1.533963  p :     4.924684
      px      :     1.790021
      py      :     1.600701
      dz2     :     0.012279  d :     0.024690
      dxz     :     0.002279
      dyz     :     0.001222
      dx2y2   :     0.002315
      dxy     :     0.006594
      f0      :     0.000249  f :     0.001388
      f+1     :     0.000155
      f-1     :     0.000388
      f+2     :     0.000052
      f-2     :     0.000056
      f+3     :     0.000441
      f-3     :     0.000046
 16 H s       :     0.581104  s :     0.581104
      pz      :     0.019438  p :     0.043394
      px      :     0.012466
      py      :     0.011489
 17 H s       :     0.552564  s :     0.552564
      pz      :     0.009479  p :     0.049309
      px      :     0.015491
      py      :     0.024340
 18 O s       :     3.809067  s :     3.809067
      pz      :     1.735370  p :     4.898003
      px      :     1.784128
      py      :     1.378505
      dz2     :     0.004306  d :     0.024467
      dxz     :     0.005529
      dyz     :     0.004892
      dx2y2   :     0.002563
      dxy     :     0.007178
      f0      :     0.000093  f :     0.001505
      f+1     :     0.000184
      f-1     :     0.000350
      f+2     :     0.000062
      f-2     :     0.000356
      f+3     :     0.000368
      f-3     :     0.000092
 19 H s       :     0.590404  s :     0.590404
      pz      :     0.017214  p :     0.045311
      px      :     0.014769
      py      :     0.013327
 20 H s       :     0.576299  s :     0.576299
      pz      :     0.010879  p :     0.041032
      px      :     0.012014
      py      :     0.018139
 21 O s       :     3.794970  s :     3.794970
      pz      :     1.517781  p :     4.920959
      px      :     1.791728
      py      :     1.611450
      dz2     :     0.012322  d :     0.024568
      dxz     :     0.002267
      dyz     :     0.001275
      dx2y2   :     0.002252
      dxy     :     0.006452
      f0      :     0.000251  f :     0.001380
      f+1     :     0.000154
      f-1     :     0.000388
      f+2     :     0.000051
      f-2     :     0.000056
      f+3     :     0.000437
      f-3     :     0.000044
 22 H s       :     0.599258  s :     0.599258
      pz      :     0.019137  p :     0.043882
      px      :     0.012893
      py      :     0.011852
 23 H s       :     0.543302  s :     0.543302
      pz      :     0.009144  p :     0.049168
      px      :     0.015159
      py      :     0.024865


                     *******************************
                     * LOEWDIN POPULATION ANALYSIS *
                     *******************************

----------------------
LOEWDIN ATOMIC CHARGES
----------------------
   0 O :   -0.326220
   1 H :    0.160426
   2 H :    0.156269
   3 O :   -0.348606
   4 H :    0.155765
   5 H :    0.155777
   6 O :   -0.379101
   7 H :    0.144709
   8 H :    0.152156
   9 O :   -0.329491
  10 H :    0.158807
  11 H :    0.165051
  12 O :   -0.301821
  13 H :    0.161804
  14 H :    0.152550
  15 O :   -0.293672
  16 H :    0.176593
  17 H :    0.160350
  18 O :   -0.320068
  19 H :    0.164329
  20 H :    0.193474
  21 O :   -0.291248
  22 H :    0.167341
  23 H :    0.164823

-------------------------------
LOEWDIN REDUCED ORBITAL CHARGES
-------------------------------
  0 O s       :     3.454867  s :     3.454867
      pz      :     1.683575  p :     4.841021
      px      :     1.407062
      py      :     1.750385
      dz2     :     0.004675  d :     0.028391
      dxz     :     0.006591
      dyz     :     0.005132
      dx2y2   :     0.003602
      dxy     :     0.008391
      f0      :     0.000085  f :     0.001940
      f+1     :     0.000426
      f-1     :     0.000256
      f+2     :     0.000032
      f-2     :     0.000603
      f+3     :     0.000083
      f-3     :     0.000456
  1 H s       :     0.674055  s :     0.674055
      pz      :     0.066185  p :     0.165518
      px      :     0.046308
      py      :     0.053025
  2 H s       :     0.644995  s :     0.644995
      pz      :     0.033271  p :     0.198736
      px      :     0.117762
      py      :     0.047703
  3 O s       :     3.460344  s :     3.460344
      pz      :     1.710708  p :     4.857676
      px      :     1.403759
      py      :     1.743209
      dz2     :     0.004334  d :     0.028633
      dxz     :     0.007066
      dyz     :     0.005306
      dx2y2   :     0.003729
      dxy     :     0.008198
      f0      :     0.000074  f :     0.001952
      f+1     :     0.000436
      f-1     :     0.000259
      f+2     :     0.000032
      f-2     :     0.000618
      f+3     :     0.000083
      f-3     :     0.000451
  4 H s       :     0.679411  s :     0.679411
      pz      :     0.065919  p :     0.164823
      px      :     0.046133
      py      :     0.052771
  5 H s       :     0.646772  s :     0.646772
      pz      :     0.033357  p :     0.197451
      px      :     0.116542
      py      :     0.047551
  6 O s       :     3.468161  s :     3.468161
      pz      :     1.704216  p :     4.879351
      px      :     1.779831
      py      :     1.395304
      dz2     :     0.004256  d :     0.029584
      dxz     :     0.005853
      dyz     :     0.007359
      dx2y2   :     0.003258
      dxy     :     0.008858
      f0      :     0.000074  f :     0.002005
      f+1     :     0.000266
      f-1     :     0.000438
      f+2     :     0.000034
      f-2     :     0.000637
      f+3     :     0.000471
      f-3     :     0.000084
  7 H s       :     0.690931  s :     0.690931
      pz      :     0.065509  p :     0.164360
      px      :     0.053262
      py      :     0.045589
  8 H s       :     0.651697  s :     0.651697
      pz      :     0.033390  p :     0.196147
      px      :     0.047665
      py      :     0.115092
  9 O s       :     3.463524  s :     3.463524
      pz      :     1.557192  p :     4.832803
      px      :     1.442036
      py      :     1.833575
      dz2     :     0.014076  d :     0.031099
      dxz     :     0.003678
      dyz     :     0.001609
      dx2y2   :     0.004481
      dxy     :     0.007254
      f0      :     0.000351  f :     0.002065
      f+1     :     0.000703
      f-1     :     0.000193
      f+2     :     0.000043
      f-2     :     0.000040
      f+3     :     0.000076
      f-3     :     0.000658
 10 H s       :     0.668675  s :     0.668675
      pz      :     0.094572  p :     0.172518
      px      :     0.035351
      py      :     0.042594
 11 H s       :     0.681484  s :     0.681484
      pz      :     0.030758  p :     0.153465
      px      :     0.073441
      py      :     0.049266
 12 O s       :     3.447336  s :     3.447336
      pz      :     1.543957  p :     4.822371
      px      :     1.548411
      py      :     1.730003
      dz2     :     0.014691  d :     0.030086
      dxz     :     0.001771
      dyz     :     0.001762
      dx2y2   :     0.003435
      dxy     :     0.008427
      f0      :     0.000410  f :     0.002028
      f+1     :     0.000544
      f-1     :     0.000324
      f+2     :     0.000020
      f-2     :     0.000048
      f+3     :     0.000026
      f-3     :     0.000656
 13 H s       :     0.665731  s :     0.665731
      pz      :     0.094140  p :     0.172465
      px      :     0.036765
      py      :     0.041560
 14 H s       :     0.673055  s :     0.673055
      pz      :     0.031215  p :     0.174395
      px      :     0.085259
      py      :     0.057922
 15 O s       :     3.451559  s :     3.451559
      pz      :     1.521628  p :     4.809093
      px      :     1.730742
      py      :     1.556723
      dz2     :     0.015841  d :     0.030946
      dxz     :     0.001806
      dyz     :     0.001977
      dx2y2   :     0.003349
      dxy     :     0.007975
      f0      :     0.000455  f :     0.002074
      f+1     :     0.000330
      f-1     :     0.000566
      f+2     :     0.000021
      f-2     :     0.000051
      f+3     :     0.000626
      f-3     :     0.000025
 16 H s       :     0.663900  s :     0.663900
      pz      :     0.081405  p :     0.159507
      px      :     0.041541
      py      :     0.036561
 17 H s       :     0.664377  s :     0.664377
      pz      :     0.029660  p :     0.175273
      px      :     0.058119
      py      :     0.087494
 18 O s       :     3.467426  s :     3.467426
      pz      :     1.711897  p :     4.819210
      px      :     1.743363
      py      :     1.363950
      dz2     :     0.004945  d :     0.031362
      dxz     :     0.005462
      dyz     :     0.007027
      dx2y2   :     0.004256
      dxy     :     0.009671
      f0      :     0.000078  f :     0.002069
      f+1     :     0.000273
      f-1     :     0.000456
      f+2     :     0.000033
      f-2     :     0.000610
      f+3     :     0.000529
      f-3     :     0.000089
 19 H s       :     0.672148  s :     0.672148
      pz      :     0.066369  p :     0.163523
      px      :     0.052714
      py      :     0.044440
 20 H s       :     0.657799  s :     0.657799
      pz      :     0.033142  p :     0.148727
      px      :     0.043407
      py      :     0.072178
 21 O s       :     3.451440  s :     3.451440
      pz      :     1.513233  p :     4.806755
      px      :     1.730903
      py      :     1.562619
      dz2     :     0.016225  d :     0.030982
      dxz     :     0.001824
      dyz     :     0.002127
      dx2y2   :     0.003231
      dxy     :     0.007575
      f0      :     0.000474  f :     0.002072
      f+1     :     0.000327
      f-1     :     0.000569
      f+2     :     0.000020
      f-2     :     0.000052
      f+3     :     0.000603
      f-3     :     0.000025
 22 H s       :     0.673408  s :     0.673408
      pz      :     0.080247  p :     0.159251
      px      :     0.042069
      py      :     0.036935
 23 H s       :     0.658200  s :     0.658200
      pz      :     0.029095  p :     0.176977
      px      :     0.058160
      py      :     0.089722


                      *****************************
                      * MAYER POPULATION ANALYSIS *
                      *****************************

  NA   - Mulliken gross atomic population
  ZA   - Total nuclear charge
  QA   - Mulliken gross atomic charge
  VA   - Mayer's total valence
  BVA  - Mayer's bonded valence
  FA   - Mayer's free valence

  ATOM       NA         ZA         QA         VA         BVA        FA
  0 O      8.7946     8.0000    -0.7946     1.6734     1.6734    -0.0000
  1 H      0.6362     1.0000     0.3638     0.8847     0.8847     0.0000
  2 H      0.5884     1.0000     0.4116     0.8696     0.8696    -0.0000
  3 O      8.7782     8.0000    -0.7782     1.6903     1.6903    -0.0000
  4 H      0.6487     1.0000     0.3513     0.8929     0.8929    -0.0000
  5 H      0.5906     1.0000     0.4094     0.8708     0.8708     0.0000
  6 O      8.7675     8.0000    -0.7675     1.6843     1.6843     0.0000
  7 H      0.6727     1.0000     0.3273     0.9084     0.9084    -0.0000
  8 H      0.6009     1.0000     0.3991     0.8806     0.8806     0.0000
  9 O      8.7372     8.0000    -0.7372     1.7441     1.7441     0.0000
 10 H      0.6045     1.0000     0.3955     0.8745     0.8745     0.0000
 11 H      0.6623     1.0000     0.3377     0.9048     0.9048    -0.0000
 12 O      8.7577     8.0000    -0.7577     1.7257     1.7257    -0.0000
 13 H      0.5996     1.0000     0.4004     0.8651     0.8651    -0.0000
 14 H      0.6237     1.0000     0.3763     0.8902     0.8902    -0.0000
 15 O      8.7471     8.0000    -0.7471     1.7426     1.7426    -0.0000
 16 H      0.6245     1.0000     0.3755     0.8734     0.8734     0.0000
 17 H      0.6019     1.0000     0.3981     0.8753     0.8753    -0.0000
 18 O      8.7330     8.0000    -0.7330     1.7573     1.7573     0.0000
 19 H      0.6357     1.0000     0.3643     0.8825     0.8825     0.0000
 20 H      0.6173     1.0000     0.3827     0.8682     0.8682    -0.0000
 21 O      8.7419     8.0000    -0.7419     1.7371     1.7371    -0.0000
 22 H      0.6431     1.0000     0.3569     0.8872     0.8872     0.0000
 23 H      0.5925     1.0000     0.4075     0.8747     0.8747    -0.0000

  Mayer bond orders larger than 0.100000
B(  0-O ,  1-H ) :   0.8752 B(  0-O ,  2-H ) :   0.7719 B(  3-O ,  4-H ) :   0.8848 
B(  3-O ,  5-H ) :   0.7834 B(  6-O ,  7-H ) :   0.9025 B(  6-O ,  8-H ) :   0.8016 
B(  9-O , 10-H ) :   0.8358 B(  9-O , 11-H ) :   0.8897 B( 12-O , 13-H ) :   0.8358 
B( 12-O , 14-H ) :   0.8498 B( 15-O , 16-H ) :   0.8668 B( 15-O , 17-H ) :   0.8275 
B( 18-O , 19-H ) :   0.8753 B( 18-O , 20-H ) :   0.8571 B( 21-O , 22-H ) :   0.8805 
B( 21-O , 23-H ) :   0.8067 

-------
TIMINGS
-------

Total SCF time: 0 days 0 hours 0 min 22 sec 

Total time                  ....      22.374 sec
Sum of individual times     ....      22.062 sec  ( 98.6%)

Fock matrix formation       ....      21.482 sec  ( 96.0%)
Diagonalization             ....       0.138 sec  (  0.6%)
Density matrix formation    ....       0.015 sec  (  0.1%)
Population analysis         ....       0.033 sec  (  0.1%)
Initial guess               ....       0.187 sec  (  0.8%)
Orbital Transformation      ....       0.000 sec  (  0.0%)
Orbital Orthonormalization  ....       0.000 sec  (  0.0%)
DIIS solution               ....       0.054 sec  (  0.2%)
SOSCF solution              ....       0.061 sec  (  0.3%)


           ************************************************************
           *        Program running with 6 parallel MPI-processes     *
           *              working on a common directory               *
           ************************************************************

------------------------------------------------------------------------------
                                ORCA  MP2 
------------------------------------------------------------------------------

Freezing NCore=16 chemical core electrons
MP2 will be done in the AO integral direct mode
The Q1-step will be done using symmetric double matrices
Dimension of the basis                    ...  344
Memory devoted for MP2                    ... 8000 MB   
Memory needed for all in one shot         ...  935 MB
Number of MOs that can be treated together...   50      
MP2 density construction                  ... relaxed
The MP2 gradient is requested => amplitudes will be stored on disk
Total number of MOs              ...   32
Number of MOs treated per batch  ...    6 
Number of batches necessary      ...    1 
OPERATORS   0/  0 PASS   0
-----------------------------------------------
 MP2 CORRELATION ENERGY   :     -2.070009234 Eh
-----------------------------------------------


---------------------
MP2 DENSITY FORMATION
---------------------

Completing the external part of the density      ... done
Storing the unrelaxed density                    ... done

Calculating G(D)                                 ... done
Completing the Lagrangian                        ... done
Solving the Z-vector equations                   ... 

------------------------------------------------------------------------------
                           ORCA CP-SCF CALCULATION
------------------------------------------------------------------------------

Input orbitals are from        ... 12h2o.su.etal.mol0,1,2,6,8,9,10,11-orca.engrad-mp2.def2tzvp.frozencore.gbw
Input Perturbation             ... 12h2o.su.etal.mol0,1,2,6,8,9,10,11-orca.engrad-mp2.def2tzvp.frozencore.pin.tmp
Wavefunction output            ... 12h2o.su.etal.mol0,1,2,6,8,9,10,11-orca.engrad-mp2.def2tzvp.frozencore.pout.tmp
Perturbation mode              ... Real perturbation (singlet)
Solver                         ... POPLE
Max. number of iterations      ... 128
Convergence tolerance          ... 1.000e-08
Integral handling              ... Direct
Number of perturbations        ... 1
Number of operators            ... 1
Orbital ranges used for CP-SCF:
 Operator 0:  Orbitals   0... 39  to  40...343
Variables per vector in CP-SCF ... 12160
Number of vectors sought       ... 1
     CP-SCF ITERATION   0: 
     CP-SCF ITERATION   1:      0.001032792855
     CP-SCF ITERATION   2:      0.000027792164
     CP-SCF ITERATION   3:      0.000001528622
     CP-SCF ITERATION   4:      0.000000141461
     CP-SCF ITERATION   5:      0.000000011496
     CP-SCF ITERATION   6:      0.000000000587
                                                 ... done
Finalizing the relaxed density                   ... done
Transforming P to the AO basis                   ... done
Storing the relaxed density                      ... done

------------------------------------
ENERGY WEIGHTED DENSITY FINALIZATION
------------------------------------

Gathering the parts of the W-matrix              ...                                                      done
Forming the Z-density                            ... done
Transforming Z to the AO basis                   ... done
Calculating G(Z)                                 ... done
Finalizing the W-matrix                          ...                                                      done
Transforming W to the AO basis and storing       ... done

                *********************************************
                * UNRELAXED MP2 DENSITY POPULATION ANALYSIS *
                *********************************************

------------------------------------------------------------------------------
                           ORCA POPULATION ANALYSIS
------------------------------------------------------------------------------
Input electron density              ... 12h2o.su.etal.mol0,1,2,6,8,9,10,11-orca.engrad-mp2.def2tzvp.frozencore.pmp2ur
BaseName (.gbw .S,...)              ... 12h2o.su.etal.mol0,1,2,6,8,9,10,11-orca.engrad-mp2.def2tzvp.frozencore

                    ********************************
                    * MULLIKEN POPULATION ANALYSIS *
                    ********************************

-----------------------
MULLIKEN ATOMIC CHARGES
-----------------------
   0 O :   -0.787908
   1 H :    0.361470
   2 H :    0.406572
   3 O :   -0.771812
   4 H :    0.349021
   5 H :    0.404648
   6 O :   -0.762016
   7 H :    0.324985
   8 H :    0.394448
   9 O :   -0.731486
  10 H :    0.392476
  11 H :    0.334903
  12 O :   -0.750741
  13 H :    0.397428
  14 H :    0.372920
  15 O :   -0.740384
  16 H :    0.373055
  17 H :    0.394641
  18 O :   -0.727550
  19 H :    0.362113
  20 H :    0.379870
  21 O :   -0.734914
  22 H :    0.354407
  23 H :    0.403854
Sum of atomic charges:   -0.0000000

--------------------------------
MULLIKEN REDUCED ORBITAL CHARGES
--------------------------------
  0 O s       :     3.803313  s :     3.803313
      pz      :     1.715172  p :     4.930731
      px      :     1.433282
      py      :     1.782276
      dz2     :     0.009282  d :     0.049888
      dxz     :     0.009915
      dyz     :     0.010593
      dx2y2   :     0.007875
      dxy     :     0.012223
      f0      :     0.000454  f :     0.003976
      f+1     :     0.000683
      f-1     :     0.000536
      f+2     :     0.000433
      f-2     :     0.000713
      f+3     :     0.000459
      f-3     :     0.000698
  1 H s       :     0.591725  s :     0.591725
      pz      :     0.017341  p :     0.046804
      px      :     0.014165
      py      :     0.015299
  2 H s       :     0.535998  s :     0.535998
      pz      :     0.010720  p :     0.057430
      px      :     0.032936
      py      :     0.013774
  3 O s       :     3.801246  s :     3.801246
      pz      :     1.724367  p :     4.916357
      px      :     1.426763
      py      :     1.765227
      dz2     :     0.009582  d :     0.050210
      dxz     :     0.010325
      dyz     :     0.010630
      dx2y2   :     0.007908
      dxy     :     0.011766
      f0      :     0.000459  f :     0.003998
      f+1     :     0.000699
      f-1     :     0.000539
      f+2     :     0.000431
      f-2     :     0.000720
      f+3     :     0.000457
      f-3     :     0.000692
  4 H s       :     0.603721  s :     0.603721
      pz      :     0.017758  p :     0.047258
      px      :     0.014044
      py      :     0.015455
  5 H s       :     0.537273  s :     0.537273
      pz      :     0.011247  p :     0.058080
      px      :     0.032953
      py      :     0.013880
  6 O s       :     3.803315  s :     3.803315
      pz      :     1.706661  p :     4.903927
      px      :     1.790505
      py      :     1.406760
      dz2     :     0.009551  d :     0.050746
      dxz     :     0.010894
      dyz     :     0.010159
      dx2y2   :     0.007782
      dxy     :     0.012360
      f0      :     0.000456  f :     0.004028
      f+1     :     0.000546
      f-1     :     0.000692
      f+2     :     0.000437
      f-2     :     0.000723
      f+3     :     0.000714
      f-3     :     0.000461
  7 H s       :     0.627168  s :     0.627168
      pz      :     0.017649  p :     0.047847
      px      :     0.015894
      py      :     0.014304
  8 H s       :     0.546909  s :     0.546909
      pz      :     0.011449  p :     0.058643
      px      :     0.014598
      py      :     0.032596
  9 O s       :     3.803389  s :     3.803389
      pz      :     1.582705  p :     4.873173
      px      :     1.426677
      py      :     1.863791
      dz2     :     0.015465  d :     0.050884
      dxz     :     0.007908
      dyz     :     0.008086
      dx2y2   :     0.008525
      dxy     :     0.010900
      f0      :     0.000568  f :     0.004041
      f+1     :     0.000798
      f-1     :     0.000498
      f+2     :     0.000441
      f-2     :     0.000402
      f+3     :     0.000492
      f-3     :     0.000842
 10 H s       :     0.556602  s :     0.556602
      pz      :     0.025002  p :     0.050922
      px      :     0.011840
      py      :     0.014080
 11 H s       :     0.620068  s :     0.620068
      pz      :     0.010727  p :     0.045029
      px      :     0.018112
      py      :     0.016191
 12 O s       :     3.786857  s :     3.786857
      pz      :     1.563387  p :     4.908202
      px      :     1.569556
      py      :     1.775259
      dz2     :     0.016843  d :     0.051715
      dxz     :     0.006685
      dyz     :     0.007960
      dx2y2   :     0.008061
      dxy     :     0.012166
      f0      :     0.000615  f :     0.003967
      f+1     :     0.000749
      f-1     :     0.000530
      f+2     :     0.000416
      f-2     :     0.000424
      f+3     :     0.000426
      f-3     :     0.000807
 13 H s       :     0.553404  s :     0.553404
      pz      :     0.024786  p :     0.049169
      px      :     0.011679
      py      :     0.012704
 14 H s       :     0.575752  s :     0.575752
      pz      :     0.010870  p :     0.051328
      px      :     0.023970
      py      :     0.016488
 15 O s       :     3.791204  s :     3.791204
      pz      :     1.524705  p :     4.893085
      px      :     1.777370
      py      :     1.591010
      dz2     :     0.017427  d :     0.052107
      dxz     :     0.007876
      dyz     :     0.006685
      dx2y2   :     0.008034
      dxy     :     0.012085
      f0      :     0.000630  f :     0.003987
      f+1     :     0.000531
      f-1     :     0.000756
      f+2     :     0.000415
      f-2     :     0.000424
      f+3     :     0.000806
      f-3     :     0.000425
 16 H s       :     0.582013  s :     0.582013
      pz      :     0.019496  p :     0.044932
      px      :     0.013268
      py      :     0.012168
 17 H s       :     0.554567  s :     0.554567
      pz      :     0.010225  p :     0.050792
      px      :     0.016038
      py      :     0.024529
 18 O s       :     3.804207  s :     3.804207
      pz      :     1.724745  p :     4.867943
      px      :     1.772382
      py      :     1.370816
      dz2     :     0.009704  d :     0.051341
      dxz     :     0.010936
      dyz     :     0.010179
      dx2y2   :     0.008019
      dxy     :     0.012503
      f0      :     0.000461  f :     0.004059
      f+1     :     0.000549
      f-1     :     0.000710
      f+2     :     0.000430
      f-2     :     0.000720
      f+3     :     0.000727
      f-3     :     0.000462
 19 H s       :     0.591020  s :     0.591020
      pz      :     0.017688  p :     0.046867
      px      :     0.015466
      py      :     0.013713
 20 H s       :     0.577606  s :     0.577606
      pz      :     0.011703  p :     0.042524
      px      :     0.012754
      py      :     0.018068
 21 O s       :     3.789698  s :     3.789698
      pz      :     1.508652  p :     4.889238
      px      :     1.778960
      py      :     1.601626
      dz2     :     0.017447  d :     0.051998
      dxz     :     0.007873
      dyz     :     0.006733
      dx2y2   :     0.007978
      dxy     :     0.011966
      f0      :     0.000631  f :     0.003980
      f+1     :     0.000530
      f-1     :     0.000756
      f+2     :     0.000414
      f-2     :     0.000423
      f+3     :     0.000803
      f-3     :     0.000423
 22 H s       :     0.600097  s :     0.600097
      pz      :     0.019227  p :     0.045496
      px      :     0.013718
      py      :     0.012551
 23 H s       :     0.545560  s :     0.545560
      pz      :     0.009865  p :     0.050586
      px      :     0.015684
      py      :     0.025037


                     *******************************
                     * LOEWDIN POPULATION ANALYSIS *
                     *******************************

----------------------
LOEWDIN ATOMIC CHARGES
----------------------
   0 O :   -0.322057
   1 H :    0.159127
   2 H :    0.153529
   3 O :   -0.345109
   4 H :    0.154508
   5 H :    0.153182
   6 O :   -0.376788
   7 H :    0.143376
   8 H :    0.149586
   9 O :   -0.325737
  10 H :    0.156781
  11 H :    0.163146
  12 O :   -0.297718
  13 H :    0.159867
  14 H :    0.150353
  15 O :   -0.289524
  16 H :    0.175215
  17 H :    0.158142
  18 O :   -0.316338
  19 H :    0.163219
  20 H :    0.191793
  21 O :   -0.286991
  22 H :    0.165833
  23 H :    0.162606

-------------------------------
LOEWDIN REDUCED ORBITAL CHARGES
-------------------------------
  0 O s       :     3.451236  s :     3.451236
      pz      :     1.671995  p :     4.808618
      px      :     1.398458
      py      :     1.738165
      dz2     :     0.010488  d :     0.057467
      dxz     :     0.012338
      dyz     :     0.011017
      dx2y2   :     0.009369
      dxy     :     0.014254
      f0      :     0.000470  f :     0.004736
      f+1     :     0.000843
      f-1     :     0.000644
      f+2     :     0.000411
      f-2     :     0.001015
      f+3     :     0.000474
      f-3     :     0.000878
  1 H s       :     0.672274  s :     0.672274
      pz      :     0.067389  p :     0.168598
      px      :     0.047221
      py      :     0.053988
  2 H s       :     0.645399  s :     0.645399
      pz      :     0.034093  p :     0.201072
      px      :     0.118434
      py      :     0.048545
  3 O s       :     3.456687  s :     3.456687
      pz      :     1.700139  p :     4.826486
      px      :     1.395337
      py      :     1.731010
      dz2     :     0.009960  d :     0.057205
      dxz     :     0.012698
      dyz     :     0.011072
      dx2y2   :     0.009450
      dxy     :     0.014025
      f0      :     0.000454  f :     0.004731
      f+1     :     0.000850
      f-1     :     0.000644
      f+2     :     0.000410
      f-2     :     0.001028
      f+3     :     0.000474
      f-3     :     0.000872
  4 H s       :     0.677507  s :     0.677507
      pz      :     0.067174  p :     0.167985
      px      :     0.047073
      py      :     0.053738
  5 H s       :     0.647022  s :     0.647022
      pz      :     0.034178  p :     0.199796
      px      :     0.117238
      py      :     0.048380
  6 O s       :     3.464535  s :     3.464535
      pz      :     1.693847  p :     4.849775
      px      :     1.768910
      py      :     1.387017
      dz2     :     0.009808  d :     0.057711
      dxz     :     0.011510
      dyz     :     0.012952
      dx2y2   :     0.008869
      dxy     :     0.014572
      f0      :     0.000452  f :     0.004768
      f+1     :     0.000648
      f-1     :     0.000851
      f+2     :     0.000410
      f-2     :     0.001046
      f+3     :     0.000890
      f-3     :     0.000471
  7 H s       :     0.688877  s :     0.688877
      pz      :     0.066854  p :     0.167747
      px      :     0.054301
      py      :     0.046592
  8 H s       :     0.651861  s :     0.651861
      pz      :     0.034222  p :     0.198553
      px      :     0.048524
      py      :     0.115807
  9 O s       :     3.459745  s :     3.459745
      pz      :     1.546652  p :     4.801758
      px      :     1.433004
      py      :     1.822103
      dz2     :     0.020047  d :     0.059405
      dxz     :     0.009138
      dyz     :     0.007166
      dx2y2   :     0.010118
      dxy     :     0.012935
      f0      :     0.000769  f :     0.004829
      f+1     :     0.001140
      f-1     :     0.000584
      f+2     :     0.000414
      f-2     :     0.000412
      f+3     :     0.000448
      f-3     :     0.001063
 10 H s       :     0.667938  s :     0.667938
      pz      :     0.095836  p :     0.175281
      px      :     0.036075
      py      :     0.043370
 11 H s       :     0.679989  s :     0.679989
      pz      :     0.031628  p :     0.156865
      px      :     0.074967
      py      :     0.050270
 12 O s       :     3.443617  s :     3.443617
      pz      :     1.534276  p :     4.790475
      px      :     1.538706
      py      :     1.717493
      dz2     :     0.020643  d :     0.058788
      dxz     :     0.007239
      dyz     :     0.007345
      dx2y2   :     0.009131
      dxy     :     0.014429
      f0      :     0.000837  f :     0.004838
      f+1     :     0.000971
      f-1     :     0.000727
      f+2     :     0.000390
      f-2     :     0.000425
      f+3     :     0.000408
      f-3     :     0.001081
 13 H s       :     0.664897  s :     0.664897
      pz      :     0.095378  p :     0.175236
      px      :     0.037514
      py      :     0.042345
 14 H s       :     0.672323  s :     0.672323
      pz      :     0.031992  p :     0.177325
      px      :     0.086461
      py      :     0.058871
 15 O s       :     3.447787  s :     3.447787
      pz      :     1.512189  p :     4.777489
      px      :     1.718192
      py      :     1.547108
      dz2     :     0.021681  d :     0.059377
      dxz     :     0.007328
      dyz     :     0.007377
      dx2y2   :     0.009026
      dxy     :     0.013964
      f0      :     0.000877  f :     0.004870
      f+1     :     0.000729
      f-1     :     0.000989
      f+2     :     0.000389
      f-2     :     0.000426
      f+3     :     0.001051
      f-3     :     0.000408
 16 H s       :     0.662298  s :     0.662298
      pz      :     0.082846  p :     0.162487
      px      :     0.042323
      py      :     0.037318
 17 H s       :     0.663858  s :     0.663858
      pz      :     0.030396  p :     0.177999
      px      :     0.059000
      py      :     0.088604
 18 O s       :     3.463659  s :     3.463659
      pz      :     1.701312  p :     4.788592
      px      :     1.731379
      py      :     1.355901
      dz2     :     0.010465  d :     0.059272
      dxz     :     0.011144
      dyz     :     0.012533
      dx2y2   :     0.009804
      dxy     :     0.015326
      f0      :     0.000455  f :     0.004816
      f+1     :     0.000657
      f-1     :     0.000864
      f+2     :     0.000408
      f-2     :     0.001017
      f+3     :     0.000942
      f-3     :     0.000473
 19 H s       :     0.670284  s :     0.670284
      pz      :     0.067553  p :     0.166498
      px      :     0.053685
      py      :     0.045259
 20 H s       :     0.656543  s :     0.656543
      pz      :     0.033953  p :     0.151664
      px      :     0.044369
      py      :     0.073343
 21 O s       :     3.447660  s :     3.447660
      pz      :     1.503774  p :     4.775033
      px      :     1.718265
      py      :     1.552995
      dz2     :     0.022063  d :     0.059431
      dxz     :     0.007355
      dyz     :     0.007527
      dx2y2   :     0.008913
      dxy     :     0.013572
      f0      :     0.000896  f :     0.004868
      f+1     :     0.000726
      f-1     :     0.000992
      f+2     :     0.000389
      f-2     :     0.000427
      f+3     :     0.001029
      f-3     :     0.000408
 22 H s       :     0.671734  s :     0.671734
      pz      :     0.081837  p :     0.162434
      px      :     0.042873
      py      :     0.037724
 23 H s       :     0.657852  s :     0.657852
      pz      :     0.029803  p :     0.179542
      px      :     0.058986
      py      :     0.090753


                      *****************************
                      * MAYER POPULATION ANALYSIS *
                      *****************************

  NA   - Mulliken gross atomic population
[...]
      f+2     :     0.000429
      f-2     :     0.000699
      f+3     :     0.000706
      f-3     :     0.000460
 19 H s       :     0.596760  s :     0.596760
      pz      :     0.017771  p :     0.047546
      px      :     0.016126
      py      :     0.013648
 20 H s       :     0.584339  s :     0.584339
      pz      :     0.012524  p :     0.043049
      px      :     0.013432
      py      :     0.017093
 21 O s       :     3.788089  s :     3.788089
      pz      :     1.503414  p :     4.863138
      px      :     1.759455
      py      :     1.600269
      dz2     :     0.016144  d :     0.050098
      dxz     :     0.007860
      dyz     :     0.006685
      dx2y2   :     0.007954
      dxy     :     0.011454
      f0      :     0.000613  f :     0.003907
      f+1     :     0.000521
      f-1     :     0.000734
      f+2     :     0.000415
      f-2     :     0.000422
      f+3     :     0.000780
      f-3     :     0.000422
 22 H s       :     0.604831  s :     0.604831
      pz      :     0.018464  p :     0.046163
      px      :     0.014585
      py      :     0.013113
 23 H s       :     0.565317  s :     0.565317
      pz      :     0.010412  p :     0.050945
      px      :     0.015947
      py      :     0.024586


                     *******************************
                     * LOEWDIN POPULATION ANALYSIS *
                     *******************************

----------------------
LOEWDIN ATOMIC CHARGES
----------------------
   0 O :   -0.314779
   1 H :    0.160964
   2 H :    0.145466
   3 O :   -0.341077
   4 H :    0.156501
   5 H :    0.145439
   6 O :   -0.379201
   7 H :    0.145240
   8 H :    0.141696
   9 O :   -0.323563
  10 H :    0.152237
  11 H :    0.164101
  12 O :   -0.290270
  13 H :    0.156322
  14 H :    0.146120
  15 O :   -0.282950
  16 H :    0.176786
  17 H :    0.153005
  18 O :   -0.314097
  19 H :    0.165070
  20 H :    0.192873
  21 O :   -0.280119
  22 H :    0.167527
  23 H :    0.156708

-------------------------------
LOEWDIN REDUCED ORBITAL CHARGES
-------------------------------
  0 O s       :     3.452683  s :     3.452683
      pz      :     1.666869  p :     4.800252
      px      :     1.402441
      py      :     1.730942
      dz2     :     0.010581  d :     0.057067
      dxz     :     0.012014
      dyz     :     0.010979
      dx2y2   :     0.009425
      dxy     :     0.014068
      f0      :     0.000474  f :     0.004776
      f+1     :     0.000854
      f-1     :     0.000645
      f+2     :     0.000412
      f-2     :     0.001018
      f+3     :     0.000479
      f-3     :     0.000894
  1 H s       :     0.670563  s :     0.670563
      pz      :     0.067307  p :     0.168473
      px      :     0.046822
      py      :     0.054343
  2 H s       :     0.653167  s :     0.653167
      pz      :     0.034623  p :     0.201367
      px      :     0.117797
      py      :     0.048947
  3 O s       :     3.457940  s :     3.457940
      pz      :     1.699763  p :     4.821757
      px      :     1.399430
      py      :     1.722564
      dz2     :     0.009939  d :     0.056612
      dxz     :     0.012349
      dyz     :     0.011008
      dx2y2   :     0.009474
      dxy     :     0.013842
      f0      :     0.000456  f :     0.004768
      f+1     :     0.000861
      f-1     :     0.000644
      f+2     :     0.000410
      f-2     :     0.001030
      f+3     :     0.000479
      f-3     :     0.000888
  4 H s       :     0.675547  s :     0.675547
      pz      :     0.067223  p :     0.167952
      px      :     0.046726
      py      :     0.054002
  5 H s       :     0.654549  s :     0.654549
      pz      :     0.034823  p :     0.200012
      px      :     0.116460
      py      :     0.048728
  6 O s       :     3.466172  s :     3.466172
      pz      :     1.693536  p :     4.851292
      px      :     1.767248
      py      :     1.390508
      dz2     :     0.009767  d :     0.056930
      dxz     :     0.011414
      dyz     :     0.012570
      dx2y2   :     0.008863
      dxy     :     0.014317
      f0      :     0.000454  f :     0.004806
      f+1     :     0.000648
      f-1     :     0.000863
      f+2     :     0.000411
      f-2     :     0.001047
      f+3     :     0.000907
      f-3     :     0.000476
  7 H s       :     0.686648  s :     0.686648
      pz      :     0.067011  p :     0.168112
      px      :     0.054866
      py      :     0.046236
  8 H s       :     0.659636  s :     0.659636
      pz      :     0.034920  p :     0.198668
      px      :     0.049069
      py      :     0.114679
  9 O s       :     3.460880  s :     3.460880
      pz      :     1.544384  p :     4.799479
      px      :     1.435510
      py      :     1.819585
      dz2     :     0.019655  d :     0.058352
      dxz     :     0.008937
      dyz     :     0.007241
      dx2y2   :     0.009899
      dxy     :     0.012620
      f0      :     0.000773  f :     0.004851
      f+1     :     0.001149
      f-1     :     0.000584
      f+2     :     0.000416
      f-2     :     0.000410
      f+3     :     0.000451
      f-3     :     0.001069
 10 H s       :     0.672216  s :     0.672216
      pz      :     0.095237  p :     0.175548
      px      :     0.036008
      py      :     0.044303
 11 H s       :     0.678621  s :     0.678621
      pz      :     0.032207  p :     0.157278
      px      :     0.074035
      py      :     0.051036
 12 O s       :     3.443949  s :     3.443949
      pz      :     1.535862  p :     4.783246
      px      :     1.539997
      py      :     1.707387
      dz2     :     0.020210  d :     0.058210
      dxz     :     0.007140
      dyz     :     0.007386
      dx2y2   :     0.009227
      dxy     :     0.014246
      f0      :     0.000840  f :     0.004864
      f+1     :     0.000978
      f-1     :     0.000729
      f+2     :     0.000391
      f-2     :     0.000425
      f+3     :     0.000410
      f-3     :     0.001092
 13 H s       :     0.668254  s :     0.668254
      pz      :     0.094555  p :     0.175424
      px      :     0.037933
      py      :     0.042936
 14 H s       :     0.675897  s :     0.675897
      pz      :     0.032508  p :     0.177984
      px      :     0.086154
      py      :     0.059321
 15 O s       :     3.448451  s :     3.448451
      pz      :     1.514365  p :     4.771001
      px      :     1.707547
      py      :     1.549089
      dz2     :     0.021061  d :     0.058606
      dxz     :     0.007356
      dyz     :     0.007253
      dx2y2   :     0.009118
      dxy     :     0.013818
      f0      :     0.000876  f :     0.004892
      f+1     :     0.000730
      f-1     :     0.000997
      f+2     :     0.000391
      f-2     :     0.000426
      f+3     :     0.001063
      f-3     :     0.000410
 16 H s       :     0.660914  s :     0.660914
      pz      :     0.081864  p :     0.162301
      px      :     0.042854
      py      :     0.037583
 17 H s       :     0.668597  s :     0.668597
      pz      :     0.030768  p :     0.178398
      px      :     0.059373
      py      :     0.088257
 18 O s       :     3.465242  s :     3.465242
      pz      :     1.700616  p :     4.785944
      px      :     1.724236
      py      :     1.361093
      dz2     :     0.010306  d :     0.058077
      dxz     :     0.011104
      dyz     :     0.012155
      dx2y2   :     0.009604
      dxy     :     0.014909
      f0      :     0.000458  f :     0.004833
      f+1     :     0.000657
      f-1     :     0.000870
      f+2     :     0.000408
      f-2     :     0.001017
      f+3     :     0.000948
      f-3     :     0.000476
 19 H s       :     0.668654  s :     0.668654
      pz      :     0.067568  p :     0.166276
      px      :     0.054172
      py      :     0.044536
 20 H s       :     0.655631  s :     0.655631
      pz      :     0.034645  p :     0.151496
      px      :     0.045011
      py      :     0.071841
 21 O s       :     3.448415  s :     3.448415
      pz      :     1.505971  p :     4.768146
      px      :     1.707148
      py      :     1.555028
      dz2     :     0.021410  d :     0.058668
      dxz     :     0.007387
      dyz     :     0.007398
      dx2y2   :     0.009010
      dxy     :     0.013464
      f0      :     0.000895  f :     0.004889
      f+1     :     0.000727
      f-1     :     0.001000
      f+2     :     0.000390
      f-2     :     0.000427
      f+3     :     0.001040
      f-3     :     0.000410
 22 H s       :     0.669889  s :     0.669889
      pz      :     0.081041  p :     0.162583
      px      :     0.043478
      py      :     0.038064
 23 H s       :     0.663388  s :     0.663388
      pz      :     0.030107  p :     0.179904
      px      :     0.059269
      py      :     0.090528


                      *****************************
                      * MAYER POPULATION ANALYSIS *
                      *****************************

  NA   - Mulliken gross atomic population
  ZA   - Total nuclear charge
  QA   - Mulliken gross atomic charge
  VA   - Mayer's total valence
  BVA  - Mayer's bonded valence
  FA   - Mayer's free valence

  ATOM       NA         ZA         QA         VA         BVA        FA
  0 O      8.7570     8.0000    -0.7570     2.0344     1.6439     0.3905
  1 H      0.6457     1.0000     0.3543     0.8957     0.8498     0.0459
  2 H      0.6182     1.0000     0.3818     0.9072     0.8626     0.0447
  3 O      8.7441     8.0000    -0.7441     2.0347     1.6460     0.3888
  4 H      0.6572     1.0000     0.3428     0.9028     0.8562     0.0467
  5 H      0.6190     1.0000     0.3810     0.9073     0.8630     0.0444
  6 O      8.7431     8.0000    -0.7431     2.0054     1.6176     0.3878
  7 H      0.6809     1.0000     0.3191     0.9180     0.8694     0.0486
  8 H      0.6302     1.0000     0.3698     0.9190     0.8742     0.0448
  9 O      8.7082     8.0000    -0.7082     2.0835     1.6969     0.3866
 10 H      0.6244     1.0000     0.3756     0.9033     0.8601     0.0432
 11 H      0.6733     1.0000     0.3267     0.9200     0.8701     0.0499
 12 O      8.7188     8.0000    -0.7188     2.0801     1.6960     0.3841
 13 H      0.6162     1.0000     0.3838     0.8889     0.8458     0.0431
 14 H      0.6434     1.0000     0.3566     0.9193     0.8741     0.0452
 15 O      8.7122     8.0000    -0.7122     2.0887     1.7057     0.3830
 16 H      0.6330     1.0000     0.3670     0.8838     0.8385     0.0453
 17 H      0.6232     1.0000     0.3768     0.9074     0.8640     0.0434
 18 O      8.7077     8.0000    -0.7077     2.0912     1.7069     0.3843
 19 H      0.6443     1.0000     0.3557     0.8928     0.8477     0.0451
 20 H      0.6274     1.0000     0.3726     0.8814     0.8349     0.0465
 21 O      8.7052     8.0000    -0.7052     2.0824     1.6992     0.3832
 22 H      0.6510     1.0000     0.3490     0.8968     0.8498     0.0471
 23 H      0.6163     1.0000     0.3837     0.9098     0.8673     0.0425

  Mayer bond orders larger than 0.100000
B(  0-O ,  1-H ) :   0.8385 B(  0-O ,  2-H ) :   0.7339 B(  2-H , 21-O ) :   0.1136 
B(  3-O ,  4-H ) :   0.8474 B(  3-O ,  5-H ) :   0.7478 B(  5-H , 15-O ) :   0.1091 
B(  6-O ,  7-H ) :   0.8636 B(  6-O ,  8-H ) :   0.7682 B(  8-H , 12-O ) :   0.1043 
B(  9-O , 10-H ) :   0.8038 B(  9-O , 11-H ) :   0.8493 B( 12-O , 13-H ) :   0.8036 
B( 12-O , 14-H ) :   0.8144 B( 15-O , 16-H ) :   0.8308 B( 15-O , 17-H ) :   0.7936 
B( 18-O , 19-H ) :   0.8400 B( 18-O , 20-H ) :   0.8208 B( 21-O , 22-H ) :   0.8426 
B( 21-O , 23-H ) :   0.7733 


----------------------------------
MP2 DERIVATIVE INTEGRAL GENERATION
----------------------------------


Input Wavefunction Amplitudes       ... 12h2o.su.etal.mol0,1,2,6,8,9,10,11-orca.engrad-mp2.def2tzvp.frozencore.mp2tsaa.tmp
Input Correlated Electron Density   ... 12h2o.su.etal.mol0,1,2,6,8,9,10,11-orca.engrad-mp2.def2tzvp.frozencore.pmp2re
Input Energy Weighted Density       ... 12h2o.su.etal.mol0,1,2,6,8,9,10,11-orca.engrad-mp2.def2tzvp.frozencore.wmp2.tmp
Input SCF Electron Density          ... 12h2o.su.etal.mol0,1,2,6,8,9,10,11-orca.engrad-mp2.def2tzvp.frozencore.scfp

One-Electron Terms    ...
                        ... One-Electron Terms done
Prescreening matrices              ... done

Batch handling in the gradient evaluation:
Memory available                      ... 8000.0 MB
Memory per occupied orbital in Q2     ...   28.9 MB
Memory per occupied orbital in Q3     ...    0.1 MB
Total memory requirement per |i>      ...   29.0 MB
Max. Number of orbitals possible      ...    275
Number of orbitals treated per batch  ...     32
Number of batches to be done          ...      1
Batch   0: i=    8 ...    39

---------------------------------------
MP2 TOTAL ENERGY:     -610.585581157 Eh
---------------------------------------

The final MP2 gradient
  0:   0.00350685   0.00040528  -0.00009054
  1:  -0.00043831  -0.00080845  -0.00138304
  2:  -0.00519081   0.00080159  -0.00249492
  3:  -0.00733932  -0.00526177  -0.00204507
  4:  -0.00044266   0.00068128   0.00009912
  5:   0.00946696  -0.00019628   0.00003808
  6:  -0.00042803  -0.00675595   0.00098171
  7:  -0.00031844  -0.00220453  -0.00050789
  8:   0.00319617   0.01380769  -0.00044755
  9:   0.01653790  -0.01092124   0.00000031
 10:   0.00195495   0.00227548   0.00007003
 11:  -0.01746451   0.00885985   0.00142878
 12:   0.00087710  -0.00736221   0.00042182
 13:  -0.00005399   0.00197194  -0.00036506
 14:  -0.00378776   0.00037060  -0.00070016
 15:  -0.00202185   0.00145807   0.00808386
 16:  -0.00045785  -0.00088656  -0.00615505
 17:  -0.00254290  -0.00126919   0.00092898
 18:   0.00679277   0.02654813  -0.00071566
 19:   0.00209973   0.00101846   0.00160942
 20:  -0.00886635  -0.02567438  -0.00125351
 21:  -0.00226401  -0.00454512   0.01070198
 22:   0.00241267   0.00050099  -0.00867168
 23:   0.00477167   0.00718632   0.00046604

-----------------------------------
NORM OF THE MP2 GRADIENT:  0.057045
-----------------------------------

-------------------------   --------------------
FINAL SINGLE POINT ENERGY      -610.585581157209
-------------------------   --------------------


                            ***************************************
                            *     ORCA property calculations      *
                            ***************************************

                                    ---------------------
                                    Active property flags
                                    ---------------------
   (+) Dipole Moment


------------------------------------------------------------------------------
                       ORCA ELECTRIC PROPERTIES CALCULATION
------------------------------------------------------------------------------

Dipole Moment Calculation                       ... on
Quadrupole Moment Calculation                   ... off
Polarizability Calculation                      ... off
GBWName                                         ... 12h2o.su.etal.mol0,1,2,6,8,9,10,11-orca.engrad-mp2.def2tzvp.frozencore.gbw
Electron density file                           ... 12h2o.su.etal.mol0,1,2,6,8,9,10,11-orca.engrad-mp2.def2tzvp.frozencore.scfp
The origin for moment calculation is the CENTER OF MASS  = ( 0.809946,  0.400525  0.673091)

-------------
DIPOLE MOMENT
-------------
                                X             Y             Z
Electronic contribution:      0.07095       0.17469       0.36577
Nuclear contribution   :     -0.90936       1.01960       0.08817
                        -----------------------------------------
Total Dipole Moment    :     -0.83841       1.19429       0.45394
                        -----------------------------------------
Magnitude (a.u.)       :      1.52818
Magnitude (Debye)      :      3.88432



--------------------
Rotational spectrum 
--------------------
 
Rotational constants in cm-1:     0.032874     0.013532     0.013015 
Rotational constants in MHz :   985.539462   405.680987   390.177503 

 Dipole components along the rotational axes: 
x,y,z [a.u.] :     0.487952     1.419187     0.288340 
x,y,z [Debye]:     1.240275     3.607286     0.732902 

 

                         *** MP2 UNRELAXED DENSITY ***

------------------------------------------------------------------------------
                       ORCA ELECTRIC PROPERTIES CALCULATION
------------------------------------------------------------------------------

Dipole Moment Calculation                       ... on
Quadrupole Moment Calculation                   ... off
Polarizability Calculation                      ... off
GBWName                                         ... 12h2o.su.etal.mol0,1,2,6,8,9,10,11-orca.engrad-mp2.def2tzvp.frozencore.gbw
Electron density file                           ... 12h2o.su.etal.mol0,1,2,6,8,9,10,11-orca.engrad-mp2.def2tzvp.frozencore.pmp2ur
The origin for moment calculation is the CENTER OF MASS  = ( 0.809946,  0.400525  0.673091)

-------------
DIPOLE MOMENT
-------------
                                X             Y             Z
Electronic contribution:      0.07921       0.16677       0.36862
Nuclear contribution   :     -0.90936       1.01960       0.08817
                        -----------------------------------------
Total Dipole Moment    :     -0.83015       1.18637       0.45679
                        -----------------------------------------
Magnitude (a.u.)       :      1.51832
Magnitude (Debye)      :      3.85925



--------------------
Rotational spectrum 
--------------------
 
Rotational constants in cm-1:     0.032874     0.013532     0.013015 
Rotational constants in MHz :   985.539462   405.680987   390.177503 

 Dipole components along the rotational axes: 
x,y,z [a.u.] :     0.490121     1.408887     0.283022 
x,y,z [Debye]:     1.245788     3.581106     0.719386 

 

                           *** MP2 RELAXED DENSITY ***

------------------------------------------------------------------------------
                       ORCA ELECTRIC PROPERTIES CALCULATION
------------------------------------------------------------------------------

Dipole Moment Calculation                       ... on
Quadrupole Moment Calculation                   ... off
Polarizability Calculation                      ... off
GBWName                                         ... 12h2o.su.etal.mol0,1,2,6,8,9,10,11-orca.engrad-mp2.def2tzvp.frozencore.gbw
Electron density file                           ... 12h2o.su.etal.mol0,1,2,6,8,9,10,11-orca.engrad-mp2.def2tzvp.frozencore.pmp2re
The origin for moment calculation is the CENTER OF MASS  = ( 0.809946,  0.400525  0.673091)

-------------
DIPOLE MOMENT
-------------
                                X             Y             Z
Electronic contribution:      0.07095       0.15944       0.37798
Nuclear contribution   :     -0.90936       1.01960       0.08817
                        -----------------------------------------
Total Dipole Moment    :     -0.83841       1.17904       0.46615
                        -----------------------------------------
Magnitude (a.u.)       :      1.51999
Magnitude (Debye)      :      3.86351



--------------------
Rotational spectrum 
--------------------
 
Rotational constants in cm-1:     0.032874     0.013532     0.013015 
Rotational constants in MHz :   985.539462   405.680987   390.177503 

 Dipole components along the rotational axes: 
x,y,z [a.u.] :     0.501025     1.405071     0.291748 
x,y,z [Debye]:     1.273504     3.571407     0.741564 

 

Timings for individual modules:

Sum of individual times         ...      160.398 sec (=   2.673 min)
GTO integral calculation        ...        0.983 sec (=   0.016 min)   0.6 %
SCF iterations                  ...       23.032 sec (=   0.384 min)  14.4 %
MP2 module                      ...      136.384 sec (=   2.273 min)  85.0 %
                             ****ORCA TERMINATED NORMALLY****
TOTAL RUN TIME: 0 days 0 hours 2 minutes 41 seconds 345 msec
