49
Energy:   -883.41710853
O   -2.41462671  -1.41457071  -3.44059255
H   -3.08844352  -1.83638143  -3.97377026
H   -2.04010759  -2.12557961  -2.92056021
O   -2.11608820  -0.96824400   2.68930553
H   -1.35212814  -0.89923960   3.26187454
H   -2.82842121  -1.23446686   3.27063067
O   -0.20571017   1.45080243  -2.16810067
H   -0.03410447   1.00694532  -2.99862714
H   -1.15296374   1.38060284  -2.04971765
O    3.58869040   2.28507494   1.31880142
H    4.23043523   2.98515283   1.43832702
H    3.00710464   2.60761189   0.63035406
O    0.29585753  -0.67748217   4.01996850
H    0.64545594   0.12675575   3.63628352
H    0.55150480  -0.63464546   4.94140289
O   -2.84838359   0.71771390  -1.72464666
H   -2.78520400  -0.05002069  -2.29282250
H   -3.64457294   1.16437277  -2.01241431
O   -0.47803748   3.31483710   1.54480767
H   -1.04552309   4.03086018   1.83029475
H   -1.08177311   2.61714649   1.28992936
O   -1.67100299   0.97723377   0.77503480
H   -2.23018128   0.83343335   0.01157365
H   -1.99619452   0.35996254   1.43036567
O   -0.03025654  -0.27882787  -4.31587393
H    0.09943928  -0.26991983  -5.26420482
H   -0.89238427  -0.67685621  -4.19528760
O   -1.17289698  -3.31173361  -1.89893067
H   -1.16850823  -3.04008322  -0.98109700
H   -1.15860794  -4.26826629  -1.86617528
O    1.50920208  -2.00347898   1.89258672
H    1.26707971  -1.68440363   2.76195403
H    2.39014564  -1.65851352   1.74709059
O    1.45116194   2.73852996  -0.35939650
H    0.97907435   2.58646875  -1.17807992
H    0.80890915   3.15707959   0.21380452
O   -0.86323720  -2.26750964   0.58975306
H   -1.45197960  -1.96506471   1.28123068
H   -0.04750662  -2.47804660   1.04416439
O    1.01886641  -1.60878057  -2.12144623
H    0.41212277  -2.34873685  -2.09780941
H    0.86164817  -1.19655574  -2.97090780
O    1.23522941   1.38332355   2.51370350
H    0.65936556   2.13324095   2.36458424
H    2.11523737   1.71870359   2.34241991
O    3.49756659  -0.39920885   0.72537864
H    3.74205638   0.49411029   0.96711715
H    4.26168366  -0.73957092   0.26007162
K    0.83039691   0.00028848   0.01761165
