
                                 *****************
                                 * O   R   C   A *
                                 *****************

           --- An Ab Initio, DFT and Semiempirical electronic structure package ---

                  #######################################################
                  #                        -***-                        #
                  #          Department of theory and spectroscopy      #
                  #               Directorship: Frank Neese             #
                  #        Max Planck Institute fuer Kohlenforschung    #
                  #                Kaiser Wilhelm Platz 1               #
                  #                 D-45470 Muelheim/Ruhr               #
                  #                      Germany                        #
                  #                                                     #
                  #                  All rights reserved                #
                  #                        -***-                        #
                  #######################################################


                         Program Version 4.2.0 -  RELEASE  -


 With contributions from (in alphabetic order):
   Daniel Aravena         : Magnetic Suceptibility
   Michael Atanasov       : Ab Initio Ligand Field Theory (pilot matlab implementation)
   Alexander A. Auer      : GIAO ZORA, VPT2
   Ute Becker             : Parallelization
   Giovanni Bistoni       : ED, misc. LED, open-shell LED, HFLED
   Martin Brehm           : Molecular dynamics
   Dmytro Bykov           : SCF Hessian
   Vijay G. Chilkuri      : MRCI spin determinant printing, contributions to CSF-ICE
   Dipayan Datta          : RHF DLPNO-CCSD density
   Achintya Kumar Dutta   : EOM-CC, STEOM-CC
   Dmitry Ganyushin       : Spin-Orbit,Spin-Spin,Magnetic field MRCI
   Miquel Garcia          : C-PCM Hessian, Gaussian charge scheme
   Yang Guo               : DLPNO-NEVPT2, CIM, IAO-localization
   Andreas Hansen         : Spin unrestricted coupled pair/coupled cluster methods
   Benjamin Helmich-Paris : CASSCF linear response (MC-RPA)
   Lee Huntington         : MR-EOM, pCC
   Robert Izsak           : Overlap fitted RIJCOSX, COSX-SCS-MP3, EOM
   Christian Kollmar      : KDIIS, OOCD, Brueckner-CCSD(T), CCSD density
   Simone Kossmann        : Meta GGA functionals, TD-DFT gradient, OOMP2, MP2 Hessian
   Martin Krupicka        : AUTO-CI
   Lucas Lang             : DCDCAS
   Dagmar Lenk            : GEPOL surface, SMD
   Dimitrios Liakos       : Extrapolation schemes; Compound Job, initial MDCI parallelization
   Dimitrios Manganas     : Further ROCIS development; embedding schemes
   Dimitrios Pantazis     : SARC Basis sets
   Taras Petrenko         : DFT Hessian,TD-DFT gradient, ASA, ECA, R-Raman, ABS, FL, XAS/XES, NRVS
   Peter Pinski           : DLPNO-MP2, DLPNO-MP2 Gradient
   Christoph Reimann      : Effective Core Potentials
   Marius Retegan         : Local ZFS, SOC
   Christoph Riplinger    : Optimizer, TS searches, QM/MM, DLPNO-CCSD(T), (RO)-DLPNO pert. Triples
   Tobias Risthaus        : Range-separated hybrids, TD-DFT gradient, RPA, STAB
   Michael Roemelt        : Original ROCIS implementation
   Masaaki Saitow         : Open-shell DLPNO-CCSD energy and density
   Barbara Sandhoefer     : DKH picture change effects
   Avijit Sen             : IP-ROCIS
   Kantharuban Sivalingam : CASSCF convergence, NEVPT2, FIC-MRCI
   Bernardo de Souza      : ESD, SOC TD-DFT
   Georgi Stoychev        : AutoAux, RI-MP2 NMR
   Willem Van den Heuvel  : Paramagnetic NMR
   Boris Wezisla          : Elementary symmetry handling
   Frank Wennmohs         : Technical directorship


 We gratefully acknowledge several colleagues who have allowed us to
 interface, adapt or use parts of their codes:
   Stefan Grimme, W. Hujo, H. Kruse,             : VdW corrections, initial TS optimization,
                  C. Bannwarth                     DFT functionals, gCP, sTDA/sTD-DF
   Ed Valeev, F. Pavosevic, A. Kumar             : LibInt (2-el integral package), F12 methods
   Garnet Chan, S. Sharma, J. Yang, R. Olivares  : DMRG
   Ulf Ekstrom                                   : XCFun DFT Library
   Mihaly Kallay                                 : mrcc  (arbitrary order and MRCC methods)
   Andreas Klamt, Michael Diedenhofen            : otool_cosmo (COSMO solvation model)
   Jiri Pittner, Ondrej Demel                    : Mk-CCSD
   Frank Weinhold                                : gennbo (NPA and NBO analysis)
   Christopher J. Cramer and Donald G. Truhlar   : smd solvation model
   Lars Goerigk                                  : TD-DFT with DH, B97 family of functionals
   V. Asgeirsson, H. Jonsson                     : NEB implementation
   FAccTs GmbH                                   : IRC, NEB, NEB-TS, Multilevel, MM, QM/MM, CI optimization
   S Lehtola, MJT Oliveira, MAL Marques          : LibXC Library


 Your calculation uses the libint2 library for the computation of 2-el integrals
 For citations please refer to: http://libint.valeyev.net

 Your ORCA version has been built with support for libXC version: 4.2.3
 For citations please refer to: https://tddft.org/programs/libxc/

 This ORCA versions uses:
   CBLAS   interface :  Fast vector & matrix operations
   LAPACKE interface :  Fast linear algebra routines
   SCALAPACK package :  Parallel linear algebra routines


----- Orbital basis set information -----
Your calculation utilizes the basis: def2-TZVP
   F. Weigend and R. Ahlrichs, Phys. Chem. Chem. Phys. 7, 3297 (2005).

================================================================================
                                        WARNINGS
                       Please study these warnings very carefully!
================================================================================


WARNING: The frozen-core approximation for MP2-gradient calculations is turned on by default.

INFO   : the flag for use of LIBINT has been found!

================================================================================
                                       INPUT FILE
================================================================================
NAME = 12mecn.remya.etal.2.mol0,2,7-orca.engrad-mp2.def2tzvp.frozencore.inp
|  1> # 12mecn.remya.etal.2.mol0,2,7
|  2> ! MP2 def2-TZVP EnGrad TightSCF
|  3> 
|  4> %pal
|  5>     nprocs 6
|  6> end
|  7> 
|  8> %maxcore 8000
|  9> 
| 10> %scf
| 11>     ConvForced true
| 12> end
| 13> 
| 14> *xyz 0 1
| 15> C  -0.869520000  -3.929380000   1.700199000
| 16> H  -0.057420000  -3.268850000   2.015352000
| 17> H  -0.697530000  -4.930670000   2.101524000
| 18> H  -1.821490000  -3.546590000   2.077146000
| 19> C  -0.916080000  -3.969960000   0.256749000
| 20> N  -0.955390000  -3.995980000  -0.909290000
| 21> C  -4.219070000  -3.477410000  -1.501740000
| 22> H  -3.251530000  -3.803540000  -1.893830000
| 23> H  -4.452920000  -2.481700000  -1.890840000
| 24> H  -4.992170000  -4.178130000  -1.824640000
| 25> C  -4.154550000  -3.418790000  -0.058340000
| 26> N  -4.091140000  -3.354840000   1.104432000
| 27> C   1.502241000   0.651296000   1.710523000
| 28> H   1.309219000   1.637164000   2.143202000
| 29> H   2.493408000   0.297996000   2.009069000
| 30> H   0.746597000  -0.059850000   2.055508000
| 31> C   1.447974000   0.738517000   0.269805000
| 32> N   1.405612000   0.808047000  -0.894380000
| 33> *
| 34> 
| 35>                          ****END OF INPUT****
================================================================================

                     *******************************
                     * Energy+Gradient Calculation *
                     *******************************

---------------------------------
CARTESIAN COORDINATES (ANGSTROEM)
---------------------------------
  C     -0.869520   -3.929380    1.700199
  H     -0.057420   -3.268850    2.015352
  H     -0.697530   -4.930670    2.101524
  H     -1.821490   -3.546590    2.077146
  C     -0.916080   -3.969960    0.256749
  N     -0.955390   -3.995980   -0.909290
  C     -4.219070   -3.477410   -1.501740
  H     -3.251530   -3.803540   -1.893830
  H     -4.452920   -2.481700   -1.890840
  H     -4.992170   -4.178130   -1.824640
  C     -4.154550   -3.418790   -0.058340
  N     -4.091140   -3.354840    1.104432
  C      1.502241    0.651296    1.710523
  H      1.309219    1.637164    2.143202
  H      2.493408    0.297996    2.009069
  H      0.746597   -0.059850    2.055508
  C      1.447974    0.738517    0.269805
  N      1.405612    0.808047   -0.894380

----------------------------
CARTESIAN COORDINATES (A.U.)
----------------------------
  NO LB      ZA    FRAG     MASS         X           Y           Z
   0 C     6.0000    0    12.011   -1.643155   -7.425452    3.212910
   1 H     1.0000    0     1.008   -0.108508   -6.177231    3.808463
   2 H     1.0000    0     1.008   -1.318141   -9.317616    3.971305
   3 H     1.0000    0     1.008   -3.442117   -6.702084    3.925237
   4 C     6.0000    0    12.011   -1.731140   -7.502137    0.485185
   5 N     7.0000    0    14.007   -1.805425   -7.551308   -1.718309
   6 C     6.0000    0    12.011   -7.972887   -6.571353   -2.837877
   7 H     1.0000    0     1.008   -6.144501   -7.187649   -3.578820
   8 H     1.0000    0     1.008   -8.414799   -4.689733   -3.573170
   9 H     1.0000    0     1.008   -9.433834   -7.895521   -3.448070
  10 C     6.0000    0    12.011   -7.850962   -6.460577   -0.110247
  11 N     7.0000    0    14.007   -7.731134   -6.339729    2.087074
  12 C     6.0000    0    12.011    2.838824    1.230771    3.232420
  13 H     1.0000    0     1.008    2.474065    3.093792    4.050065
  14 H     1.0000    0     1.008    4.711858    0.563131    3.796590
  15 H     1.0000    0     1.008    1.410864   -0.113100    3.884347
  16 C     6.0000    0    12.011    2.736274    1.395595    0.509858
  17 N     7.0000    0    14.007    2.656222    1.526988   -1.690133

--------------------------------
INTERNAL COORDINATES (ANGSTROEM)
--------------------------------
 C      0   0   0     0.000000000000     0.00000000     0.00000000
 H      1   0   0     1.093218964485     0.00000000     0.00000000
 H      1   2   0     1.092347920685   109.32735472     0.00000000
 H      1   2   3     1.093098397130   109.63009885   119.86690662
 C      1   2   3     1.444770733542   109.20363402   239.27834980
 N      5   1   2     1.166991544966   179.65780255   294.97577729
 C      6   5   1     3.357308295316   101.86598865   293.44785499
 H      7   6   5     1.093722540958    32.56772883   195.21065514
 H      7   6   5     1.094313957053   114.26914035   106.78736280
 H      7   6   5     1.092225497963   129.87810657   254.42040630
 C      7   6   5     1.446029977144    77.68667392     1.16069710
 N     11   7   6     1.166254326716   179.00625359    65.23450688
 C      2   1   3     4.230012744127   144.39703299   177.46042439
 H     13   2   1     1.093802689222   137.87841542    78.84452434
 H     13   2   1     1.093783628514    90.86554596   200.73380126
 H     13   2   1     1.093499491667    28.33020782    68.85920080
 C     13   2   1     1.444375562537    96.54542773   309.98539950
 N     17  13   2     1.167028566132   179.91347457   280.47189118

---------------------------
INTERNAL COORDINATES (A.U.)
---------------------------
 C      0   0   0     0.000000000000     0.00000000     0.00000000
 H      1   0   0     2.065884447285     0.00000000     0.00000000
 H      1   2   0     2.064238413053   109.32735472     0.00000000
 H      1   2   3     2.065656608005   109.63009885   119.86690662
 C      1   2   3     2.730221012699   109.20363402   239.27834980
 N      5   1   2     2.205294420586   179.65780255   294.97577729
 C      6   5   1     6.344393225290   101.86598865   293.44785499
 H      7   6   5     2.066836068907    32.56772883   195.21065514
 H      7   6   5     2.067953683357   114.26914035   106.78736280
 H      7   6   5     2.064007067635   129.87810657   254.42040630
 C      7   6   5     2.732600638243    77.68667392     1.16069710
 N     11   7   6     2.203901279994   179.00625359    65.23450688
 C      2   1   3     7.993565629397   144.39703299   177.46042439
 H     13   2   1     2.066987527176   137.87841542    78.84452434
 H     13   2   1     2.066951507658    90.86554596   200.73380126
 H     13   2   1     2.066414566834    28.33020782    68.85920080
 C     13   2   1     2.729474247723    96.54542773   309.98539950
 N     17  13   2     2.205364380453   179.91347457   280.47189118

---------------------
BASIS SET INFORMATION
---------------------
There are 3 groups of distinct atoms

 Group   1 Type C   : 11s6p2d1f contracted to 5s3p2d1f pattern {62111/411/11/1}
 Group   2 Type H   : 5s1p contracted to 3s1p pattern {311/1}
 Group   3 Type N   : 11s6p2d1f contracted to 5s3p2d1f pattern {62111/411/11/1}

Atom   0C    basis set group =>   1
Atom   1H    basis set group =>   2
Atom   2H    basis set group =>   2
Atom   3H    basis set group =>   2
Atom   4C    basis set group =>   1
Atom   5N    basis set group =>   3
Atom   6C    basis set group =>   1
Atom   7H    basis set group =>   2
Atom   8H    basis set group =>   2
Atom   9H    basis set group =>   2
Atom  10C    basis set group =>   1
Atom  11N    basis set group =>   3
Atom  12C    basis set group =>   1
Atom  13H    basis set group =>   2
Atom  14H    basis set group =>   2
Atom  15H    basis set group =>   2
Atom  16C    basis set group =>   1
Atom  17N    basis set group =>   3


           ************************************************************
           *        Program running with 6 parallel MPI-processes     *
           *              working on a common directory               *
           ************************************************************
------------------------------------------------------------------------------
                           ORCA GTO INTEGRAL CALCULATION
------------------------------------------------------------------------------

                         BASIS SET STATISTICS AND STARTUP INFO

 # of primitive gaussian shells          ...  234
 # of primitive gaussian functions       ...  486
 # of contracted shells                  ...  135
 # of contracted basis functions         ...  333
 Highest angular momentum                ...    3
 Maximum contraction depth               ...    6
 Integral package used                   ... LIBINT
 Integral threshhold            Thresh   ...  2.500e-11
 Primitive cut-off              TCut     ...  2.500e-12


------------------------------ INTEGRAL EVALUATION ----------------------------


 * One electron integrals 
 Pre-screening matrix                    ... done
 Shell pair data                         ... done (   0.002 sec)



           ************************************************************
           *        Program running with 6 parallel MPI-processes     *
           *              working on a common directory               *
           ************************************************************
-------------------------------------------------------------------------------
                                 ORCA SCF
-------------------------------------------------------------------------------

------------
SCF SETTINGS
------------
Hamiltonian:
 Ab initio Hamiltonian  Method          .... Hartree-Fock(GTOs)


General Settings:
 Integral files         IntName         .... 12mecn.remya.etal.2.mol0,2,7-orca.engrad-mp2.def2tzvp.frozencore
 Hartree-Fock type      HFTyp           .... RHF
 Total Charge           Charge          ....    0
 Multiplicity           Mult            ....    1
 Number of Electrons    NEL             ....   66
 Basis Dimension        Dim             ....  333
 Nuclear Repulsion      ENuc            ....    327.3687048818 Eh

Convergence Acceleration:
 DIIS                   CNVDIIS         .... on
   Start iteration      DIISMaxIt       ....    12
   Startup error        DIISStart       ....  0.200000
   # of expansion vecs  DIISMaxEq       ....     5
   Bias factor          DIISBfac        ....   1.050
   Max. coefficient     DIISMaxC        ....  10.000
 Newton-Raphson         CNVNR           .... off
 SOSCF                  CNVSOSCF        .... on
   Start iteration      SOSCFMaxIt      ....   150
   Startup grad/error   SOSCFStart      ....  0.003300
 Level Shifting         CNVShift        .... on
   Level shift para.    LevelShift      ....    0.2500
   Turn off err/grad.   ShiftErr        ....    0.0010
 Zerner damping         CNVZerner       .... off
 Static damping         CNVDamp         .... on
   Fraction old density DampFac         ....    0.7000
   Max. Damping (<1)    DampMax         ....    0.9800
   Min. Damping (>=0)   DampMin         ....    0.0000
   Turn off err/grad.   DampErr         ....    0.1000
 Fernandez-Rico         CNVRico         .... off

SCF Procedure:
 Maximum # iterations   MaxIter         ....   125
 SCF integral mode      SCFMode         .... Direct
   Integral package                     .... LIBINT
 Reset frequency        DirectResetFreq ....    20
 Integral Threshold     Thresh          ....  2.500e-11 Eh
 Primitive CutOff       TCut            ....  2.500e-12 Eh

Convergence Tolerance:
 Convergence Check Mode ConvCheckMode   .... Total+1el-Energy
 Convergence forced     ConvForced      .... 1
 Energy Change          TolE            ....  1.000e-08 Eh
 1-El. energy change                    ....  1.000e-05 Eh
 Orbital Gradient       TolG            ....  1.000e-05
 Orbital Rotation angle TolX            ....  1.000e-05
 DIIS Error             TolErr          ....  5.000e-07


Diagonalization of the overlap matrix:
Smallest eigenvalue                        ... 1.481e-04
Time for diagonalization                   ...    0.016 sec
Threshold for overlap eigenvalues          ... 1.000e-08
Number of eigenvalues below threshold      ... 0
Time for construction of square roots      ...    0.008 sec
Total time needed                          ...    0.025 sec

-------------------
DFT GRID GENERATION
-------------------

General Integration Accuracy     IntAcc      ...  4.340
Radial Grid Type                 RadialGrid  ... Gauss-Chebyshev
Angular Grid (max. acc.)         AngularGrid ... Lebedev-110
Angular grid pruning method      GridPruning ... 3 (G Style)
Weight generation scheme         WeightScheme... Becke
Basis function cutoff            BFCut       ...    1.0000e-11
Integration weight cutoff        WCut        ...    1.0000e-14
Grids for H and He will be reduced by one unit

# of grid points (after initial pruning)     ...  22188 (   0.0 sec)
# of grid points (after weights+screening)   ...  20898 (   0.0 sec)
nearest neighbour list constructed           ...    0.0 sec
Grid point re-assignment to atoms done       ...    0.0 sec
Grid point division into batches done        ...    0.0 sec
Reduced shell lists constructed in    0.0 sec

Total number of grid points                  ...    20898
Total number of batches                      ...      335
Average number of points per batch           ...       62
Average number of grid points per atom       ...     1161
Average number of shells per batch           ...    70.63 (52.32%)
Average number of basis functions per batch  ...   167.51 (50.30%)
Average number of large shells per batch     ...    50.75 (71.86%)
Average number of large basis fcns per batch ...   118.05 (70.48%)
Maximum spatial batch extension              ...  14.71, 15.68, 17.73 au
Average spatial batch extension              ...   0.60,  0.60,  0.67 au

Time for grid setup =    0.080 sec

------------------------------
INITIAL GUESS: MODEL POTENTIAL
------------------------------
Loading Hartree-Fock densities                     ... done
Calculating cut-offs                               ... done
Setting up the integral package                    ... done
Initializing the effective Hamiltonian             ... done
Starting the Coulomb interaction                   ... done (   0.0 sec)
Reading the grid                                   ... done
Mapping shells                                     ... done
Starting the XC term evaluation                    ... done (   0.0 sec)
Transforming the Hamiltonian                       ... done (   0.0 sec)
Diagonalizing the Hamiltonian                      ... done (   0.0 sec)
Back transforming the eigenvectors                 ... done (   0.0 sec)
Now organizing SCF variables                       ... done
                      ------------------
                      INITIAL GUESS DONE (   0.3 sec)
                      ------------------
--------------
SCF ITERATIONS
--------------
ITER       Energy         Delta-E        Max-DP      RMS-DP      [F,P]     Damp
               ***  Starting incremental Fock matrix formation  ***
  0   -395.4416734807   0.000000000000 0.03798975  0.00084633  0.2828928 0.7000
  1   -395.6151921988  -0.173518718120 0.02719043  0.00066732  0.1879314 0.7000
                               ***Turning on DIIS***
  2   -395.7170736261  -0.101881427216 0.01617010  0.00044235  0.1421892 0.7000
  3   -396.6716787951  -0.954605169075 0.01051438  0.00029223  0.1056574 0.7000
  4   -396.6179582268   0.053720568282 0.02847675  0.00071534  0.0744227 0.0000
  5   -395.9551281396   0.662830087225 0.00631100  0.00011481  0.0061868 0.0000
                      *** Initiating the SOSCF procedure ***
                           *** Shutting down DIIS ***
                      *** Re-Reading the Fockian *** 
                      *** Removing any level shift *** 
ITER      Energy       Delta-E        Grad      Rot      Max-DP    RMS-DP
  6   -395.93680568   0.0183224625  0.001260  0.001260  0.004397  0.000071
               *** Restarting incremental Fock matrix formation ***
  7   -395.92725246   0.0095532184  0.000437  0.000589  0.002974  0.000050
  8   -395.92727187  -0.0000194101  0.000269  0.000545  0.002553  0.000042
  9   -395.92727642  -0.0000045548  0.000120  0.000144  0.000791  0.000012
 10   -395.92727710  -0.0000006750  0.000019  0.000033  0.000092  0.000001
 11   -395.92727713  -0.0000000265  0.000017  0.000048  0.000055  0.000001
 12   -395.92727714  -0.0000000130  0.000005  0.000011  0.000039  0.000001
 13   -395.92727714  -0.0000000022  0.000004  0.000007  0.000016  0.000000
                 **** Energy Check signals convergence ****
              ***Rediagonalizing the Fockian in SOSCF/NRSCF***

               *****************************************************
               *                     SUCCESS                       *
               *           SCF CONVERGED AFTER  14 CYCLES          *
               *****************************************************


----------------
TOTAL SCF ENERGY
----------------

Total Energy       :         -395.92727714 Eh          -10773.72894 eV

Components:
Nuclear Repulsion  :          327.36870488 Eh            8908.15534 eV
Electronic Energy  :         -723.29598202 Eh          -19681.88428 eV
One Electron Energy:        -1183.72278121 Eh          -32210.73444 eV
Two Electron Energy:          460.42679919 Eh           12528.85016 eV

Virial components:
Potential Energy   :         -791.08451111 Eh          -21526.50393 eV
Kinetic Energy     :          395.15723397 Eh           10752.77500 eV
Virial Ratio       :            2.00194870


---------------
SCF CONVERGENCE
---------------

  Last Energy change         ...   -1.6601e-09  Tolerance :   1.0000e-08
  Last MAX-Density change    ...    3.3021e-06  Tolerance :   1.0000e-07
  Last RMS-Density change    ...    5.5558e-08  Tolerance :   5.0000e-09
  Last Orbital Gradient      ...    1.3173e-06  Tolerance :   1.0000e-05
  Last Orbital Rotation      ...    4.3965e-06  Tolerance :   1.0000e-05

             **** THE GBW FILE WAS UPDATED (12mecn.remya.etal.2.mol0,2,7-orca.engrad-mp2.def2tzvp.frozencore.gbw) ****
             **** DENSITY FILE WAS UPDATED (12mecn.remya.etal.2.mol0,2,7-orca.engrad-mp2.def2tzvp.frozencore.scfp) ****
             **** ENERGY FILE WAS UPDATED (12mecn.remya.etal.2.mol0,2,7-orca.engrad-mp2.def2tzvp.frozencore.en.tmp) ****
             **** THE GBW FILE WAS UPDATED (12mecn.remya.etal.2.mol0,2,7-orca.engrad-mp2.def2tzvp.frozencore.gbw) ****
             **** DENSITY FILE WAS UPDATED (12mecn.remya.etal.2.mol0,2,7-orca.engrad-mp2.def2tzvp.frozencore.scfp) ****
----------------
ORBITAL ENERGIES
----------------

  NO   OCC          E(Eh)            E(eV) 
   0   2.0000     -15.573156      -423.7671 
   1   2.0000     -15.571785      -423.7298 
   2   2.0000     -15.571628      -423.7255 
   3   2.0000     -11.287248      -307.1416 
   4   2.0000     -11.284000      -307.0533 
   5   2.0000     -11.282871      -307.0225 
   6   2.0000     -11.279600      -306.9335 
   7   2.0000     -11.275059      -306.8100 
   8   2.0000     -11.271195      -306.7048 
   9   2.0000      -1.218754       -33.1640 
  10   2.0000      -1.214342       -33.0439 
  11   2.0000      -1.214130       -33.0381 
  12   2.0000      -1.045887       -28.4600 
  13   2.0000      -1.038553       -28.2605 
  14   2.0000      -1.033947       -28.1351 
  15   2.0000      -0.700337       -19.0571 
  16   2.0000      -0.696584       -18.9550 
  17   2.0000      -0.691726       -18.8228 
  18   2.0000      -0.635325       -17.2881 
  19   2.0000      -0.634102       -17.2548 
  20   2.0000      -0.632435       -17.2094 
  21   2.0000      -0.625713       -17.0265 
  22   2.0000      -0.621052       -16.8997 
  23   2.0000      -0.615381       -16.7454 
  24   2.0000      -0.559772       -15.2322 
  25   2.0000      -0.556221       -15.1356 
  26   2.0000      -0.555266       -15.1096 
  27   2.0000      -0.460690       -12.5360 
  28   2.0000      -0.460184       -12.5223 
  29   2.0000      -0.457670       -12.4538 
  30   2.0000      -0.457282       -12.4433 
  31   2.0000      -0.456725       -12.4281 
  32   2.0000      -0.455971       -12.4076 
  33   0.0000       0.099475         2.7069 
  34   0.0000       0.133580         3.6349 
  35   0.0000       0.144980         3.9451 
  36   0.0000       0.165897         4.5143 
  37   0.0000       0.169973         4.6252 
  38   0.0000       0.170681         4.6445 
  39   0.0000       0.175454         4.7743 
  40   0.0000       0.180631         4.9152 
  41   0.0000       0.189316         5.1515 
  42   0.0000       0.195237         5.3127 
  43   0.0000       0.207760         5.6534 
  44   0.0000       0.214003         5.8233 
  45   0.0000       0.222907         6.0656 
  46   0.0000       0.223634         6.0854 
  47   0.0000       0.228017         6.2047 
  48   0.0000       0.243174         6.6171 
  49   0.0000       0.253609         6.9010 
  50   0.0000       0.259939         7.0733 
  51   0.0000       0.272485         7.4147 
  52   0.0000       0.281889         7.6706 
  53   0.0000       0.315551         8.5866 
  54   0.0000       0.318176         8.6580 
  55   0.0000       0.321049         8.7362 
  56   0.0000       0.328164         8.9298 
  57   0.0000       0.333779         9.0826 
  58   0.0000       0.348123         9.4729 
  59   0.0000       0.367477         9.9995 
  60   0.0000       0.375759        10.2249 
  61   0.0000       0.380971        10.3668 
  62   0.0000       0.390777        10.6336 
  63   0.0000       0.406622        11.0647 
  64   0.0000       0.416305        11.3282 
  65   0.0000       0.441339        12.0094 
  66   0.0000       0.457359        12.4454 
  67   0.0000       0.470491        12.8027 
  68   0.0000       0.481007        13.0889 
  69   0.0000       0.494278        13.4500 
  70   0.0000       0.505208        13.7474 
  71   0.0000       0.530183        14.4270 
  72   0.0000       0.535943        14.5838 
  73   0.0000       0.557896        15.1811 
  74   0.0000       0.564509        15.3611 
  75   0.0000       0.583459        15.8767 
  76   0.0000       0.597378        16.2555 
  77   0.0000       0.600841        16.3497 
  78   0.0000       0.607762        16.5380 
  79   0.0000       0.610435        16.6108 
  80   0.0000       0.618087        16.8190 
  81   0.0000       0.622733        16.9454 
  82   0.0000       0.639574        17.4037 
  83   0.0000       0.658432        17.9168 
  84   0.0000       0.660837        17.9823 
  85   0.0000       0.670916        18.2565 
  86   0.0000       0.673945        18.3390 
  87   0.0000       0.683138        18.5891 
  88   0.0000       0.698279        19.0011 
  89   0.0000       0.720094        19.5948 
  90   0.0000       0.738278        20.0896 
  91   0.0000       0.745321        20.2812 
  92   0.0000       0.754019        20.5179 
  93   0.0000       0.791861        21.5476 
  94   0.0000       0.805696        21.9241 
  95   0.0000       0.807227        21.9658 
  96   0.0000       0.815948        22.2031 
  97   0.0000       0.817714        22.2511 
  98   0.0000       0.834934        22.7197 
  99   0.0000       0.851961        23.1830 
 100   0.0000       0.865167        23.5424 
 101   0.0000       0.914409        24.8823 
 102   0.0000       0.918403        24.9910 
 103   0.0000       0.926055        25.1992 
 104   0.0000       0.930064        25.3083 
 105   0.0000       0.937962        25.5233 
 106   0.0000       0.966564        26.3016 
 107   0.0000       1.025206        27.8973 
 108   0.0000       1.040572        28.3154 
 109   0.0000       1.062655        28.9163 
 110   0.0000       1.096839        29.8465 
 111   0.0000       1.120416        30.4881 
 112   0.0000       1.129748        30.7420 
 113   0.0000       1.139540        31.0085 
 114   0.0000       1.145834        31.1797 
 115   0.0000       1.156626        31.4734 
 116   0.0000       1.183168        32.1956 
 117   0.0000       1.322200        35.9789 
 118   0.0000       1.335998        36.3544 
 119   0.0000       1.337790        36.4031 
 120   0.0000       1.387869        37.7658 
 121   0.0000       1.416680        38.5498 
 122   0.0000       1.423195        38.7271 
 123   0.0000       1.425034        38.7771 
 124   0.0000       1.430858        38.9356 
 125   0.0000       1.441894        39.2359 
 126   0.0000       1.450546        39.4714 
 127   0.0000       1.458863        39.6977 
 128   0.0000       1.468142        39.9502 
 129   0.0000       1.470007        40.0009 
 130   0.0000       1.472653        40.0729 
 131   0.0000       1.474793        40.1312 
 132   0.0000       1.492361        40.6092 
 133   0.0000       1.497918        40.7604 
 134   0.0000       1.512256        41.1506 
 135   0.0000       1.520723        41.3810 
 136   0.0000       1.530524        41.6477 
 137   0.0000       1.566216        42.6189 
 138   0.0000       1.680888        45.7393 
 139   0.0000       1.699477        46.2451 
 140   0.0000       1.705804        46.4173 
 141   0.0000       1.730291        47.0836 
 142   0.0000       1.737208        47.2718 
 143   0.0000       1.741473        47.3879 
 144   0.0000       1.749622        47.6096 
 145   0.0000       1.763800        47.9954 
 146   0.0000       1.766164        48.0598 
 147   0.0000       1.768978        48.1363 
 148   0.0000       1.788382        48.6644 
 149   0.0000       1.791128        48.7391 
 150   0.0000       1.805867        49.1401 
 151   0.0000       1.812616        49.3238 
 152   0.0000       1.822062        49.5808 
 153   0.0000       1.834010        49.9060 
 154   0.0000       1.842472        50.1362 
 155   0.0000       1.869142        50.8619 
 156   0.0000       1.935608        52.6706 
 157   0.0000       1.937607        52.7250 
 158   0.0000       1.940475        52.8030 
 159   0.0000       1.948597        53.0240 
 160   0.0000       1.969214        53.5850 
 161   0.0000       1.975847        53.7655 
 162   0.0000       1.979804        53.8732 
 163   0.0000       2.014871        54.8274 
 164   0.0000       2.033572        55.3363 
 165   0.0000       2.219115        60.3852 
 166   0.0000       2.226215        60.5784 
 167   0.0000       2.237912        60.8967 
 168   0.0000       2.242471        61.0207 
 169   0.0000       2.251559        61.2680 
 170   0.0000       2.255650        61.3794 
 171   0.0000       2.262963        61.5783 
 172   0.0000       2.276477        61.9461 
 173   0.0000       2.302008        62.6408 
 174   0.0000       2.346676        63.8563 
 175   0.0000       2.366243        64.3887 
 176   0.0000       2.372302        64.5536 
 177   0.0000       2.539430        69.1014 
 178   0.0000       2.545954        69.2789 
 179   0.0000       2.557960        69.6056 
 180   0.0000       2.564296        69.7780 
 181   0.0000       2.576637        70.1139 
 182   0.0000       2.583448        70.2992 
 183   0.0000       2.589469        70.4630 
 184   0.0000       2.603183        70.8362 
 185   0.0000       2.621142        71.3249 
 186   0.0000       2.621648        71.3387 
 187   0.0000       2.624619        71.4195 
 188   0.0000       2.635564        71.7173 
 189   0.0000       2.643208        71.9253 
 190   0.0000       2.656479        72.2865 
 191   0.0000       2.676619        72.8345 
 192   0.0000       2.706543        73.6488 
 193   0.0000       2.710991        73.7698 
 194   0.0000       2.737696        74.4965 
 195   0.0000       2.740916        74.5841 
 196   0.0000       2.748493        74.7903 
 197   0.0000       2.754457        74.9526 
 198   0.0000       2.759681        75.0947 
 199   0.0000       2.764270        75.2196 
 200   0.0000       2.816236        76.6337 
 201   0.0000       2.910660        79.2031 
 202   0.0000       2.912149        79.2436 
 203   0.0000       2.913715        79.2862 
 204   0.0000       2.913929        79.2920 
 205   0.0000       2.915182        79.3261 
 206   0.0000       2.922538        79.5263 
 207   0.0000       2.949695        80.2653 
 208   0.0000       2.950783        80.2949 
 209   0.0000       2.952702        80.3471 
 210   0.0000       2.956413        80.4481 
 211   0.0000       2.969323        80.7994 
 212   0.0000       3.000168        81.6387 
 213   0.0000       3.016923        82.0947 
 214   0.0000       3.034668        82.5775 
 215   0.0000       3.051989        83.0489 
 216   0.0000       3.090813        84.1053 
 217   0.0000       3.092098        84.1403 
 218   0.0000       3.093615        84.1815 
 219   0.0000       3.097879        84.2976 
 220   0.0000       3.106160        84.5229 
 221   0.0000       3.150795        85.7375 
 222   0.0000       3.217553        87.5541 
 223   0.0000       3.233044        87.9756 
 224   0.0000       3.236776        88.0772 
 225   0.0000       3.244557        88.2889 
 226   0.0000       3.251367        88.4742 
 227   0.0000       3.259486        88.6951 
 228   0.0000       3.265589        88.8612 
 229   0.0000       3.272212        89.0414 
 230   0.0000       3.307955        90.0140 
 231   0.0000       3.329081        90.5889 
 232   0.0000       3.333553        90.7106 
 233   0.0000       3.335391        90.7606 
 234   0.0000       3.347495        91.0900 
 235   0.0000       3.364475        91.5520 
 236   0.0000       3.404670        92.6458 
 237   0.0000       3.442121        93.6649 
 238   0.0000       3.446714        93.7899 
 239   0.0000       3.448014        93.8252 
 240   0.0000       3.456447        94.0547 
 241   0.0000       3.466209        94.3203 
 242   0.0000       3.484166        94.8090 
 243   0.0000       3.488614        94.9300 
 244   0.0000       3.547840        96.5416 
 245   0.0000       3.550926        96.6256 
 246   0.0000       3.636406        98.9516 
 247   0.0000       3.658241        99.5458 
 248   0.0000       3.659744        99.5867 
 249   0.0000       3.665186        99.7348 
 250   0.0000       3.667718        99.8037 
 251   0.0000       3.670978        99.8924 
 252   0.0000       3.795960       103.2933 
 253   0.0000       3.802125       103.4611 
 254   0.0000       3.803291       103.4928 
 255   0.0000       3.807688       103.6125 
 256   0.0000       3.809064       103.6499 
 257   0.0000       3.861261       105.0702 
 258   0.0000       3.930414       106.9520 
 259   0.0000       3.938358       107.1682 
 260   0.0000       3.945401       107.3598 
 261   0.0000       3.947422       107.4148 
 262   0.0000       3.955017       107.6215 
 263   0.0000       3.960877       107.7809 
 264   0.0000       3.963351       107.8483 
 265   0.0000       3.971470       108.0692 
 266   0.0000       3.982760       108.3764 
 267   0.0000       4.241753       115.4240 
 268   0.0000       4.248426       115.6056 
 269   0.0000       4.250326       115.6572 
 270   0.0000       4.259595       115.9095 
 271   0.0000       4.262769       115.9958 
 272   0.0000       4.301345       117.0455 
 273   0.0000       4.339929       118.0955 
 274   0.0000       4.342676       118.1702 
 275   0.0000       4.343078       118.1812 
 276   0.0000       4.346970       118.2871 
 277   0.0000       4.347297       118.2960 
 278   0.0000       4.352951       118.4498 
 279   0.0000       4.568166       124.3061 
 280   0.0000       4.579426       124.6125 
 281   0.0000       4.583881       124.7337 
 282   0.0000       4.744247       129.0975 
 283   0.0000       4.749815       129.2490 
 284   0.0000       4.751294       129.2893 
 285   0.0000       4.760143       129.5301 
 286   0.0000       4.762369       129.5906 
 287   0.0000       4.791685       130.3884 
 288   0.0000       4.841690       131.7491 
 289   0.0000       4.857517       132.1798 
 290   0.0000       4.870866       132.5430 
 291   0.0000       4.961568       135.0111 
 292   0.0000       4.962164       135.0273 
 293   0.0000       4.962894       135.0472 
 294   0.0000       4.968581       135.2020 
 295   0.0000       4.980784       135.5340 
 296   0.0000       5.009173       136.3065 
 297   0.0000       5.062610       137.7606 
 298   0.0000       5.067014       137.8805 
 299   0.0000       5.067716       137.8996 
 300   0.0000       5.076143       138.1289 
 301   0.0000       5.077370       138.1623 
 302   0.0000       5.098867       138.7472 
 303   0.0000       5.202516       141.5677 
 304   0.0000       5.212039       141.8268 
 305   0.0000       5.223066       142.1268 
 306   0.0000       5.556575       151.2021 
 307   0.0000       5.558434       151.2527 
 308   0.0000       5.558837       151.2637 
 309   0.0000       5.563343       151.3862 
 310   0.0000       5.587644       152.0475 
 311   0.0000       5.590553       152.1267 
 312   0.0000       6.020948       163.8383 
 313   0.0000       6.023067       163.8960 
 314   0.0000       6.027819       164.0253 
 315   0.0000       6.078490       165.4041 
 316   0.0000       6.085911       165.6061 
 317   0.0000       6.088843       165.6859 
 318   0.0000       6.090604       165.7338 
 319   0.0000       6.106840       166.1756 
 320   0.0000       6.172014       167.9490 
 321   0.0000       6.464569       175.9099 
 322   0.0000       6.469935       176.0559 
 323   0.0000       6.486138       176.4968 
 324   0.0000      23.465498       638.5287 
 325   0.0000      23.489069       639.1701 
 326   0.0000      23.495895       639.3558 
 327   0.0000      24.382537       663.4826 
 328   0.0000      24.386061       663.5785 
 329   0.0000      24.400812       663.9798 
 330   0.0000      33.391503       908.6290 
 331   0.0000      33.438368       909.9043 
 332   0.0000      33.481740       911.0845 

                    ********************************
                    * MULLIKEN POPULATION ANALYSIS *
                    ********************************

-----------------------
MULLIKEN ATOMIC CHARGES
-----------------------
   0 C :   -0.178517
   1 H :    0.136879
   2 H :    0.152733
   3 H :    0.199161
   4 C :   -0.056209
   5 N :   -0.254986
   6 C :   -0.178969
   7 H :    0.199521
   8 H :    0.151011
   9 H :    0.149437
  10 C :   -0.051079
  11 N :   -0.269005
  12 C :   -0.165595
  13 H :    0.159168
  14 H :    0.156222
  15 H :    0.148377
  16 C :   -0.106940
  17 N :   -0.191207
Sum of atomic charges:   -0.0000000

--------------------------------
MULLIKEN REDUCED ORBITAL CHARGES
--------------------------------
  0 C s       :     3.155653  s :     3.155653
      pz      :     0.782648  p :     2.957685
      px      :     1.095664
      py      :     1.079372
      dz2     :     0.017784  d :     0.061697
      dxz     :     0.011043
      dyz     :     0.011009
      dx2y2   :     0.010017
      dxy     :     0.011845
      f0      :     0.001729  f :     0.003481
      f+1     :     0.000205
      f-1     :     0.000197
      f+2     :     0.000078
      f-2     :     0.000056
      f+3     :     0.000248
      f-3     :     0.000969
  1 H s       :     0.840958  s :     0.840958
      pz      :     0.004512  p :     0.022163
      px      :     0.009850
      py      :     0.007800
  2 H s       :     0.824807  s :     0.824807
      pz      :     0.005164  p :     0.022460
      px      :     0.004052
      py      :     0.013244
  3 H s       :     0.777542  s :     0.777542
      pz      :     0.004766  p :     0.023297
      px      :     0.013530
      py      :     0.005001
  4 C s       :     3.244099  s :     3.244099
      pz      :     0.952271  p :     2.678913
      px      :     0.854179
      py      :     0.872463
      dz2     :     0.025503  d :     0.115783
      dxz     :     0.045305
      dyz     :     0.043992
      dx2y2   :     0.000362
      dxy     :     0.000622
      f0      :     0.004099  f :     0.017414
      f+1     :     0.006640
      f-1     :     0.006555
      f+2     :     0.000037
      f-2     :     0.000077
      f+3     :     0.000003
      f-3     :     0.000002
  5 N s       :     3.744412  s :     3.744412
      pz      :     1.274516  p :     3.454093
      px      :     1.097597
      py      :     1.081980
      dz2     :     0.011194  d :     0.053545
      dxz     :     0.021104
      dyz     :     0.021164
      dx2y2   :     0.000076
      dxy     :     0.000006
      f0      :     0.000622  f :     0.002936
      f+1     :     0.001143
      f-1     :     0.001159
      f+2     :     0.000006
      f-2     :     0.000005
      f+3     :     0.000001
      f-3     :     0.000000
  6 C s       :     3.156329  s :     3.156329
      pz      :     0.778300  p :     2.958311
      px      :     1.105655
      py      :     1.074356
      dz2     :     0.017782  d :     0.060857
      dxz     :     0.011043
      dyz     :     0.010198
      dx2y2   :     0.009986
      dxy     :     0.011847
      f0      :     0.001741  f :     0.003472
      f+1     :     0.000199
      f-1     :     0.000184
      f+2     :     0.000056
      f-2     :     0.000080
      f+3     :     0.000433
      f-3     :     0.000779
  7 H s       :     0.777215  s :     0.777215
      pz      :     0.004896  p :     0.023265
      px      :     0.013721
      py      :     0.004647
  8 H s       :     0.826566  s :     0.826566
      pz      :     0.005073  p :     0.022424
      px      :     0.004280
      py      :     0.013071
  9 H s       :     0.828228  s :     0.828228
      pz      :     0.004573  p :     0.022336
      px      :     0.009349
      py      :     0.008414
 10 C s       :     3.247537  s :     3.247537
      pz      :     0.958594  p :     2.669939
      px      :     0.846505
      py      :     0.864841
      dz2     :     0.025230  d :     0.116232
      dxz     :     0.045208
      dyz     :     0.044482
      dx2y2   :     0.000386
      dxy     :     0.000926
      f0      :     0.004161  f :     0.017370
      f+1     :     0.006534
      f-1     :     0.006443
      f+2     :     0.000090
      f-2     :     0.000137
      f+3     :     0.000004
      f-3     :     0.000002
 11 N s       :     3.738482  s :     3.738482
      pz      :     1.277719  p :     3.474392
      px      :     1.104284
      py      :     1.092389
      dz2     :     0.011258  d :     0.053188
      dxz     :     0.020812
      dyz     :     0.020880
      dx2y2   :     0.000157
      dxy     :     0.000081
      f0      :     0.000640  f :     0.002943
      f+1     :     0.001125
      f-1     :     0.001140
      f+2     :     0.000019
      f-2     :     0.000017
      f+3     :     0.000001
      f-3     :     0.000000
 12 C s       :     3.150795  s :     3.150795
      pz      :     0.797196  p :     2.948938
      px      :     1.072733
      py      :     1.079008
      dz2     :     0.018061  d :     0.062384
      dxz     :     0.010176
      dyz     :     0.012622
      dx2y2   :     0.010159
      dxy     :     0.011366
      f0      :     0.001655  f :     0.003478
      f+1     :     0.000224
      f-1     :     0.000238
      f+2     :     0.000073
      f-2     :     0.000060
      f+3     :     0.000398
      f-3     :     0.000830
 13 H s       :     0.818455  s :     0.818455
      pz      :     0.005400  p :     0.022378
      px      :     0.003982
      py      :     0.012996
 14 H s       :     0.821450  s :     0.821450
      pz      :     0.004391  p :     0.022328
      px      :     0.013098
      py      :     0.004839
 15 H s       :     0.829335  s :     0.829335
      pz      :     0.004708  p :     0.022288
      px      :     0.009109
      py      :     0.008472
 16 C s       :     3.232675  s :     3.232675
      pz      :     0.964450  p :     2.743238
      px      :     0.888759
      py      :     0.890029
      dz2     :     0.027012  d :     0.113651
      dxz     :     0.042741
      dyz     :     0.042917
      dx2y2   :     0.000337
      dxy     :     0.000645
      f0      :     0.004194  f :     0.017375
      f+1     :     0.006465
      f-1     :     0.006493
      f+2     :     0.000098
      f-2     :     0.000125
      f+3     :     0.000000
      f-3     :     0.000001
 17 N s       :     3.719195  s :     3.719195
      pz      :     1.284418  p :     3.413896
      px      :     1.065398
      py      :     1.064080
      dz2     :     0.011842  d :     0.055153
      dxz     :     0.021599
      dyz     :     0.021515
      dx2y2   :     0.000101
      dxy     :     0.000097
      f0      :     0.000636  f :     0.002963
      f+1     :     0.001154
      f-1     :     0.001146
      f+2     :     0.000014
      f-2     :     0.000014
      f+3     :     0.000000
      f-3     :     0.000000


                     *******************************
                     * LOEWDIN POPULATION ANALYSIS *
                     *******************************

----------------------
LOEWDIN ATOMIC CHARGES
----------------------
   0 C :   -0.244917
   1 H :    0.137928
   2 H :    0.143409
   3 H :    0.150910
   4 C :   -0.184846
   5 N :   -0.003785
   6 C :   -0.242586
   7 H :    0.151733
   8 H :    0.145149
   9 H :    0.141052
  10 C :   -0.180691
  11 N :   -0.013338
  12 C :   -0.245384
  13 H :    0.144767
  14 H :    0.144383
  15 H :    0.141577
  16 C :   -0.201523
  17 N :    0.016160

-------------------------------
LOEWDIN REDUCED ORBITAL CHARGES
-------------------------------
  0 C s       :     2.813049  s :     2.813049
      pz      :     1.022492  p :     3.148126
      px      :     1.067003
      py      :     1.058630
      dz2     :     0.078956  d :     0.258507
      dxz     :     0.057632
      dyz     :     0.061046
      dx2y2   :     0.027027
      dxy     :     0.033846
      f0      :     0.007537  f :     0.025236
      f+1     :     0.005096
      f-1     :     0.004946
      f+2     :     0.002401
      f-2     :     0.001975
      f+3     :     0.000683
      f-3     :     0.002597
  1 H s       :     0.801875  s :     0.801875
      pz      :     0.011991  p :     0.060197
      px      :     0.026588
      py      :     0.021618
  2 H s       :     0.795719  s :     0.795719
      pz      :     0.013257  p :     0.060872
      px      :     0.013186
      py      :     0.034429
  3 H s       :     0.784671  s :     0.784671
      pz      :     0.012763  p :     0.064419
      px      :     0.036161
      py      :     0.015495
  4 C s       :     2.839804  s :     2.839804
      pz      :     1.193550  p :     2.828781
      px      :     0.813146
      py      :     0.822085
      dz2     :     0.154727  d :     0.456783
      dxz     :     0.151630
      dyz     :     0.148709
      dx2y2   :     0.000570
      dxy     :     0.001147
      f0      :     0.022929  f :     0.059477
      f+1     :     0.018398
      f-1     :     0.017865
      f+2     :     0.000085
      f-2     :     0.000187
      f+3     :     0.000007
      f-3     :     0.000005
  5 N s       :     3.308471  s :     3.308471
      pz      :     1.494255  p :     3.572248
      px      :     1.042001
      py      :     1.035993
      dz2     :     0.045576  d :     0.108898
      dxz     :     0.031403
      dyz     :     0.031724
      dx2y2   :     0.000165
      dxy     :     0.000030
      f0      :     0.006229  f :     0.014168
      f+1     :     0.003919
      f-1     :     0.003982
      f+2     :     0.000020
      f-2     :     0.000016
      f+3     :     0.000001
      f-3     :     0.000000
  6 C s       :     2.813839  s :     2.813839
      pz      :     1.018984  p :     3.147500
      px      :     1.070485
      py      :     1.058031
      dz2     :     0.079136  d :     0.256227
      dxz     :     0.057815
      dyz     :     0.058814
      dx2y2   :     0.026569
      dxy     :     0.033893
      f0      :     0.007546  f :     0.025020
      f+1     :     0.004873
      f-1     :     0.004910
      f+2     :     0.002430
      f-2     :     0.002017
      f+3     :     0.001170
      f-3     :     0.002074
  7 H s       :     0.784066  s :     0.784066
      pz      :     0.013001  p :     0.064200
      px      :     0.036685
      py      :     0.014513
  8 H s       :     0.794215  s :     0.794215
      pz      :     0.013008  p :     0.060636
      px      :     0.013674
      py      :     0.033954
  9 H s       :     0.798073  s :     0.798073
      pz      :     0.012065  p :     0.060875
      px      :     0.025651
      py      :     0.023159
 10 C s       :     2.841167  s :     2.841167
      pz      :     1.193745  p :     2.821587
      px      :     0.810186
      py      :     0.817656
      dz2     :     0.154051  d :     0.458312
      dxz     :     0.151828
      dyz     :     0.149847
      dx2y2   :     0.000737
      dxy     :     0.001849
      f0      :     0.022772  f :     0.059625
      f+1     :     0.018350
      f-1     :     0.017888
      f+2     :     0.000251
      f-2     :     0.000353
      f+3     :     0.000007
      f-3     :     0.000005
 11 N s       :     3.307137  s :     3.307137
      pz      :     1.493415  p :     3.584141
      px      :     1.046916
      py      :     1.043809
      dz2     :     0.045273  d :     0.107922
      dxz     :     0.030999
      dyz     :     0.031183
      dx2y2   :     0.000324
      dxy     :     0.000144
      f0      :     0.006195  f :     0.014137
      f+1     :     0.003883
      f-1     :     0.003935
      f+2     :     0.000064
      f-2     :     0.000058
      f+3     :     0.000002
      f-3     :     0.000000
 12 C s       :     2.814203  s :     2.814203
      pz      :     1.027529  p :     3.142511
      px      :     1.057121
      py      :     1.057861
      dz2     :     0.077808  d :     0.263135
      dxz     :     0.056825
      dyz     :     0.065975
      dx2y2   :     0.028945
      dxy     :     0.033582
      f0      :     0.007295  f :     0.025535
      f+1     :     0.005635
      f-1     :     0.004898
      f+2     :     0.002333
      f-2     :     0.002051
      f+3     :     0.001087
      f-3     :     0.002235
 13 H s       :     0.794557  s :     0.794557
      pz      :     0.013796  p :     0.060676
      px      :     0.012894
      py      :     0.033986
 14 H s       :     0.794990  s :     0.794990
      pz      :     0.011821  p :     0.060627
      px      :     0.033969
      py      :     0.014837
 15 H s       :     0.797963  s :     0.797963
      pz      :     0.012428  p :     0.060461
      px      :     0.024868
      py      :     0.023165
 16 C s       :     2.838178  s :     2.838178
      pz      :     1.190159  p :     2.855585
      px      :     0.831862
      py      :     0.833564
      dz2     :     0.154573  d :     0.449029
      dxz     :     0.145645
      dyz     :     0.146714
      dx2y2   :     0.000727
      dxy     :     0.001370
      f0      :     0.022966  f :     0.058731
      f+1     :     0.017508
      f-1     :     0.017709
      f+2     :     0.000238
      f-2     :     0.000307
      f+3     :     0.000001
      f-3     :     0.000002
 17 N s       :     3.314753  s :     3.314753
      pz      :     1.492797  p :     3.542917
      px      :     1.025230
      py      :     1.024890
      dz2     :     0.045758  d :     0.111784
      dxz     :     0.032775
      dyz     :     0.032937
      dx2y2   :     0.000160
      dxy     :     0.000154
      f0      :     0.006169  f :     0.014386
      f+1     :     0.004041
      f-1     :     0.004077
      f+2     :     0.000051
      f-2     :     0.000049
      f+3     :     0.000000
      f-3     :     0.000000


                      *****************************
                      * MAYER POPULATION ANALYSIS *
                      *****************************

  NA   - Mulliken gross atomic population
  ZA   - Total nuclear charge
  QA   - Mulliken gross atomic charge
  VA   - Mayer's total valence
  BVA  - Mayer's bonded valence
  FA   - Mayer's free valence

  ATOM       NA         ZA         QA         VA         BVA        FA
  0 C      6.1785     6.0000    -0.1785     3.7880     3.7880    -0.0000
  1 H      0.8631     1.0000     0.1369     0.9618     0.9618    -0.0000
  2 H      0.8473     1.0000     0.1527     0.9647     0.9647    -0.0000
  3 H      0.8008     1.0000     0.1992     0.9603     0.9603    -0.0000
  4 C      6.0562     6.0000    -0.0562     3.8637     3.8637    -0.0000
  5 N      7.2550     7.0000    -0.2550     2.9848     2.9848    -0.0000
  6 C      6.1790     6.0000    -0.1790     3.7842     3.7842    -0.0000
  7 H      0.8005     1.0000     0.1995     0.9608     0.9608    -0.0000
  8 H      0.8490     1.0000     0.1510     0.9638     0.9638    -0.0000
  9 H      0.8506     1.0000     0.1494     0.9619     0.9619    -0.0000
 10 C      6.0511     6.0000    -0.0511     3.8717     3.8717     0.0000
 11 N      7.2690     7.0000    -0.2690     2.9867     2.9867    -0.0000
 12 C      6.1656     6.0000    -0.1656     3.8091     3.8091     0.0000
 13 H      0.8408     1.0000     0.1592     0.9624     0.9624     0.0000
 14 H      0.8438     1.0000     0.1562     0.9612     0.9612     0.0000
 15 H      0.8516     1.0000     0.1484     0.9614     0.9614    -0.0000
 16 C      6.1069     6.0000    -0.1069     3.9144     3.9144     0.0000
 17 N      7.1912     7.0000    -0.1912     3.0352     3.0352     0.0000

  Mayer bond orders larger than 0.100000
B(  0-C ,  1-H ) :   0.9678 B(  0-C ,  2-H ) :   0.9618 B(  0-C ,  3-H ) :   0.9499 
B(  0-C ,  4-C ) :   0.9239 B(  4-C ,  5-N ) :   2.9491 B(  6-C ,  7-H ) :   0.9491 
B(  6-C ,  8-H ) :   0.9605 B(  6-C ,  9-H ) :   0.9637 B(  6-C , 10-C ) :   0.9259 
B( 10-C , 11-N ) :   2.9514 B( 12-C , 13-H ) :   0.9630 B( 12-C , 14-H ) :   0.9638 
B( 12-C , 15-H ) :   0.9656 B( 12-C , 16-C ) :   0.9268 B( 16-C , 17-N ) :   3.0091 


-------
TIMINGS
-------

Total SCF time: 0 days 0 hours 0 min 39 sec 

Total time                  ....      39.419 sec
Sum of individual times     ....      39.107 sec  ( 99.2%)

Fock matrix formation       ....      38.515 sec  ( 97.7%)
Diagonalization             ....       0.137 sec  (  0.3%)
Density matrix formation    ....       0.018 sec  (  0.0%)
Population analysis         ....       0.033 sec  (  0.1%)
Initial guess               ....       0.177 sec  (  0.4%)
Orbital Transformation      ....       0.000 sec  (  0.0%)
Orbital Orthonormalization  ....       0.000 sec  (  0.0%)
DIIS solution               ....       0.050 sec  (  0.1%)
SOSCF solution              ....       0.097 sec  (  0.2%)


           ************************************************************
           *        Program running with 6 parallel MPI-processes     *
           *              working on a common directory               *
           ************************************************************

------------------------------------------------------------------------------
                                ORCA  MP2 
------------------------------------------------------------------------------

Freezing NCore=18 chemical core electrons
MP2 will be done in the AO integral direct mode
The Q1-step will be done using symmetric double matrices
Dimension of the basis                    ...  333
Memory devoted for MP2                    ... 8000 MB   
Memory needed for all in one shot         ...  566 MB
Number of MOs that can be treated together...   55      
MP2 density construction                  ... relaxed
The MP2 gradient is requested => amplitudes will be stored on disk
Total number of MOs              ...   24
Number of MOs treated per batch  ...    4 
Number of batches necessary      ...    1 
OPERATORS   0/  0 PASS   0
-----------------------------------------------
 MP2 CORRELATION ENERGY   :     -1.531371375 Eh
-----------------------------------------------


---------------------
MP2 DENSITY FORMATION
---------------------

Completing the external part of the density      ... done
Storing the unrelaxed density                    ... done

Calculating G(D)                                 ... done
Completing the Lagrangian                        ... done
Solving the Z-vector equations                   ... 

------------------------------------------------------------------------------
                           ORCA CP-SCF CALCULATION
------------------------------------------------------------------------------

Input orbitals are from        ... 12mecn.remya.etal.2.mol0,2,7-orca.engrad-mp2.def2tzvp.frozencore.gbw
Input Perturbation             ... 12mecn.remya.etal.2.mol0,2,7-orca.engrad-mp2.def2tzvp.frozencore.pin.tmp
Wavefunction output            ... 12mecn.remya.etal.2.mol0,2,7-orca.engrad-mp2.def2tzvp.frozencore.pout.tmp
Perturbation mode              ... Real perturbation (singlet)
Solver                         ... POPLE
Max. number of iterations      ... 128
Convergence tolerance          ... 1.000e-08
Integral handling              ... Direct
Number of perturbations        ... 1
Number of operators            ... 1
Orbital ranges used for CP-SCF:
 Operator 0:  Orbitals   0... 32  to  33...332
Variables per vector in CP-SCF ... 9900
Number of vectors sought       ... 1
     CP-SCF ITERATION   0: 
     CP-SCF ITERATION   1:      0.001529844772
     CP-SCF ITERATION   2:      0.000269904821
     CP-SCF ITERATION   3:      0.000010300423
     CP-SCF ITERATION   4:      0.000002684229
     CP-SCF ITERATION   5:      0.000001198985
     CP-SCF ITERATION   6:      0.000000139105
     CP-SCF ITERATION   7:      0.000000015072
     CP-SCF ITERATION   8:      0.000000001567
                                                 ... done
Finalizing the relaxed density                   ... done
Transforming P to the AO basis                   ... done
Storing the relaxed density                      ... done

------------------------------------
ENERGY WEIGHTED DENSITY FINALIZATION
------------------------------------

Gathering the parts of the W-matrix              ...                                                      done
Forming the Z-density                            ... done
Transforming Z to the AO basis                   ... done
Calculating G(Z)                                 ... done
Finalizing the W-matrix                          ...                                                      done
Transforming W to the AO basis and storing       ... done

                *********************************************
                * UNRELAXED MP2 DENSITY POPULATION ANALYSIS *
                *********************************************

------------------------------------------------------------------------------
                           ORCA POPULATION ANALYSIS
------------------------------------------------------------------------------
Input electron density              ... 12mecn.remya.etal.2.mol0,2,7-orca.engrad-mp2.def2tzvp.frozencore.pmp2ur
BaseName (.gbw .S,...)              ... 12mecn.remya.etal.2.mol0,2,7-orca.engrad-mp2.def2tzvp.frozencore

                    ********************************
                    * MULLIKEN POPULATION ANALYSIS *
                    ********************************

-----------------------
MULLIKEN ATOMIC CHARGES
-----------------------
   0 C :   -0.191061
   1 H :    0.139569
   2 H :    0.155456
   3 H :    0.200935
   4 C :   -0.066532
   5 N :   -0.239333
   6 C :   -0.191376
   7 H :    0.201307
   8 H :    0.153695
   9 H :    0.152121
  10 C :   -0.061815
  11 N :   -0.252994
  12 C :   -0.178856
  13 H :    0.161764
  14 H :    0.158803
  15 H :    0.150927
  16 C :   -0.115552
  17 N :   -0.177059
Sum of atomic charges:   -0.0000000

--------------------------------
MULLIKEN REDUCED ORBITAL CHARGES
--------------------------------
  0 C s       :     3.153892  s :     3.153892
      pz      :     0.781467  p :     2.942298
      px      :     1.088175
      py      :     1.072657
      dz2     :     0.020293  d :     0.087520
      dxz     :     0.017200
      dyz     :     0.017099
      dx2y2   :     0.015632
      dxy     :     0.017296
      f0      :     0.002128  f :     0.007351
      f+1     :     0.000871
      f-1     :     0.000863
      f+2     :     0.000617
      f-2     :     0.000601
      f+3     :     0.000811
      f-3     :     0.001461
  1 H s       :     0.835373  s :     0.835373
      pz      :     0.005539  p :     0.025057
      px      :     0.010763
      py      :     0.008756
  2 H s       :     0.819259  s :     0.819259
      pz      :     0.006152  p :     0.025285
      px      :     0.005093
      py      :     0.014040
  3 H s       :     0.773084  s :     0.773084
      pz      :     0.005738  p :     0.025980
      px      :     0.014263
      py      :     0.005979
  4 C s       :     3.243343  s :     3.243343
      pz      :     0.943215  p :     2.671656
      px      :     0.855571
      py      :     0.872869
      dz2     :     0.027927  d :     0.131171
      dxz     :     0.047276
      dyz     :     0.046027
      dx2y2   :     0.004835
      dxy     :     0.005106
      f0      :     0.004564  f :     0.020362
      f+1     :     0.007068
      f-1     :     0.006991
      f+2     :     0.000593
      f-2     :     0.000631
      f+3     :     0.000258
      f-3     :     0.000256
  5 N s       :     3.731931  s :     3.731931
      pz      :     1.262171  p :     3.425534
      px      :     1.089075
      py      :     1.074288
      dz2     :     0.015477  d :     0.076204
      dxz     :     0.025322
      dyz     :     0.025291
      dx2y2   :     0.005099
      dxy     :     0.005016
      f0      :     0.001052  f :     0.005663
      f+1     :     0.001592
      f-1     :     0.001606
      f+2     :     0.000424
      f-2     :     0.000423
      f+3     :     0.000284
      f-3     :     0.000283
  6 C s       :     3.154543  s :     3.154543
      pz      :     0.777213  p :     2.942831
      px      :     1.098017
      py      :     1.067600
      dz2     :     0.020285  d :     0.086664
      dxz     :     0.017175
      dyz     :     0.016287
      dx2y2   :     0.015581
      dxy     :     0.017336
      f0      :     0.002139  f :     0.007338
      f+1     :     0.000864
      f-1     :     0.000847
      f+2     :     0.000597
      f-2     :     0.000624
      f+3     :     0.000979
      f-3     :     0.001289
  7 H s       :     0.772757  s :     0.772757
      pz      :     0.005860  p :     0.025936
      px      :     0.014446
      py      :     0.005630
  8 H s       :     0.821056  s :     0.821056
      pz      :     0.006061  p :     0.025248
      px      :     0.005314
      py      :     0.013873
  9 H s       :     0.822701  s :     0.822701
      pz      :     0.005582  p :     0.025178
      px      :     0.010258
      py      :     0.009337
 10 C s       :     3.246604  s :     3.246604
      pz      :     0.949478  p :     2.663423
      px      :     0.848214
      py      :     0.865732
      dz2     :     0.027638  d :     0.131476
      dxz     :     0.047167
      dyz     :     0.046493
      dx2y2   :     0.004820
      dxy     :     0.005358
      f0      :     0.004625  f :     0.020312
      f+1     :     0.006963
      f-1     :     0.006880
      f+2     :     0.000642
      f-2     :     0.000687
      f+3     :     0.000258
      f-3     :     0.000256
 11 N s       :     3.726140  s :     3.726140
      pz      :     1.265383  p :     3.445144
      px      :     1.095496
      py      :     1.084265
      dz2     :     0.015563  d :     0.076031
      dxz     :     0.025085
      dyz     :     0.025059
      dx2y2   :     0.005208
      dxy     :     0.005115
      f0      :     0.001071  f :     0.005678
      f+1     :     0.001575
      f-1     :     0.001588
      f+2     :     0.000438
      f-2     :     0.000435
      f+3     :     0.000286
      f-3     :     0.000285
 12 C s       :     3.149163  s :     3.149163
      pz      :     0.795947  p :     2.934457
      px      :     1.066128
      py      :     1.072383
      dz2     :     0.020577  d :     0.087896
      dxz     :     0.016307
      dyz     :     0.018601
      dx2y2   :     0.015655
      dxy     :     0.016755
      f0      :     0.002060  f :     0.007341
      f+1     :     0.000884
      f-1     :     0.000905
      f+2     :     0.000611
      f-2     :     0.000603
      f+3     :     0.000943
      f-3     :     0.001335
 13 H s       :     0.813054  s :     0.813054
      pz      :     0.006374  p :     0.025183
      px      :     0.005017
      py      :     0.013792
 14 H s       :     0.816047  s :     0.816047
      pz      :     0.005401  p :     0.025150
      px      :     0.013893
      py      :     0.005856
 15 H s       :     0.823939  s :     0.823939
      pz      :     0.005715  p :     0.025134
      px      :     0.010020
      py      :     0.009398
 16 C s       :     3.232197  s :     3.232197
      pz      :     0.955651  p :     2.733616
      px      :     0.888417
      py      :     0.889548
      dz2     :     0.029500  d :     0.129393
      dxz     :     0.044876
      dyz     :     0.045052
      dx2y2   :     0.004831
      dxy     :     0.005135
      f0      :     0.004657  f :     0.020346
      f+1     :     0.006909
      f-1     :     0.006937
      f+2     :     0.000650
      f-2     :     0.000677
      f+3     :     0.000258
      f-3     :     0.000259
 17 N s       :     3.706371  s :     3.706371
      pz      :     1.272144  p :     3.387998
      px      :     1.058547
      py      :     1.057307
      dz2     :     0.016014  d :     0.077030
      dxz     :     0.025600
      dyz     :     0.025514
      dx2y2   :     0.004952
      dxy     :     0.004949
      f0      :     0.001062  f :     0.005660
      f+1     :     0.001598
      f-1     :     0.001590
      f+2     :     0.000428
      f-2     :     0.000428
      f+3     :     0.000277
      f-3     :     0.000277


                     *******************************
                     * LOEWDIN POPULATION ANALYSIS *
                     *******************************

----------------------
LOEWDIN ATOMIC CHARGES
----------------------
   0 C :   -0.252942
   1 H :    0.139545
   2 H :    0.145105
   3 H :    0.152444
   4 C :   -0.190726
   5 N :    0.005248
   6 C :   -0.250558
   7 H :    0.153292
   8 H :    0.146827
   9 H :    0.142740
  10 C :   -0.186786
  11 N :   -0.004168
  12 C :   -0.253480
  13 H :    0.146450
  14 H :    0.146045
  15 H :    0.143206
  16 C :   -0.206601
  17 N :    0.024359

-------------------------------
LOEWDIN REDUCED ORBITAL CHARGES
-------------------------------
  0 C s       :     2.811276  s :     2.811276
      pz      :     1.013940  p :     3.123053
      px      :     1.058568
      py      :     1.050545
      dz2     :     0.084154  d :     0.287329
      dxz     :     0.063663
      dyz     :     0.066975
      dx2y2   :     0.032892
      dxy     :     0.039645
      f0      :     0.008655  f :     0.031283
      f+1     :     0.006170
      f-1     :     0.006007
      f+2     :     0.003079
      f-2     :     0.002646
      f+3     :     0.001350
      f-3     :     0.003375
  1 H s       :     0.795380  s :     0.795380
      pz      :     0.013389  p :     0.065075
      px      :     0.028439
      py      :     0.023247
  2 H s       :     0.789256  s :     0.789256
      pz      :     0.014695  p :     0.065639
      px      :     0.014405
      py      :     0.036539
  3 H s       :     0.778538  s :     0.778538
      pz      :     0.014171  p :     0.069018
      px      :     0.038055
      py      :     0.016791
  4 C s       :     2.836416  s :     2.836416
      pz      :     1.180940  p :     2.811360
      px      :     0.811001
      py      :     0.819418
      dz2     :     0.162020  d :     0.475826
      dxz     :     0.152934
      dyz     :     0.150163
      dx2y2   :     0.005089
      dxy     :     0.005620
      f0      :     0.024552  f :     0.067125
      f+1     :     0.020464
      f-1     :     0.019958
      f+2     :     0.000762
      f-2     :     0.000866
      f+3     :     0.000262
      f-3     :     0.000260
  5 N s       :     3.300677  s :     3.300677
      pz      :     1.478167  p :     3.536048
      px      :     1.031707
      py      :     1.026174
      dz2     :     0.052538  d :     0.139388
      dxz     :     0.038288
      dyz     :     0.038463
      dx2y2   :     0.005130
      dxy     :     0.004970
      f0      :     0.007301  f :     0.018639
      f+1     :     0.004905
      f-1     :     0.004953
      f+2     :     0.000459
      f-2     :     0.000454
      f+3     :     0.000284
      f-3     :     0.000283
  6 C s       :     2.812057  s :     2.812057
      pz      :     1.010479  p :     3.122416
      px      :     1.061996
      py      :     1.049942
      dz2     :     0.084294  d :     0.285031
      dxz     :     0.063859
      dyz     :     0.064757
      dx2y2   :     0.032426
      dxy     :     0.039694
      f0      :     0.008663  f :     0.031054
      f+1     :     0.005939
      f-1     :     0.005967
      f+2     :     0.003109
      f-2     :     0.002690
      f+3     :     0.001865
      f-3     :     0.002822
  7 H s       :     0.777932  s :     0.777932
      pz      :     0.014412  p :     0.068776
      px      :     0.038596
      py      :     0.015769
  8 H s       :     0.787773  s :     0.787773
      pz      :     0.014435  p :     0.065400
      px      :     0.014916
      py      :     0.036049
  9 H s       :     0.791602  s :     0.791602
      pz      :     0.013448  p :     0.065658
      px      :     0.027410
      py      :     0.024800
 10 C s       :     2.837734  s :     2.837734
      pz      :     1.181170  p :     2.804698
      px      :     0.808224
      py      :     0.815304
      dz2     :     0.161259  d :     0.477116
      dxz     :     0.153123
      dyz     :     0.151237
      dx2y2   :     0.005227
      dxy     :     0.006270
      f0      :     0.024404  f :     0.067238
      f+1     :     0.020384
      f-1     :     0.019946
      f+2     :     0.000935
      f-2     :     0.001045
      f+3     :     0.000264
      f-3     :     0.000261
 11 N s       :     3.299391  s :     3.299391
      pz      :     1.477376  p :     3.547537
      px      :     1.036455
      py      :     1.033706
      dz2     :     0.052259  d :     0.138623
      dxz     :     0.037933
      dyz     :     0.037986
      dx2y2   :     0.005325
      dxy     :     0.005120
      f0      :     0.007264  f :     0.018618
      f+1     :     0.004865
      f-1     :     0.004906
      f+2     :     0.000508
      f-2     :     0.000502
      f+3     :     0.000287
      f-3     :     0.000285
 12 C s       :     2.812398  s :     2.812398
      pz      :     1.019007  p :     3.118062
      px      :     1.049159
      py      :     1.049895
      dz2     :     0.083015  d :     0.291461
      dxz     :     0.062670
      dyz     :     0.071818
      dx2y2   :     0.034665
      dxy     :     0.039292
      f0      :     0.008411  f :     0.031560
      f+1     :     0.006699
      f-1     :     0.005955
      f+2     :     0.003008
      f-2     :     0.002724
      f+3     :     0.001775
      f-3     :     0.002989
 13 H s       :     0.788149  s :     0.788149
      pz      :     0.015252  p :     0.065401
      px      :     0.014111
      py      :     0.036038
 14 H s       :     0.788576  s :     0.788576
      pz      :     0.013186  p :     0.065378
      px      :     0.036050
      py      :     0.016142
 15 H s       :     0.791539  s :     0.791539
      pz      :     0.013830  p :     0.065255
      px      :     0.026584
      py      :     0.024841
 16 C s       :     2.834913  s :     2.834913
      pz      :     1.177659  p :     2.836663
      px      :     0.828697
      py      :     0.830307
      dz2     :     0.161848  d :     0.468567
      dxz     :     0.147288
      dyz     :     0.148377
      dx2y2   :     0.005216
      dxy     :     0.005839
      f0      :     0.024591  f :     0.066458
      f+1     :     0.019617
      f-1     :     0.019820
      f+2     :     0.000919
      f-2     :     0.000991
      f+3     :     0.000260
      f-3     :     0.000261
 17 N s       :     3.306909  s :     3.306909
      pz      :     1.476922  p :     3.508658
      px      :     1.016013
      py      :     1.015723
      dz2     :     0.052576  d :     0.141266
      dxz     :     0.039322
      dyz     :     0.039475
      dx2y2   :     0.004949
      dxy     :     0.004944
      f0      :     0.007237  f :     0.018808
      f+1     :     0.005002
      f-1     :     0.005038
      f+2     :     0.000489
      f-2     :     0.000487
      f+3     :     0.000277
      f-3     :     0.000277


                      *****************************
                      * MAYER POPULATION ANALYSIS *
                      *****************************

  NA   - Mulliken gross atomic population
  ZA   - Total nuclear charge
  QA   - Mulliken gross atomic charge
  VA   - Mayer's total valence
  BVA  - Mayer's bonded valence
  FA   - Mayer's free valence

  ATOM       NA         ZA         QA         VA         BVA        FA
  0 C      6.1911     6.0000    -0.1911     3.9064     3.6215     0.2849
  1 H      0.8604     1.0000     0.1396     0.9700     0.9210     0.0491
  2 H      0.8445     1.0000     0.1555     0.9722     0.9245     0.0477
  3 H      0.7991     1.0000     0.2009     0.9671     0.9200     0.0471
  4 C      6.0665     6.0000    -0.0665     3.9647     3.5285     0.4362
  5 N      7.2393     7.0000    -0.2393     3.1888     2.6965     0.4922
  6 C      6.1914     6.0000    -0.1914     3.9024     3.6181     0.2843
  7 H      0.7987     1.0000     0.2013     0.9676     0.9206     0.0470
  8 H      0.8463     1.0000     0.1537     0.9714     0.9233     0.0481
  9 H      0.8479     1.0000     0.1521     0.9696     0.9215     0.0480
 10 C      6.0618     6.0000    -0.0618     3.9720     3.5382     0.4338
 11 N      7.2530     7.0000    -0.2530     3.1925     2.7003     0.4922
 12 C      6.1789     6.0000    -0.1789     3.9266     3.6434     0.2831
 13 H      0.8382     1.0000     0.1618     0.9698     0.9225     0.0473
 14 H      0.8412     1.0000     0.1588     0.9687     0.9211     0.0476
 15 H      0.8491     1.0000     0.1509     0.9693     0.9210     0.0482
 16 C      6.1156     6.0000    -0.1156     4.0163     3.5769     0.4394
 17 N      7.1771     7.0000    -0.1771     3.2300     2.7441     0.4859

  Mayer bond orders larger than 0.100000
B(  0-C ,  1-H ) :   0.9297 B(  0-C ,  2-H ) :   0.9243 B(  0-C ,  3-H ) :   0.9126 
B(  0-C ,  4-C ) :   0.8721 B(  4-C ,  5-N ) :   2.6685 B(  6-C ,  7-H ) :   0.9119 
B(  6-C ,  8-H ) :   0.9229 B(  6-C ,  9-H ) :   0.9261 B(  6-C , 10-C ) :   0.8741 
B( 10-C , 11-N ) :   2.6727 B( 12-C , 13-H ) :   0.9257 B( 12-C , 14-H ) :   0.9263 
B( 12-C , 15-H ) :   0.9278 B( 12-C , 16-C ) :   0.8753 B( 16-C , 17-N ) :   2.7250 



                *******************************************
                * RELAXED MP2 DENSITY POPULATION ANALYSIS *
                *******************************************

------------------------------------------------------------------------------
                           ORCA POPULATION ANALYSIS
------------------------------------------------------------------------------
Input electron density              ... 12mecn.remya.etal.2.mol0,2,7-orca.engrad-mp2.def2tzvp.frozencore.pmp2re
BaseName (.gbw .S,...)              ... 12mecn.remya.etal.2.mol0,2,7-orca.engrad-mp2.def2tzvp.frozencore

                    ********************************
                    * MULLIKEN POPULATION ANALYSIS *
                    ********************************

-----------------------
MULLIKEN ATOMIC CHARGES
-----------------------
   0 C :   -0.286346
   1 H :    0.154762
   2 H :    0.169789
   3 H :    0.206343
   4 C :   -0.100643
   5 N :   -0.145059
   6 C :   -0.285627
   7 H :    0.206771
   8 H :    0.168405
   9 H :    0.166369
  10 C :   -0.100021
  11 N :   -0.154758
  12 C :   -0.279615
  13 H :    0.174842
  14 H :    0.172623
  15 H :    0.165317
  16 C :   -0.144530
  17 N :   -0.088622
Sum of atomic charges:   -0.0000000

--------------------------------
MULLIKEN REDUCED ORBITAL CHARGES
--------------------------------
  0 C s       :     3.188836  s :     3.188836
      pz      :     0.827894  p :     3.013628
      px      :     1.099262
      py      :     1.086472
      dz2     :     0.016018  d :     0.076807
      dxz     :     0.017310
      dyz     :     0.017111
      dx2y2   :     0.012603
      dxy     :     0.013764
      f0      :     0.001883  f :     0.007075
      f+1     :     0.000929
      f-1     :     0.000921
      f+2     :     0.000605
      f-2     :     0.000589
      f+3     :     0.000786
      f-3     :     0.001363
  1 H s       :     0.821204  s :     0.821204
      pz      :     0.005647  p :     0.024034
      px      :     0.010067
      py      :     0.008320
  2 H s       :     0.806044  s :     0.806044
      pz      :     0.006125  p :     0.024167
      px      :     0.005287
      py      :     0.012755
  3 H s       :     0.768843  s :     0.768843
      pz      :     0.005814  p :     0.024814
      px      :     0.013015
      py      :     0.005985
  4 C s       :     3.222626  s :     3.222626
      pz      :     0.968734  p :     2.753045
      px      :     0.889361
      py      :     0.894951
      dz2     :     0.023282  d :     0.105973
      dxz     :     0.036787
      dyz     :     0.036020
      dx2y2   :     0.004831
      dxy     :     0.005054
      f0      :     0.004399  f :     0.018998
      f+1     :     0.006455
      f-1     :     0.006419
      f+2     :     0.000589
      f-2     :     0.000623
      f+3     :     0.000258
      f-3     :     0.000256
  5 N s       :     3.682886  s :     3.682886
      pz      :     1.249488  p :     3.389633
      px      :     1.071655
      py      :     1.068490
      dz2     :     0.014392  d :     0.067346
      dxz     :     0.021476
      dyz     :     0.021347
      dx2y2   :     0.005115
      dxy     :     0.005017
[...]
      f+1     :     0.006363
      f-1     :     0.006318
      f+2     :     0.000632
      f-2     :     0.000671
      f+3     :     0.000258
      f-3     :     0.000256
 11 N s       :     3.676077  s :     3.676077
      pz      :     1.253182  p :     3.406224
      px      :     1.077394
      py      :     1.075647
      dz2     :     0.014438  d :     0.067247
      dxz     :     0.021289
      dyz     :     0.021209
      dx2y2   :     0.005210
      dxy     :     0.005101
      f0      :     0.000948  f :     0.005211
      f+1     :     0.001405
      f-1     :     0.001419
      f+2     :     0.000436
      f-2     :     0.000433
      f+3     :     0.000286
      f-3     :     0.000285
 12 C s       :     3.185398  s :     3.185398
      pz      :     0.842406  p :     3.009639
      px      :     1.080586
      py      :     1.086647
      dz2     :     0.016363  d :     0.077494
      dxz     :     0.016695
      dyz     :     0.018422
      dx2y2   :     0.012597
      dxy     :     0.013416
      f0      :     0.001831  f :     0.007084
      f+1     :     0.000941
      f-1     :     0.000961
      f+2     :     0.000600
      f-2     :     0.000592
      f+3     :     0.000904
      f-3     :     0.001254
 13 H s       :     0.801118  s :     0.801118
      pz      :     0.006325  p :     0.024039
      px      :     0.005184
      py      :     0.012530
 14 H s       :     0.803361  s :     0.803361
      pz      :     0.005523  p :     0.024017
      px      :     0.012611
      py      :     0.005883
 15 H s       :     0.810641  s :     0.810641
      pz      :     0.005793  p :     0.024043
      px      :     0.009399
      py      :     0.008851
 16 C s       :     3.210830  s :     3.210830
      pz      :     0.990079  p :     2.810020
      px      :     0.910034
      py      :     0.909906
      dz2     :     0.024666  d :     0.104682
      dxz     :     0.034987
      dyz     :     0.035212
      dx2y2   :     0.004768
      dxy     :     0.005048
      f0      :     0.004464  f :     0.018998
      f+1     :     0.006342
      f-1     :     0.006371
      f+2     :     0.000640
      f-2     :     0.000664
      f+3     :     0.000258
      f-3     :     0.000258
 17 N s       :     3.648483  s :     3.648483
      pz      :     1.262068  p :     3.366927
      px      :     1.052522
      py      :     1.052336
      dz2     :     0.014978  d :     0.068025
      dxz     :     0.021632
      dyz     :     0.021549
      dx2y2   :     0.004934
      dxy     :     0.004932
      f0      :     0.000944  f :     0.005187
      f+1     :     0.001423
      f-1     :     0.001414
      f+2     :     0.000426
      f-2     :     0.000426
      f+3     :     0.000277
      f-3     :     0.000277


                     *******************************
                     * LOEWDIN POPULATION ANALYSIS *
                     *******************************

----------------------
LOEWDIN ATOMIC CHARGES
----------------------
   0 C :   -0.283760
   1 H :    0.147022
   2 H :    0.152202
   3 H :    0.156816
   4 C :   -0.209020
   5 N :    0.035307
   6 C :   -0.281310
   7 H :    0.157687
   8 H :    0.153962
   9 H :    0.149879
  10 C :   -0.206201
  11 N :    0.027441
  12 C :   -0.284276
  13 H :    0.153156
  14 H :    0.152860
  15 H :    0.150126
  16 C :   -0.221226
  17 N :    0.049334

-------------------------------
LOEWDIN REDUCED ORBITAL CHARGES
-------------------------------
  0 C s       :     2.816379  s :     2.816379
      pz      :     1.032363  p :     3.159249
      px      :     1.066844
      py      :     1.060042
      dz2     :     0.076306  d :     0.276633
      dxz     :     0.065918
      dyz     :     0.068293
      dx2y2   :     0.029992
      dxy     :     0.036123
      f0      :     0.008113  f :     0.031499
      f+1     :     0.006660
      f-1     :     0.006408
      f+2     :     0.003068
      f-2     :     0.002630
      f+3     :     0.001329
      f-3     :     0.003292
  1 H s       :     0.787390  s :     0.787390
      pz      :     0.013972  p :     0.065588
      px      :     0.028325
      py      :     0.023291
  2 H s       :     0.781764  s :     0.781764
      pz      :     0.015171  p :     0.066034
      px      :     0.014877
      py      :     0.035985
  3 H s       :     0.774162  s :     0.774162
      pz      :     0.014680  p :     0.069022
      px      :     0.037234
      py      :     0.017108
  4 C s       :     2.840908  s :     2.840908
      pz      :     1.170208  p :     2.842801
      px      :     0.836059
      py      :     0.836534
      dz2     :     0.164183  d :     0.458480
      dxz     :     0.142590
      dyz     :     0.141165
      dx2y2   :     0.005038
      dxy     :     0.005504
      f0      :     0.025595  f :     0.066832
      f+1     :     0.019647
      f-1     :     0.019477
      f+2     :     0.000756
      f-2     :     0.000836
      f+3     :     0.000262
      f-3     :     0.000260
  5 N s       :     3.301258  s :     3.301258
      pz      :     1.465709  p :     3.508604
      px      :     1.020580
      py      :     1.022315
      dz2     :     0.053106  d :     0.135774
      dxz     :     0.036483
      dyz     :     0.036074
      dx2y2   :     0.005139
      dxy     :     0.004972
      f0      :     0.007388  f :     0.019058
      f+1     :     0.005107
      f-1     :     0.005081
      f+2     :     0.000460
      f-2     :     0.000455
      f+3     :     0.000284
      f-3     :     0.000283
  6 C s       :     2.817117  s :     2.817117
      pz      :     1.029193  p :     3.158456
      px      :     1.069942
      py      :     1.059321
      dz2     :     0.076364  d :     0.274467
      dxz     :     0.066040
      dyz     :     0.066287
      dx2y2   :     0.029581
      dxy     :     0.036196
      f0      :     0.008115  f :     0.031269
      f+1     :     0.006415
      f-1     :     0.006374
      f+2     :     0.003104
      f-2     :     0.002678
      f+3     :     0.001828
      f-3     :     0.002756
  7 H s       :     0.773564  s :     0.773564
      pz      :     0.014883  p :     0.068750
      px      :     0.037735
      py      :     0.016132
  8 H s       :     0.780256  s :     0.780256
      pz      :     0.014919  p :     0.065782
      px      :     0.015359
      py      :     0.035503
  9 H s       :     0.784056  s :     0.784056
      pz      :     0.013992  p :     0.066065
      px      :     0.027318
      py      :     0.024755
 10 C s       :     2.841993  s :     2.841993
      pz      :     1.170175  p :     2.837918
      px      :     0.833582
      py      :     0.834161
      dz2     :     0.163222  d :     0.459415
      dxz     :     0.142843
      dyz     :     0.142094
      dx2y2   :     0.005161
      dxy     :     0.006095
      f0      :     0.025430  f :     0.066876
      f+1     :     0.019572
      f-1     :     0.019418
      f+2     :     0.000928
      f-2     :     0.001004
      f+3     :     0.000263
      f-3     :     0.000261
 11 N s       :     3.299942  s :     3.299942
      pz      :     1.465269  p :     3.518318
      px      :     1.025040
      py      :     1.028009
      dz2     :     0.052744  d :     0.135241
      dxz     :     0.036218
      dyz     :     0.035840
      dx2y2   :     0.005323
      dxy     :     0.005116
      f0      :     0.007349  f :     0.019058
      f+1     :     0.005068
      f-1     :     0.005052
      f+2     :     0.000512
      f-2     :     0.000505
      f+3     :     0.000287
      f-3     :     0.000285
 12 C s       :     2.817315  s :     2.817315
      pz      :     1.036988  p :     3.154824
      px      :     1.058606
      py      :     1.059230
      dz2     :     0.075516  d :     0.280366
      dxz     :     0.064450
      dyz     :     0.072934
      dx2y2   :     0.031576
      dxy     :     0.035888
      f0      :     0.007936  f :     0.031772
      f+1     :     0.007123
      f-1     :     0.006354
      f+2     :     0.002996
      f-2     :     0.002709
      f+3     :     0.001739
      f-3     :     0.002915
 13 H s       :     0.781150  s :     0.781150
      pz      :     0.015700  p :     0.065694
      px      :     0.014566
      py      :     0.035428
 14 H s       :     0.781442  s :     0.781442
      pz      :     0.013774  p :     0.065698
      px      :     0.035434
      py      :     0.016491
 15 H s       :     0.784261  s :     0.784261
      pz      :     0.014382  p :     0.065613
      px      :     0.026456
      py      :     0.024775
 16 C s       :     2.840465  s :     2.840465
      pz      :     1.169020  p :     2.861699
      px      :     0.845943
      py      :     0.846736
      dz2     :     0.163918  d :     0.452588
      dxz     :     0.138327
      dyz     :     0.139486
      dx2y2   :     0.005141
      dxy     :     0.005716
      f0      :     0.025545  f :     0.066474
      f+1     :     0.019165
      f-1     :     0.019373
      f+2     :     0.000907
      f-2     :     0.000963
      f+3     :     0.000260
      f-3     :     0.000261
 17 N s       :     3.307079  s :     3.307079
      pz      :     1.463955  p :     3.487374
      px      :     1.011464
      py      :     1.011956
      dz2     :     0.053217  d :     0.137040
      dxz     :     0.036927
      dyz     :     0.037026
      dx2y2   :     0.004938
      dxy     :     0.004934
      f0      :     0.007336  f :     0.019172
      f+1     :     0.005137
      f-1     :     0.005164
      f+2     :     0.000491
      f-2     :     0.000489
      f+3     :     0.000277
      f-3     :     0.000277


                      *****************************
                      * MAYER POPULATION ANALYSIS *
                      *****************************

  NA   - Mulliken gross atomic population
  ZA   - Total nuclear charge
  QA   - Mulliken gross atomic charge
  VA   - Mayer's total valence
  BVA  - Mayer's bonded valence
  FA   - Mayer's free valence

  ATOM       NA         ZA         QA         VA         BVA        FA
  0 C      6.2863     6.0000    -0.2863     3.9111     3.6275     0.2836
  1 H      0.8452     1.0000     0.1548     0.9646     0.9162     0.0484
  2 H      0.8302     1.0000     0.1698     0.9657     0.9186     0.0471
  3 H      0.7937     1.0000     0.2063     0.9703     0.9238     0.0464
  4 C      6.1006     6.0000    -0.1006     4.0780     3.6526     0.4255
  5 N      7.1451     7.0000    -0.1451     3.2985     2.8192     0.4793
  6 C      6.2856     6.0000    -0.2856     3.9082     3.6252     0.2830
  7 H      0.7932     1.0000     0.2068     0.9703     0.9239     0.0464
  8 H      0.8316     1.0000     0.1684     0.9650     0.9175     0.0475
  9 H      0.8336     1.0000     0.1664     0.9636     0.9162     0.0474
 10 C      6.1000     6.0000    -0.1000     4.0873     3.6642     0.4232
 11 N      7.1548     7.0000    -0.1548     3.3042     2.8250     0.4792
 12 C      6.2796     6.0000    -0.2796     3.9305     3.6484     0.2821
 13 H      0.8252     1.0000     0.1748     0.9638     0.9170     0.0467
 14 H      0.8274     1.0000     0.1726     0.9626     0.9156     0.0470
 15 H      0.8347     1.0000     0.1653     0.9638     0.9161     0.0476
 16 C      6.1445     6.0000    -0.1445     4.1390     3.7105     0.4285
 17 N      7.0886     7.0000    -0.0886     3.3433     2.8697     0.4736

  Mayer bond orders larger than 0.100000
B(  0-C ,  1-H ) :   0.9195 B(  0-C ,  2-H ) :   0.9150 B(  0-C ,  3-H ) :   0.9015 
B(  0-C ,  4-C ) :   0.9003 B(  4-C ,  5-N ) :   2.7648 B(  6-C ,  7-H ) :   0.9008 
B(  6-C ,  8-H ) :   0.9136 B(  6-C ,  9-H ) :   0.9163 B(  6-C , 10-C ) :   0.9027 
B( 10-C , 11-N ) :   2.7703 B( 12-C , 13-H ) :   0.9164 B( 12-C , 14-H ) :   0.9171 
B( 12-C , 15-H ) :   0.9185 B( 12-C , 16-C ) :   0.8995 B( 16-C , 17-N ) :   2.8330 



----------------------------------
MP2 DERIVATIVE INTEGRAL GENERATION
----------------------------------


Input Wavefunction Amplitudes       ... 12mecn.remya.etal.2.mol0,2,7-orca.engrad-mp2.def2tzvp.frozencore.mp2tsaa.tmp
Input Correlated Electron Density   ... 12mecn.remya.etal.2.mol0,2,7-orca.engrad-mp2.def2tzvp.frozencore.pmp2re
Input Energy Weighted Density       ... 12mecn.remya.etal.2.mol0,2,7-orca.engrad-mp2.def2tzvp.frozencore.wmp2.tmp
Input SCF Electron Density          ... 12mecn.remya.etal.2.mol0,2,7-orca.engrad-mp2.def2tzvp.frozencore.scfp

One-Electron Terms    ...
                        ... One-Electron Terms done
Prescreening matrices              ... done

Batch handling in the gradient evaluation:
Memory available                      ... 8000.0 MB
Memory per occupied orbital in Q2     ...   20.3 MB
Memory per occupied orbital in Q3     ...    0.1 MB
Total memory requirement per |i>      ...   20.4 MB
Max. Number of orbitals possible      ...    391
Number of orbitals treated per batch  ...     24
Number of batches to be done          ...      1
Batch   0: i=    9 ...    32

---------------------------------------
MP2 TOTAL ENERGY:     -397.458648517 Eh
---------------------------------------

The final MP2 gradient
  0:  -0.00078126  -0.00209681  -0.00768863
  1:   0.00150005   0.00208784  -0.00075022
  2:   0.00016657  -0.00207572   0.00048278
  3:  -0.00171475   0.00122892   0.00006180
  4:  -0.00005310   0.00080750   0.00340665
  5:   0.00070551   0.00040449   0.00407344
  6:   0.00018596  -0.00073106   0.00831208
  7:   0.00183626  -0.00159006  -0.00075758
  8:  -0.00094444   0.00321163   0.00023475
  9:  -0.00082245  -0.00147286  -0.00123596
 10:   0.00027847   0.00029017  -0.00049653
 11:  -0.00046617   0.00004710  -0.00566292
 12:  -0.00063976   0.00152327  -0.00621324
 13:  -0.00094553   0.00387853  -0.00091998
 14:   0.00306318  -0.00180375  -0.00172997
 15:  -0.00195867  -0.00268132  -0.00139459
 16:   0.00048816  -0.00068355   0.00717842
 17:   0.00010196  -0.00034431   0.00309971

-----------------------------------
NORM OF THE MP2 GRADIENT:  0.019570
-----------------------------------

-------------------------   --------------------
FINAL SINGLE POINT ENERGY      -397.458648516952
-------------------------   --------------------


                            ***************************************
                            *     ORCA property calculations      *
                            ***************************************

                                    ---------------------
                                    Active property flags
                                    ---------------------
   (+) Dipole Moment


------------------------------------------------------------------------------
                       ORCA ELECTRIC PROPERTIES CALCULATION
------------------------------------------------------------------------------

Dipole Moment Calculation                       ... on
Quadrupole Moment Calculation                   ... off
Polarizability Calculation                      ... off
GBWName                                         ... 12mecn.remya.etal.2.mol0,2,7-orca.engrad-mp2.def2tzvp.frozencore.gbw
Electron density file                           ... 12mecn.remya.etal.2.mol0,2,7-orca.engrad-mp2.def2tzvp.frozencore.scfp
The origin for moment calculation is the CENTER OF MASS  = (-2.276947, -4.191274  0.392879)

-------------
DIPOLE MOMENT
-------------
                                X             Y             Z
Electronic contribution:     -0.09373       0.21261      -3.04000
Nuclear contribution   :      0.11276      -0.34917       4.60982
                        -----------------------------------------
Total Dipole Moment    :      0.01903      -0.13656       1.56983
                        -----------------------------------------
Magnitude (a.u.)       :      1.57587
Magnitude (Debye)      :      4.00554



--------------------
Rotational spectrum 
--------------------
 
Rotational constants in cm-1:     0.053847     0.014229     0.013522 
Rotational constants in MHz :  1614.285814   426.573431   405.390752 

 Dipole components along the rotational axes: 
x,y,z [a.u.] :     0.074022     1.270425    -0.929466 
x,y,z [Debye]:     0.188149     3.229164    -2.362514 

 

                         *** MP2 UNRELAXED DENSITY ***

------------------------------------------------------------------------------
                       ORCA ELECTRIC PROPERTIES CALCULATION
------------------------------------------------------------------------------

Dipole Moment Calculation                       ... on
Quadrupole Moment Calculation                   ... off
Polarizability Calculation                      ... off
GBWName                                         ... 12mecn.remya.etal.2.mol0,2,7-orca.engrad-mp2.def2tzvp.frozencore.gbw
Electron density file                           ... 12mecn.remya.etal.2.mol0,2,7-orca.engrad-mp2.def2tzvp.frozencore.pmp2ur
The origin for moment calculation is the CENTER OF MASS  = (-2.276947, -4.191274  0.392879)

-------------
DIPOLE MOMENT
-------------
                                X             Y             Z
Electronic contribution:     -0.09424       0.21610      -3.07555
Nuclear contribution   :      0.11276      -0.34917       4.60982
                        -----------------------------------------
Total Dipole Moment    :      0.01852      -0.13306       1.53428
                        -----------------------------------------
Magnitude (a.u.)       :      1.54015
Magnitude (Debye)      :      3.91475



--------------------
Rotational spectrum 
--------------------
 
Rotational constants in cm-1:     0.053847     0.014229     0.013522 
Rotational constants in MHz :  1614.285814   426.573431   405.390752 

 Dipole components along the rotational axes: 
x,y,z [a.u.] :     0.072552     1.241411    -0.908678 
x,y,z [Debye]:     0.184412     3.155417    -2.309675 

 

                           *** MP2 RELAXED DENSITY ***

------------------------------------------------------------------------------
                       ORCA ELECTRIC PROPERTIES CALCULATION
------------------------------------------------------------------------------

Dipole Moment Calculation                       ... on
Quadrupole Moment Calculation                   ... off
Polarizability Calculation                      ... off
GBWName                                         ... 12mecn.remya.etal.2.mol0,2,7-orca.engrad-mp2.def2tzvp.frozencore.gbw
Electron density file                           ... 12mecn.remya.etal.2.mol0,2,7-orca.engrad-mp2.def2tzvp.frozencore.pmp2re
The origin for moment calculation is the CENTER OF MASS  = (-2.276947, -4.191274  0.392879)

-------------
DIPOLE MOMENT
-------------
                                X             Y             Z
Electronic contribution:     -0.09529       0.22493      -3.16982
Nuclear contribution   :      0.11276      -0.34917       4.60982
                        -----------------------------------------
Total Dipole Moment    :      0.01747      -0.12424       1.44001
                        -----------------------------------------
Magnitude (a.u.)       :      1.44546
Magnitude (Debye)      :      3.67407



--------------------
Rotational spectrum 
--------------------
 
Rotational constants in cm-1:     0.053847     0.014229     0.013522 
Rotational constants in MHz :  1614.285814   426.573431   405.390752 

 Dipole components along the rotational axes: 
x,y,z [a.u.] :     0.068585     1.164818    -0.853143 
x,y,z [Debye]:     0.174330     2.960732    -2.168518 

 

Timings for individual modules:

Sum of individual times         ...      193.301 sec (=   3.222 min)
GTO integral calculation        ...        1.771 sec (=   0.030 min)   0.9 %
SCF iterations                  ...       41.428 sec (=   0.690 min)  21.4 %
MP2 module                      ...      150.102 sec (=   2.502 min)  77.7 %
                             ****ORCA TERMINATED NORMALLY****
TOTAL RUN TIME: 0 days 0 hours 3 minutes 14 seconds 490 msec
