
                                 *****************
                                 * O   R   C   A *
                                 *****************

           --- An Ab Initio, DFT and Semiempirical electronic structure package ---

                  #######################################################
                  #                        -***-                        #
                  #          Department of theory and spectroscopy      #
                  #               Directorship: Frank Neese             #
                  #        Max Planck Institute fuer Kohlenforschung    #
                  #                Kaiser Wilhelm Platz 1               #
                  #                 D-45470 Muelheim/Ruhr               #
                  #                      Germany                        #
                  #                                                     #
                  #                  All rights reserved                #
                  #                        -***-                        #
                  #######################################################


                         Program Version 4.2.0 -  RELEASE  -


 With contributions from (in alphabetic order):
   Daniel Aravena         : Magnetic Suceptibility
   Michael Atanasov       : Ab Initio Ligand Field Theory (pilot matlab implementation)
   Alexander A. Auer      : GIAO ZORA, VPT2
   Ute Becker             : Parallelization
   Giovanni Bistoni       : ED, misc. LED, open-shell LED, HFLED
   Martin Brehm           : Molecular dynamics
   Dmytro Bykov           : SCF Hessian
   Vijay G. Chilkuri      : MRCI spin determinant printing, contributions to CSF-ICE
   Dipayan Datta          : RHF DLPNO-CCSD density
   Achintya Kumar Dutta   : EOM-CC, STEOM-CC
   Dmitry Ganyushin       : Spin-Orbit,Spin-Spin,Magnetic field MRCI
   Miquel Garcia          : C-PCM Hessian, Gaussian charge scheme
   Yang Guo               : DLPNO-NEVPT2, CIM, IAO-localization
   Andreas Hansen         : Spin unrestricted coupled pair/coupled cluster methods
   Benjamin Helmich-Paris : CASSCF linear response (MC-RPA)
   Lee Huntington         : MR-EOM, pCC
   Robert Izsak           : Overlap fitted RIJCOSX, COSX-SCS-MP3, EOM
   Christian Kollmar      : KDIIS, OOCD, Brueckner-CCSD(T), CCSD density
   Simone Kossmann        : Meta GGA functionals, TD-DFT gradient, OOMP2, MP2 Hessian
   Martin Krupicka        : AUTO-CI
   Lucas Lang             : DCDCAS
   Dagmar Lenk            : GEPOL surface, SMD
   Dimitrios Liakos       : Extrapolation schemes; Compound Job, initial MDCI parallelization
   Dimitrios Manganas     : Further ROCIS development; embedding schemes
   Dimitrios Pantazis     : SARC Basis sets
   Taras Petrenko         : DFT Hessian,TD-DFT gradient, ASA, ECA, R-Raman, ABS, FL, XAS/XES, NRVS
   Peter Pinski           : DLPNO-MP2, DLPNO-MP2 Gradient
   Christoph Reimann      : Effective Core Potentials
   Marius Retegan         : Local ZFS, SOC
   Christoph Riplinger    : Optimizer, TS searches, QM/MM, DLPNO-CCSD(T), (RO)-DLPNO pert. Triples
   Tobias Risthaus        : Range-separated hybrids, TD-DFT gradient, RPA, STAB
   Michael Roemelt        : Original ROCIS implementation
   Masaaki Saitow         : Open-shell DLPNO-CCSD energy and density
   Barbara Sandhoefer     : DKH picture change effects
   Avijit Sen             : IP-ROCIS
   Kantharuban Sivalingam : CASSCF convergence, NEVPT2, FIC-MRCI
   Bernardo de Souza      : ESD, SOC TD-DFT
   Georgi Stoychev        : AutoAux, RI-MP2 NMR
   Willem Van den Heuvel  : Paramagnetic NMR
   Boris Wezisla          : Elementary symmetry handling
   Frank Wennmohs         : Technical directorship


 We gratefully acknowledge several colleagues who have allowed us to
 interface, adapt or use parts of their codes:
   Stefan Grimme, W. Hujo, H. Kruse,             : VdW corrections, initial TS optimization,
                  C. Bannwarth                     DFT functionals, gCP, sTDA/sTD-DF
   Ed Valeev, F. Pavosevic, A. Kumar             : LibInt (2-el integral package), F12 methods
   Garnet Chan, S. Sharma, J. Yang, R. Olivares  : DMRG
   Ulf Ekstrom                                   : XCFun DFT Library
   Mihaly Kallay                                 : mrcc  (arbitrary order and MRCC methods)
   Andreas Klamt, Michael Diedenhofen            : otool_cosmo (COSMO solvation model)
   Jiri Pittner, Ondrej Demel                    : Mk-CCSD
   Frank Weinhold                                : gennbo (NPA and NBO analysis)
   Christopher J. Cramer and Donald G. Truhlar   : smd solvation model
   Lars Goerigk                                  : TD-DFT with DH, B97 family of functionals
   V. Asgeirsson, H. Jonsson                     : NEB implementation
   FAccTs GmbH                                   : IRC, NEB, NEB-TS, Multilevel, MM, QM/MM, CI optimization
   S Lehtola, MJT Oliveira, MAL Marques          : LibXC Library


 Your calculation uses the libint2 library for the computation of 2-el integrals
 For citations please refer to: http://libint.valeyev.net

 Your ORCA version has been built with support for libXC version: 4.2.3
 For citations please refer to: https://tddft.org/programs/libxc/

 This ORCA versions uses:
   CBLAS   interface :  Fast vector & matrix operations
   LAPACKE interface :  Fast linear algebra routines
   SCALAPACK package :  Parallel linear algebra routines


----- Orbital basis set information -----
Your calculation utilizes the basis: def2-TZVP
   F. Weigend and R. Ahlrichs, Phys. Chem. Chem. Phys. 7, 3297 (2005).

================================================================================
                                        WARNINGS
                       Please study these warnings very carefully!
================================================================================


WARNING: The frozen-core approximation for MP2-gradient calculations is turned on by default.

INFO   : the flag for use of LIBINT has been found!

================================================================================
                                       INPUT FILE
================================================================================
NAME = 12mecn.remya.etal.2.mol0,3,8-orca.engrad-mp2.def2tzvp.frozencore.inp
|  1> # 12mecn.remya.etal.2.mol0,3,8
|  2> ! MP2 def2-TZVP EnGrad TightSCF
|  3> 
|  4> %pal
|  5>     nprocs 6
|  6> end
|  7> 
|  8> %maxcore 8000
|  9> 
| 10> %scf
| 11>     ConvForced true
| 12> end
| 13> 
| 14> *xyz 0 1
| 15> C  -0.869520000  -3.929380000   1.700199000
| 16> H  -0.057420000  -3.268850000   2.015352000
| 17> H  -0.697530000  -4.930670000   2.101524000
| 18> H  -1.821490000  -3.546590000   2.077146000
| 19> C  -0.916080000  -3.969960000   0.256749000
| 20> N  -0.955390000  -3.995980000  -0.909290000
| 21> C  -5.181310000   2.853865000  -1.626100000
| 22> H  -5.488260000   3.811434000  -2.053310000
| 23> H  -5.857590000   2.068112000  -1.968630000
| 24> H  -4.170750000   2.611402000  -1.966640000
| 25> C  -5.187260000   2.919160000  -0.181450000
| 26> N  -5.181700000   2.970641000   0.983640000
| 27> C   1.912641000  -2.468050000  -1.750510000
| 28> H   2.876947000  -2.793500000  -2.151200000
| 29> H   1.688016000  -1.463720000  -2.122170000
| 30> H   1.123460000  -3.154780000  -2.069590000
| 31> C   1.977850000  -2.444240000  -0.306900000
| 32> N   2.036566000  -2.426130000   0.858249000
| 33> *
| 34> 
| 35>                          ****END OF INPUT****
================================================================================

                     *******************************
                     * Energy+Gradient Calculation *
                     *******************************

---------------------------------
CARTESIAN COORDINATES (ANGSTROEM)
---------------------------------
  C     -0.869520   -3.929380    1.700199
  H     -0.057420   -3.268850    2.015352
  H     -0.697530   -4.930670    2.101524
  H     -1.821490   -3.546590    2.077146
  C     -0.916080   -3.969960    0.256749
  N     -0.955390   -3.995980   -0.909290
  C     -5.181310    2.853865   -1.626100
  H     -5.488260    3.811434   -2.053310
  H     -5.857590    2.068112   -1.968630
  H     -4.170750    2.611402   -1.966640
  C     -5.187260    2.919160   -0.181450
  N     -5.181700    2.970641    0.983640
  C      1.912641   -2.468050   -1.750510
  H      2.876947   -2.793500   -2.151200
  H      1.688016   -1.463720   -2.122170
  H      1.123460   -3.154780   -2.069590
  C      1.977850   -2.444240   -0.306900
  N      2.036566   -2.426130    0.858249

----------------------------
CARTESIAN COORDINATES (A.U.)
----------------------------
  NO LB      ZA    FRAG     MASS         X           Y           Z
   0 C     6.0000    0    12.011   -1.643155   -7.425452    3.212910
   1 H     1.0000    0     1.008   -0.108508   -6.177231    3.808463
   2 H     1.0000    0     1.008   -1.318141   -9.317616    3.971305
   3 H     1.0000    0     1.008   -3.442117   -6.702084    3.925237
   4 C     6.0000    0    12.011   -1.731140   -7.502137    0.485185
   5 N     7.0000    0    14.007   -1.805425   -7.551308   -1.718309
   6 C     6.0000    0    12.011   -9.791257    5.393023   -3.072884
   7 H     1.0000    0     1.008  -10.371308    7.202566   -3.880194
   8 H     1.0000    0     1.008  -11.069241    3.908165   -3.720172
   9 H     1.0000    0     1.008   -7.881575    4.934835   -3.716411
  10 C     6.0000    0    12.011   -9.802501    5.516413   -0.342891
  11 N     7.0000    0    14.007   -9.791994    5.613698    1.858810
  12 C     6.0000    0    12.011    3.614368   -4.663939   -3.307984
  13 H     1.0000    0     1.008    5.436642   -5.278950   -4.065179
  14 H     1.0000    0     1.008    3.189888   -2.766030   -4.010320
  15 H     1.0000    0     1.008    2.123032   -5.961670   -3.910958
  16 C     6.0000    0    12.011    3.737595   -4.618944   -0.579957
  17 N     7.0000    0    14.007    3.848552   -4.584721    1.621856

--------------------------------
INTERNAL COORDINATES (ANGSTROEM)
--------------------------------
 C      0   0   0     0.000000000000     0.00000000     0.00000000
 H      1   0   0     1.093218964485     0.00000000     0.00000000
 H      1   2   0     1.092347920685   109.32735472     0.00000000
 H      1   2   3     1.093098397130   109.63009885   119.86690662
 C      1   2   3     1.444770733542   109.20363402   239.27834980
 N      5   1   2     1.166991544966   179.65780255   294.97577729
 C      6   5   1     8.080383217801    95.01134761   342.64654043
 H      7   6   5     1.092549804980   157.60812460   142.20161420
 H      7   6   5     1.091828382260    75.03059527   247.19962348
 H      7   6   5     1.093612048017    49.93997428   116.58154787
 C      7   6   5     1.446137082722    87.23775779   358.83626639
 N     11   7   6     1.166240076083   179.48782841    51.92845255
 C      6   5   1     3.356757809295   102.20855938    76.01570247
 H     13   6   5     1.093780709391   135.20517733   106.26780053
 H     13   6   5     1.094196643719   109.11826388   253.86881207
 H     13   6   5     1.093716960672    33.98399906   157.61612915
 C     13   6   5     1.445278160729    78.21339132     0.61577108
 N     17  13   6     1.166768071622   179.69652586   141.70145850

---------------------------
INTERNAL COORDINATES (A.U.)
---------------------------
 C      0   0   0     0.000000000000     0.00000000     0.00000000
 H      1   0   0     2.065884447285     0.00000000     0.00000000
 H      1   2   0     2.064238413053   109.32735472     0.00000000
 H      1   2   3     2.065656608005   109.63009885   119.86690662
 C      1   2   3     2.730221012699   109.20363402   239.27834980
 N      5   1   2     2.205294420586   179.65780255   294.97577729
 C      6   5   1    15.269711338778    95.01134761   342.64654043
 H      7   6   5     2.064619919081   157.60812460   142.20161420
 H      7   6   5     2.063256627714    75.03059527   247.19962348
 H      7   6   5     2.066627267510    49.93997428   116.58154787
 C      7   6   5     2.732803038453    87.23775779   358.83626639
 N     11   7   6     2.203874350199   179.48782841    51.92845255
 C      6   5   1     6.343352957468   102.20855938    76.01570247
 H     13   6   5     2.066945991315   135.20517733   106.26780053
 H     13   6   5     2.067731993284   109.11826388   253.86881207
 H     13   6   5     2.066825523694    33.98399906   157.61612915
 C     13   6   5     2.731179911116    78.21339132     0.61577108
 N     17  13   6     2.204872117169   179.69652586   141.70145850

---------------------
BASIS SET INFORMATION
---------------------
There are 3 groups of distinct atoms

 Group   1 Type C   : 11s6p2d1f contracted to 5s3p2d1f pattern {62111/411/11/1}
 Group   2 Type H   : 5s1p contracted to 3s1p pattern {311/1}
 Group   3 Type N   : 11s6p2d1f contracted to 5s3p2d1f pattern {62111/411/11/1}

Atom   0C    basis set group =>   1
Atom   1H    basis set group =>   2
Atom   2H    basis set group =>   2
Atom   3H    basis set group =>   2
Atom   4C    basis set group =>   1
Atom   5N    basis set group =>   3
Atom   6C    basis set group =>   1
Atom   7H    basis set group =>   2
Atom   8H    basis set group =>   2
Atom   9H    basis set group =>   2
Atom  10C    basis set group =>   1
Atom  11N    basis set group =>   3
Atom  12C    basis set group =>   1
Atom  13H    basis set group =>   2
Atom  14H    basis set group =>   2
Atom  15H    basis set group =>   2
Atom  16C    basis set group =>   1
Atom  17N    basis set group =>   3


           ************************************************************
           *        Program running with 6 parallel MPI-processes     *
           *              working on a common directory               *
           ************************************************************
------------------------------------------------------------------------------
                           ORCA GTO INTEGRAL CALCULATION
------------------------------------------------------------------------------

                         BASIS SET STATISTICS AND STARTUP INFO

 # of primitive gaussian shells          ...  234
 # of primitive gaussian functions       ...  486
 # of contracted shells                  ...  135
 # of contracted basis functions         ...  333
 Highest angular momentum                ...    3
 Maximum contraction depth               ...    6
 Integral package used                   ... LIBINT
 Integral threshhold            Thresh   ...  2.500e-11
 Primitive cut-off              TCut     ...  2.500e-12


------------------------------ INTEGRAL EVALUATION ----------------------------


 * One electron integrals 
 Pre-screening matrix                    ... done
 Shell pair data                         ... done (   0.002 sec)



           ************************************************************
           *        Program running with 6 parallel MPI-processes     *
           *              working on a common directory               *
           ************************************************************
-------------------------------------------------------------------------------
                                 ORCA SCF
-------------------------------------------------------------------------------

------------
SCF SETTINGS
------------
Hamiltonian:
 Ab initio Hamiltonian  Method          .... Hartree-Fock(GTOs)


General Settings:
 Integral files         IntName         .... 12mecn.remya.etal.2.mol0,3,8-orca.engrad-mp2.def2tzvp.frozencore
 Hartree-Fock type      HFTyp           .... RHF
 Total Charge           Charge          ....    0
 Multiplicity           Mult            ....    1
 Number of Electrons    NEL             ....   66
 Basis Dimension        Dim             ....  333
 Nuclear Repulsion      ENuc            ....    303.6061949035 Eh

Convergence Acceleration:
 DIIS                   CNVDIIS         .... on
   Start iteration      DIISMaxIt       ....    12
   Startup error        DIISStart       ....  0.200000
   # of expansion vecs  DIISMaxEq       ....     5
   Bias factor          DIISBfac        ....   1.050
   Max. coefficient     DIISMaxC        ....  10.000
 Newton-Raphson         CNVNR           .... off
 SOSCF                  CNVSOSCF        .... on
   Start iteration      SOSCFMaxIt      ....   150
   Startup grad/error   SOSCFStart      ....  0.003300
 Level Shifting         CNVShift        .... on
   Level shift para.    LevelShift      ....    0.2500
   Turn off err/grad.   ShiftErr        ....    0.0010
 Zerner damping         CNVZerner       .... off
 Static damping         CNVDamp         .... on
   Fraction old density DampFac         ....    0.7000
   Max. Damping (<1)    DampMax         ....    0.9800
   Min. Damping (>=0)   DampMin         ....    0.0000
   Turn off err/grad.   DampErr         ....    0.1000
 Fernandez-Rico         CNVRico         .... off

SCF Procedure:
 Maximum # iterations   MaxIter         ....   125
 SCF integral mode      SCFMode         .... Direct
   Integral package                     .... LIBINT
 Reset frequency        DirectResetFreq ....    20
 Integral Threshold     Thresh          ....  2.500e-11 Eh
 Primitive CutOff       TCut            ....  2.500e-12 Eh

Convergence Tolerance:
 Convergence Check Mode ConvCheckMode   .... Total+1el-Energy
 Convergence forced     ConvForced      .... 1
 Energy Change          TolE            ....  1.000e-08 Eh
 1-El. energy change                    ....  1.000e-05 Eh
 Orbital Gradient       TolG            ....  1.000e-05
 Orbital Rotation angle TolX            ....  1.000e-05
 DIIS Error             TolErr          ....  5.000e-07


Diagonalization of the overlap matrix:
Smallest eigenvalue                        ... 1.501e-04
Time for diagonalization                   ...    0.015 sec
Threshold for overlap eigenvalues          ... 1.000e-08
Number of eigenvalues below threshold      ... 0
Time for construction of square roots      ...    0.008 sec
Total time needed                          ...    0.024 sec

-------------------
DFT GRID GENERATION
-------------------

General Integration Accuracy     IntAcc      ...  4.340
Radial Grid Type                 RadialGrid  ... Gauss-Chebyshev
Angular Grid (max. acc.)         AngularGrid ... Lebedev-110
Angular grid pruning method      GridPruning ... 3 (G Style)
Weight generation scheme         WeightScheme... Becke
Basis function cutoff            BFCut       ...    1.0000e-11
Integration weight cutoff        WCut        ...    1.0000e-14
Grids for H and He will be reduced by one unit

# of grid points (after initial pruning)     ...  22188 (   0.0 sec)
# of grid points (after weights+screening)   ...  21048 (   0.0 sec)
nearest neighbour list constructed           ...    0.0 sec
Grid point re-assignment to atoms done       ...    0.0 sec
Grid point division into batches done        ...    0.0 sec
Reduced shell lists constructed in    0.0 sec

Total number of grid points                  ...    21048
Total number of batches                      ...      339
Average number of points per batch           ...       62
Average number of grid points per atom       ...     1169
Average number of shells per batch           ...    60.22 (44.61%)
Average number of basis functions per batch  ...   146.64 (44.04%)
Average number of large shells per batch     ...    44.41 (73.75%)
Average number of large basis fcns per batch ...   106.31 (72.50%)
Maximum spatial batch extension              ...  19.34, 15.68, 18.58 au
Average spatial batch extension              ...   0.72,  0.78,  0.79 au

Time for grid setup =    0.067 sec

------------------------------
INITIAL GUESS: MODEL POTENTIAL
------------------------------
Loading Hartree-Fock densities                     ... done
Calculating cut-offs                               ... done
Setting up the integral package                    ... done
Initializing the effective Hamiltonian             ... done
Starting the Coulomb interaction                   ... done (   0.0 sec)
Reading the grid                                   ... done
Mapping shells                                     ... done
Starting the XC term evaluation                    ... done (   0.0 sec)
Transforming the Hamiltonian                       ... done (   0.0 sec)
Diagonalizing the Hamiltonian                      ... done (   0.0 sec)
Back transforming the eigenvectors                 ... done (   0.0 sec)
Now organizing SCF variables                       ... done
                      ------------------
                      INITIAL GUESS DONE (   0.2 sec)
                      ------------------
--------------
SCF ITERATIONS
--------------
ITER       Energy         Delta-E        Max-DP      RMS-DP      [F,P]     Damp
               ***  Starting incremental Fock matrix formation  ***
  0   -395.4454020656   0.000000000000 0.03780040  0.00084600  0.2817320 0.7000
  1   -395.6182027101  -0.172800644554 0.02706875  0.00066714  0.1878523 0.7000
                               ***Turning on DIIS***
  2   -395.7197628042  -0.101560094136 0.01612605  0.00044170  0.1421018 0.7000
  3   -396.6764413699  -0.956678565683 0.01048611  0.00028957  0.1055936 0.7000
  4   -396.6211245581   0.055316811810 0.02837680  0.00070508  0.0743930 0.0000
  5   -395.9570753413   0.664049216834 0.00620086  0.00011335  0.0061230 0.0000
                      *** Initiating the SOSCF procedure ***
                           *** Shutting down DIIS ***
                      *** Re-Reading the Fockian *** 
                      *** Removing any level shift *** 
ITER      Energy       Delta-E        Grad      Rot      Max-DP    RMS-DP
  6   -395.93862855   0.0184467949  0.001330  0.001330  0.004321  0.000070
               *** Restarting incremental Fock matrix formation ***
  7   -395.92927842   0.0093501239  0.000497  0.000788  0.002936  0.000049
  8   -395.92929773  -0.0000193112  0.000366  0.000555  0.002518  0.000042
  9   -395.92930229  -0.0000045558  0.000135  0.000163  0.000768  0.000012
 10   -395.92930294  -0.0000006470  0.000024  0.000041  0.000087  0.000001
 11   -395.92930296  -0.0000000249  0.000016  0.000048  0.000048  0.000001
 12   -395.92930297  -0.0000000116  0.000007  0.000011  0.000035  0.000000
 13   -395.92930297  -0.0000000019  0.000005  0.000007  0.000013  0.000000
                  ***Gradient check signals convergence***
              ***Rediagonalizing the Fockian in SOSCF/NRSCF***

               *****************************************************
               *                     SUCCESS                       *
               *           SCF CONVERGED AFTER  14 CYCLES          *
               *****************************************************


----------------
TOTAL SCF ENERGY
----------------

Total Energy       :         -395.92930298 Eh          -10773.78406 eV

Components:
Nuclear Repulsion  :          303.60619490 Eh            8261.54457 eV
Electronic Energy  :         -699.53549788 Eh          -19035.32863 eV
One Electron Energy:        -1136.23317279 Eh          -30918.47650 eV
Two Electron Energy:          436.69767491 Eh           11883.14786 eV

Virial components:
Potential Energy   :         -791.08316239 Eh          -21526.46723 eV
Kinetic Energy     :          395.15385942 Eh           10752.68317 eV
Virial Ratio       :            2.00196238


---------------
SCF CONVERGENCE
---------------

  Last Energy change         ...   -2.0675e-09  Tolerance :   1.0000e-08
  Last MAX-Density change    ...    3.2350e-06  Tolerance :   1.0000e-07
  Last RMS-Density change    ...    5.1717e-08  Tolerance :   5.0000e-09
  Last Orbital Gradient      ...    1.6605e-06  Tolerance :   1.0000e-05
  Last Orbital Rotation      ...    4.1258e-06  Tolerance :   1.0000e-05

             **** THE GBW FILE WAS UPDATED (12mecn.remya.etal.2.mol0,3,8-orca.engrad-mp2.def2tzvp.frozencore.gbw) ****
             **** DENSITY FILE WAS UPDATED (12mecn.remya.etal.2.mol0,3,8-orca.engrad-mp2.def2tzvp.frozencore.scfp) ****
             **** ENERGY FILE WAS UPDATED (12mecn.remya.etal.2.mol0,3,8-orca.engrad-mp2.def2tzvp.frozencore.en.tmp) ****
             **** THE GBW FILE WAS UPDATED (12mecn.remya.etal.2.mol0,3,8-orca.engrad-mp2.def2tzvp.frozencore.gbw) ****
             **** DENSITY FILE WAS UPDATED (12mecn.remya.etal.2.mol0,3,8-orca.engrad-mp2.def2tzvp.frozencore.scfp) ****
----------------
ORBITAL ENERGIES
----------------

  NO   OCC          E(Eh)            E(eV) 
   0   2.0000     -15.573435      -423.7747 
   1   2.0000     -15.571598      -423.7247 
   2   2.0000     -15.571417      -423.7198 
   3   2.0000     -11.285004      -307.0806 
   4   2.0000     -11.283647      -307.0436 
   5   2.0000     -11.283035      -307.0270 
   6   2.0000     -11.280470      -306.9572 
   7   2.0000     -11.273142      -306.7578 
   8   2.0000     -11.271457      -306.7119 
   9   2.0000      -1.218242       -33.1500 
  10   2.0000      -1.215081       -33.0640 
  11   2.0000      -1.214248       -33.0414 
  12   2.0000      -1.043897       -28.4059 
  13   2.0000      -1.036922       -28.2161 
  14   2.0000      -1.034218       -28.1425 
  15   2.0000      -0.701328       -19.0841 
  16   2.0000      -0.695003       -18.9120 
  17   2.0000      -0.690798       -18.7976 
  18   2.0000      -0.632626       -17.2146 
  19   2.0000      -0.631144       -17.1743 
  20   2.0000      -0.630350       -17.1527 
  21   2.0000      -0.623447       -16.9648 
  22   2.0000      -0.621433       -16.9101 
  23   2.0000      -0.615368       -16.7450 
  24   2.0000      -0.559542       -15.2259 
  25   2.0000      -0.556373       -15.1397 
  26   2.0000      -0.556349       -15.1390 
  27   2.0000      -0.460118       -12.5204 
  28   2.0000      -0.459970       -12.5164 
  29   2.0000      -0.458425       -12.4744 
  30   2.0000      -0.457893       -12.4599 
  31   2.0000      -0.457075       -12.4376 
  32   2.0000      -0.455866       -12.4047 
  33   0.0000       0.119056         3.2397 
  34   0.0000       0.127586         3.4718 
  35   0.0000       0.142572         3.8796 
  36   0.0000       0.170113         4.6290 
  37   0.0000       0.171079         4.6553 
  38   0.0000       0.171416         4.6645 
  39   0.0000       0.173370         4.7176 
  40   0.0000       0.178050         4.8450 
  41   0.0000       0.194609         5.2956 
  42   0.0000       0.202048         5.4980 
  43   0.0000       0.208860         5.6834 
  44   0.0000       0.216072         5.8796 
  45   0.0000       0.224250         6.1021 
  46   0.0000       0.225313         6.1311 
  47   0.0000       0.226471         6.1626 
  48   0.0000       0.230397         6.2694 
  49   0.0000       0.257134         6.9970 
  50   0.0000       0.263882         7.1806 
  51   0.0000       0.269534         7.3344 
  52   0.0000       0.278248         7.5715 
  53   0.0000       0.316268         8.6061 
  54   0.0000       0.318965         8.6795 
  55   0.0000       0.319786         8.7018 
  56   0.0000       0.324700         8.8355 
  57   0.0000       0.324846         8.8395 
  58   0.0000       0.333853         9.0846 
  59   0.0000       0.350540         9.5387 
  60   0.0000       0.381373        10.3777 
  61   0.0000       0.381463        10.3801 
  62   0.0000       0.386735        10.5236 
  63   0.0000       0.398290        10.8380 
  64   0.0000       0.408054        11.1037 
  65   0.0000       0.418336        11.3835 
  66   0.0000       0.452950        12.3254 
  67   0.0000       0.470532        12.8038 
  68   0.0000       0.481015        13.0891 
  69   0.0000       0.493811        13.4373 
  70   0.0000       0.496559        13.5121 
  71   0.0000       0.528217        14.3735 
  72   0.0000       0.529340        14.4041 
  73   0.0000       0.548145        14.9158 
  74   0.0000       0.557592        15.1728 
  75   0.0000       0.587946        15.9988 
  76   0.0000       0.597559        16.2604 
  77   0.0000       0.598466        16.2851 
  78   0.0000       0.600359        16.3366 
  79   0.0000       0.602338        16.3905 
  80   0.0000       0.610659        16.6169 
  81   0.0000       0.615632        16.7522 
  82   0.0000       0.634662        17.2700 
  83   0.0000       0.658886        17.9292 
  84   0.0000       0.659485        17.9455 
  85   0.0000       0.660861        17.9829 
  86   0.0000       0.665415        18.1069 
  87   0.0000       0.673480        18.3263 
  88   0.0000       0.705504        19.1977 
  89   0.0000       0.705878        19.2079 
  90   0.0000       0.729853        19.8603 
  91   0.0000       0.742580        20.2066 
  92   0.0000       0.750159        20.4129 
  93   0.0000       0.785311        21.3694 
  94   0.0000       0.807340        21.9688 
  95   0.0000       0.809628        22.0311 
  96   0.0000       0.811770        22.0894 
  97   0.0000       0.813549        22.1378 
  98   0.0000       0.815453        22.1896 
  99   0.0000       0.849917        23.1274 
 100   0.0000       0.853851        23.2345 
 101   0.0000       0.910728        24.7822 
 102   0.0000       0.917335        24.9619 
 103   0.0000       0.919475        25.0202 
 104   0.0000       0.928805        25.2741 
 105   0.0000       0.936774        25.4909 
 106   0.0000       0.965436        26.2709 
 107   0.0000       1.031645        28.0725 
 108   0.0000       1.034383        28.1470 
 109   0.0000       1.054755        28.7013 
 110   0.0000       1.087640        29.5962 
 111   0.0000       1.123760        30.5791 
 112   0.0000       1.124636        30.6029 
 113   0.0000       1.133055        30.8320 
 114   0.0000       1.143046        31.1039 
 115   0.0000       1.150635        31.3104 
 116   0.0000       1.175059        31.9750 
 117   0.0000       1.322138        35.9772 
 118   0.0000       1.335331        36.3362 
 119   0.0000       1.336564        36.3697 
 120   0.0000       1.389921        37.8217 
 121   0.0000       1.419645        38.6305 
 122   0.0000       1.420338        38.6494 
 123   0.0000       1.422908        38.7193 
 124   0.0000       1.426158        38.8077 
 125   0.0000       1.448785        39.4235 
 126   0.0000       1.449563        39.4446 
 127   0.0000       1.455511        39.6065 
 128   0.0000       1.465375        39.8749 
 129   0.0000       1.468157        39.9506 
 130   0.0000       1.471062        40.0296 
 131   0.0000       1.474355        40.1192 
 132   0.0000       1.484353        40.3913 
 133   0.0000       1.498120        40.7659 
 134   0.0000       1.509401        41.0729 
 135   0.0000       1.515283        41.2329 
 136   0.0000       1.528896        41.6034 
 137   0.0000       1.561918        42.5019 
 138   0.0000       1.693831        46.0915 
 139   0.0000       1.697692        46.1965 
 140   0.0000       1.698016        46.2054 
 141   0.0000       1.720640        46.8210 
 142   0.0000       1.734952        47.2104 
 143   0.0000       1.737884        47.2902 
 144   0.0000       1.748891        47.5897 
 145   0.0000       1.762481        47.9595 
 146   0.0000       1.763441        47.9857 
 147   0.0000       1.765741        48.0483 
 148   0.0000       1.783772        48.5389 
 149   0.0000       1.786227        48.6057 
 150   0.0000       1.797521        48.9130 
 151   0.0000       1.799613        48.9699 
 152   0.0000       1.819988        49.5244 
 153   0.0000       1.822779        49.6003 
 154   0.0000       1.834256        49.9126 
 155   0.0000       1.863743        50.7150 
 156   0.0000       1.933901        52.6241 
 157   0.0000       1.935455        52.6664 
 158   0.0000       1.938491        52.7490 
 159   0.0000       1.944353        52.9085 
 160   0.0000       1.971022        53.6342 
 161   0.0000       1.971311        53.6421 
 162   0.0000       1.976516        53.7837 
 163   0.0000       2.011290        54.7300 
 164   0.0000       2.031718        55.2859 
 165   0.0000       2.219056        60.3836 
 166   0.0000       2.225259        60.5524 
 167   0.0000       2.233496        60.7765 
 168   0.0000       2.239123        60.9296 
 169   0.0000       2.248662        61.1892 
 170   0.0000       2.251342        61.2621 
 171   0.0000       2.259332        61.4795 
 172   0.0000       2.268494        61.7289 
 173   0.0000       2.300641        62.6036 
 174   0.0000       2.340711        63.6940 
 175   0.0000       2.365011        64.3552 
 176   0.0000       2.366602        64.3985 
 177   0.0000       2.542752        69.1918 
 178   0.0000       2.549480        69.3749 
 179   0.0000       2.552367        69.4534 
 180   0.0000       2.563898        69.7672 
 181   0.0000       2.571074        69.9625 
 182   0.0000       2.576270        70.1039 
 183   0.0000       2.580942        70.2310 
 184   0.0000       2.594293        70.5943 
 185   0.0000       2.614790        71.1521 
 186   0.0000       2.620779        71.3150 
 187   0.0000       2.625266        71.4371 
 188   0.0000       2.626587        71.4731 
 189   0.0000       2.643803        71.9415 
 190   0.0000       2.647867        72.0521 
 191   0.0000       2.681351        72.9633 
 192   0.0000       2.701764        73.5187 
 193   0.0000       2.709989        73.7425 
 194   0.0000       2.740111        74.5622 
 195   0.0000       2.742607        74.6301 
 196   0.0000       2.745525        74.7095 
 197   0.0000       2.753528        74.9273 
 198   0.0000       2.757551        75.0368 
 199   0.0000       2.760245        75.1101 
 200   0.0000       2.813178        76.5505 
 201   0.0000       2.910374        79.1953 
 202   0.0000       2.912956        79.2656 
 203   0.0000       2.913015        79.2672 
 204   0.0000       2.914446        79.3061 
 205   0.0000       2.915599        79.3375 
 206   0.0000       2.921463        79.4970 
 207   0.0000       2.944714        80.1297 
 208   0.0000       2.951552        80.3158 
 209   0.0000       2.955651        80.4274 
 210   0.0000       2.956505        80.4506 
 211   0.0000       2.965186        80.6868 
 212   0.0000       2.995760        81.5188 
 213   0.0000       3.026803        82.3635 
 214   0.0000       3.034324        82.5682 
 215   0.0000       3.049571        82.9830 
 216   0.0000       3.087438        84.0135 
 217   0.0000       3.091420        84.1218 
 218   0.0000       3.096638        84.2638 
 219   0.0000       3.098336        84.3100 
 220   0.0000       3.101790        84.4040 
 221   0.0000       3.147315        85.6428 
 222   0.0000       3.217969        87.5654 
 223   0.0000       3.232868        87.9708 
 224   0.0000       3.236270        88.0634 
 225   0.0000       3.243729        88.2663 
 226   0.0000       3.246823        88.3505 
 227   0.0000       3.254611        88.5625 
 228   0.0000       3.261327        88.7452 
 229   0.0000       3.269259        88.9611 
 230   0.0000       3.306298        89.9689 
 231   0.0000       3.327546        90.5471 
 232   0.0000       3.333776        90.7167 
 233   0.0000       3.334966        90.7490 
 234   0.0000       3.347938        91.1020 
 235   0.0000       3.362712        91.5040 
 236   0.0000       3.402078        92.5753 
 237   0.0000       3.437938        93.5511 
 238   0.0000       3.443311        93.6973 
 239   0.0000       3.445871        93.7669 
 240   0.0000       3.451185        93.9115 
 241   0.0000       3.465778        94.3086 
 242   0.0000       3.482156        94.7543 
 243   0.0000       3.485710        94.8510 
 244   0.0000       3.544127        96.4406 
 245   0.0000       3.547703        96.5379 
 246   0.0000       3.633425        98.8705 
 247   0.0000       3.648302        99.2753 
 248   0.0000       3.656419        99.4962 
 249   0.0000       3.667110        99.7871 
 250   0.0000       3.669569        99.8540 
 251   0.0000       3.670754        99.8863 
 252   0.0000       3.799758       103.3967 
 253   0.0000       3.801478       103.4435 
 254   0.0000       3.802855       103.4810 
 255   0.0000       3.807605       103.6102 
 256   0.0000       3.809334       103.6573 
 257   0.0000       3.853646       104.8630 
 258   0.0000       3.923869       106.7739 
 259   0.0000       3.939424       107.1972 
 260   0.0000       3.944525       107.3360 
 261   0.0000       3.948742       107.4507 
 262   0.0000       3.956901       107.6727 
 263   0.0000       3.960125       107.7605 
 264   0.0000       3.963100       107.8414 
 265   0.0000       3.969210       108.0077 
 266   0.0000       3.977569       108.2351 
 267   0.0000       4.242581       115.4465 
 268   0.0000       4.250009       115.6486 
 269   0.0000       4.253450       115.7423 
 270   0.0000       4.258869       115.8897 
 271   0.0000       4.261658       115.9656 
 272   0.0000       4.297387       116.9378 
 273   0.0000       4.339554       118.0853 
 274   0.0000       4.341653       118.1424 
 275   0.0000       4.342179       118.1567 
 276   0.0000       4.346590       118.2767 
 277   0.0000       4.347770       118.3088 
 278   0.0000       4.351356       118.4064 
 279   0.0000       4.558934       124.0549 
 280   0.0000       4.581801       124.6771 
 281   0.0000       4.583234       124.7161 
 282   0.0000       4.741384       129.0196 
 283   0.0000       4.752879       129.3324 
 284   0.0000       4.752974       129.3350 
 285   0.0000       4.759220       129.5050 
 286   0.0000       4.763078       129.6099 
 287   0.0000       4.785721       130.2261 
 288   0.0000       4.834737       131.5599 
 289   0.0000       4.856788       132.1599 
 290   0.0000       4.860408       132.2584 
 291   0.0000       4.960003       134.9686 
 292   0.0000       4.961784       135.0170 
 293   0.0000       4.962533       135.0374 
 294   0.0000       4.970242       135.2472 
 295   0.0000       4.980212       135.5185 
 296   0.0000       5.002980       136.1380 
 297   0.0000       5.062292       137.7520 
 298   0.0000       5.068276       137.9148 
 299   0.0000       5.069210       137.9402 
 300   0.0000       5.075352       138.1074 
 301   0.0000       5.076365       138.1349 
 302   0.0000       5.094887       138.6389 
 303   0.0000       5.199216       141.4778 
 304   0.0000       5.210768       141.7922 
 305   0.0000       5.219762       142.0370 
 306   0.0000       5.556425       151.1980 
 307   0.0000       5.557310       151.2221 
 308   0.0000       5.558487       151.2541 
 309   0.0000       5.559247       151.2748 
 310   0.0000       5.586703       152.0219 
 311   0.0000       5.587266       152.0372 
 312   0.0000       6.022906       163.8916 
 313   0.0000       6.024375       163.9316 
 314   0.0000       6.025167       163.9531 
 315   0.0000       6.081618       165.4892 
 316   0.0000       6.083076       165.5289 
 317   0.0000       6.087169       165.6403 
 318   0.0000       6.087439       165.6476 
 319   0.0000       6.095419       165.8648 
 320   0.0000       6.169816       167.8892 
 321   0.0000       6.466442       175.9608 
 322   0.0000       6.469367       176.0404 
 323   0.0000       6.482399       176.3951 
 324   0.0000      23.472051       638.7070 
 325   0.0000      23.485459       639.0718 
 326   0.0000      23.493712       639.2964 
 327   0.0000      24.379485       663.3995 
 328   0.0000      24.382362       663.4778 
 329   0.0000      24.399923       663.9557 
 330   0.0000      33.392073       908.6445 
 331   0.0000      33.424580       909.5291 
 332   0.0000      33.462448       910.5595 

                    ********************************
                    * MULLIKEN POPULATION ANALYSIS *
                    ********************************

-----------------------
MULLIKEN ATOMIC CHARGES
-----------------------
   0 C :   -0.176966
   1 H :    0.197149
   2 H :    0.149461
   3 H :    0.152105
   4 C :   -0.055227
   5 N :   -0.266076
   6 C :   -0.166421
   7 H :    0.156125
   8 H :    0.156392
   9 H :    0.155539
  10 C :   -0.106076
  11 N :   -0.195560
  12 C :   -0.176965
  13 H :    0.150778
  14 H :    0.147649
  15 H :    0.196460
  16 C :   -0.058303
  17 N :   -0.260064
Sum of atomic charges:   -0.0000000

--------------------------------
MULLIKEN REDUCED ORBITAL CHARGES
--------------------------------
  0 C s       :     3.156319  s :     3.156319
      pz      :     0.776031  p :     2.956308
      px      :     1.090716
      py      :     1.089561
      dz2     :     0.017799  d :     0.060869
      dxz     :     0.010451
      dyz     :     0.010697
      dx2y2   :     0.010567
      dxy     :     0.011355
      f0      :     0.001729  f :     0.003471
      f+1     :     0.000199
      f-1     :     0.000194
      f+2     :     0.000066
      f-2     :     0.000056
      f+3     :     0.000253
      f-3     :     0.000972
  1 H s       :     0.779644  s :     0.779644
      pz      :     0.004331  p :     0.023206
      px      :     0.010839
      py      :     0.008035
  2 H s       :     0.828078  s :     0.828078
      pz      :     0.005178  p :     0.022461
      px      :     0.004089
      py      :     0.013193
  3 H s       :     0.825557  s :     0.825557
      pz      :     0.004981  p :     0.022338
      px      :     0.012204
      py      :     0.005153
  4 C s       :     3.247298  s :     3.247298
      pz      :     0.956658  p :     2.674227
      px      :     0.853570
      py      :     0.863999
      dz2     :     0.024962  d :     0.116331
      dxz     :     0.045633
      dyz     :     0.044774
      dx2y2   :     0.000258
      dxy     :     0.000706
      f0      :     0.004058  f :     0.017372
      f+1     :     0.006619
      f-1     :     0.006575
      f+2     :     0.000040
      f-2     :     0.000075
      f+3     :     0.000001
      f-3     :     0.000004
  5 N s       :     3.737341  s :     3.737341
      pz      :     1.278135  p :     3.472454
      px      :     1.102636
      py      :     1.091683
      dz2     :     0.011100  d :     0.053341
      dxz     :     0.021016
      dyz     :     0.021001
      dx2y2   :     0.000112
      dxy     :     0.000111
      f0      :     0.000622  f :     0.002941
      f+1     :     0.001149
      f-1     :     0.001158
      f+2     :     0.000005
      f-2     :     0.000005
      f+3     :     0.000000
      f-3     :     0.000001
  6 C s       :     3.147723  s :     3.147723
      pz      :     0.794757  p :     2.953199
      px      :     1.079960
      py      :     1.078482
      dz2     :     0.017648  d :     0.062026
      dxz     :     0.010772
      dyz     :     0.012217
      dx2y2   :     0.010401
      dxy     :     0.010988
      f0      :     0.001718  f :     0.003473
      f+1     :     0.000200
      f-1     :     0.000217
      f+2     :     0.000066
      f-2     :     0.000074
      f+3     :     0.000775
      f-3     :     0.000423
  7 H s       :     0.821487  s :     0.821487
      pz      :     0.005360  p :     0.022388
      px      :     0.004598
      py      :     0.012430
  8 H s       :     0.821159  s :     0.821159
      pz      :     0.004700  p :     0.022449
      px      :     0.008083
      py      :     0.009665
  9 H s       :     0.822061  s :     0.822061
      pz      :     0.004684  p :     0.022400
      px      :     0.013431
      py      :     0.004284
 10 C s       :     3.234019  s :     3.234019
      pz      :     0.968143  p :     2.741018
      px      :     0.885247
      py      :     0.887629
      dz2     :     0.026718  d :     0.113707
      dxz     :     0.043336
      dyz     :     0.042940
      dx2y2   :     0.000225
      dxy     :     0.000488
      f0      :     0.004139  f :     0.017331
      f+1     :     0.006546
      f-1     :     0.006522
      f+2     :     0.000053
      f-2     :     0.000071
      f+3     :     0.000000
      f-3     :     0.000000
 11 N s       :     3.716254  s :     3.716254
      pz      :     1.286351  p :     3.421272
      px      :     1.068783
      py      :     1.066138
      dz2     :     0.011691  d :     0.055064
      dxz     :     0.021658
      dyz     :     0.021631
      dx2y2   :     0.000045
      dxy     :     0.000040
      f0      :     0.000627  f :     0.002970
      f+1     :     0.001168
      f-1     :     0.001163
      f+2     :     0.000006
      f-2     :     0.000006
      f+3     :     0.000000
      f-3     :     0.000000
 12 C s       :     3.156328  s :     3.156328
      pz      :     0.778281  p :     2.955937
      px      :     1.087028
      py      :     1.090628
      dz2     :     0.017751  d :     0.061222
      dxz     :     0.011090
      dyz     :     0.010393
      dx2y2   :     0.010913
      dxy     :     0.011073
      f0      :     0.001723  f :     0.003478
      f+1     :     0.000210
      f-1     :     0.000193
      f+2     :     0.000061
      f-2     :     0.000064
      f+3     :     0.000404
      f-3     :     0.000824
 13 H s       :     0.826959  s :     0.826959
      pz      :     0.005144  p :     0.022263
      px      :     0.012389
      py      :     0.004730
 14 H s       :     0.829955  s :     0.829955
      pz      :     0.004917  p :     0.022396
      px      :     0.004267
      py      :     0.013212
 15 H s       :     0.780366  s :     0.780366
      pz      :     0.004329  p :     0.023174
      px      :     0.010489
      py      :     0.008357
 16 C s       :     3.246403  s :     3.246403
      pz      :     0.955251  p :     2.678422
      px      :     0.857740
      py      :     0.865432
      dz2     :     0.024955  d :     0.116102
      dxz     :     0.045342
      dyz     :     0.044758
      dx2y2   :     0.000301
      dxy     :     0.000746
      f0      :     0.004078  f :     0.017376
      f+1     :     0.006587
      f-1     :     0.006561
      f+2     :     0.000057
      f-2     :     0.000088
      f+3     :     0.000001
      f-3     :     0.000004
 17 N s       :     3.739080  s :     3.739080
      pz      :     1.276203  p :     3.464536
      px      :     1.098750
      py      :     1.089583
      dz2     :     0.011134  d :     0.053507
      dxz     :     0.021038
      dyz     :     0.021043
      dx2y2   :     0.000149
      dxy     :     0.000143
      f0      :     0.000624  f :     0.002941
      f+1     :     0.001143
      f-1     :     0.001157
      f+2     :     0.000008
      f-2     :     0.000008
      f+3     :     0.000000
      f-3     :     0.000001


                     *******************************
                     * LOEWDIN POPULATION ANALYSIS *
                     *******************************

----------------------
LOEWDIN ATOMIC CHARGES
----------------------
   0 C :   -0.242429
   1 H :    0.151387
   2 H :    0.143309
   3 H :    0.143448
   4 C :   -0.182366
   5 N :   -0.012625
   6 C :   -0.244980
   7 H :    0.143038
   8 H :    0.143413
   9 H :    0.144683
  10 C :   -0.198598
  11 N :    0.012443
  12 C :   -0.243967
  13 H :    0.142358
  14 H :    0.143723
  15 H :    0.150596
  16 C :   -0.184177
  17 N :   -0.009257

-------------------------------
LOEWDIN REDUCED ORBITAL CHARGES
-------------------------------
  0 C s       :     2.813450  s :     2.813450
      pz      :     1.019349  p :     3.147009
      px      :     1.064486
      py      :     1.063174
      dz2     :     0.079215  d :     0.256832
      dxz     :     0.057165
      dyz     :     0.060021
      dx2y2   :     0.029064
      dxy     :     0.031367
      f0      :     0.007597  f :     0.025139
      f+1     :     0.005042
      f-1     :     0.004858
      f+2     :     0.002453
      f-2     :     0.001934
      f+3     :     0.000675
      f-3     :     0.002580
  1 H s       :     0.784642  s :     0.784642
      pz      :     0.011803  p :     0.063971
      px      :     0.029268
      py      :     0.022900
  2 H s       :     0.795809  s :     0.795809
      pz      :     0.013233  p :     0.060882
      px      :     0.013226
      py      :     0.034423
  3 H s       :     0.795831  s :     0.795831
      pz      :     0.012856  p :     0.060721
      px      :     0.032185
      py      :     0.015680
  4 C s       :     2.841011  s :     2.841011
      pz      :     1.194753  p :     2.823025
      px      :     0.811456
      py      :     0.816816
      dz2     :     0.154290  d :     0.458788
      dxz     :     0.152204
      dyz     :     0.150640
      dx2y2   :     0.000348
      dxy     :     0.001307
      f0      :     0.022842  f :     0.059541
      f+1     :     0.018378
      f-1     :     0.018064
      f+2     :     0.000072
      f-2     :     0.000176
      f+3     :     0.000002
      f-3     :     0.000008
  5 N s       :     3.308129  s :     3.308129
      pz      :     1.495142  p :     3.582432
      px      :     1.045731
      py      :     1.041559
      dz2     :     0.045432  d :     0.107966
      dxz     :     0.031077
      dyz     :     0.031214
      dx2y2   :     0.000130
      dxy     :     0.000114
      f0      :     0.006230  f :     0.014098
      f+1     :     0.003899
      f-1     :     0.003934
      f+2     :     0.000018
      f-2     :     0.000016
      f+3     :     0.000000
      f-3     :     0.000001
  6 C s       :     2.813812  s :     2.813812
      pz      :     1.024200  p :     3.143739
      px      :     1.060227
      py      :     1.059312
      dz2     :     0.077270  d :     0.262116
      dxz     :     0.058858
      dyz     :     0.064695
      dx2y2   :     0.029455
      dxy     :     0.031839
      f0      :     0.007334  f :     0.025312
      f+1     :     0.005295
      f-1     :     0.004884
      f+2     :     0.002365
      f-2     :     0.002177
      f+3     :     0.002102
      f-3     :     0.001155
  7 H s       :     0.796060  s :     0.796060
      pz      :     0.013698  p :     0.060901
      px      :     0.014403
      py      :     0.032800
  8 H s       :     0.795542  s :     0.795542
      pz      :     0.012399  p :     0.061046
      px      :     0.022574
      py      :     0.026073
  9 H s       :     0.794601  s :     0.794601
      pz      :     0.012342  p :     0.060716
      px      :     0.034828
      py      :     0.013546
 10 C s       :     2.839050  s :     2.839050
      pz      :     1.191587  p :     2.852764
      px      :     0.829571
      py      :     0.831606
      dz2     :     0.154192  d :     0.448012
      dxz     :     0.146754
      dyz     :     0.145877
      dx2y2   :     0.000328
      dxy     :     0.000862
      f0      :     0.023038  f :     0.058773
      f+1     :     0.017693
      f-1     :     0.017756
      f+2     :     0.000121
      f-2     :     0.000163
      f+3     :     0.000001
      f-3     :     0.000001
 11 N s       :     3.314182  s :     3.314182
      pz      :     1.494943  p :     3.547492
      px      :     1.027067
      py      :     1.025482
      dz2     :     0.045844  d :     0.111478
      dxz     :     0.032654
      dyz     :     0.032849
      dx2y2   :     0.000069
      dxy     :     0.000062
      f0      :     0.006232  f :     0.014404
      f+1     :     0.004046
      f-1     :     0.004085
      f+2     :     0.000021
      f-2     :     0.000019
      f+3     :     0.000000
      f-3     :     0.000000
 12 C s       :     2.814237  s :     2.814237
      pz      :     1.020397  p :     3.147213
      px      :     1.063352
      py      :     1.063465
      dz2     :     0.078957  d :     0.257384
      dxz     :     0.059584
      dyz     :     0.058162
      dx2y2   :     0.029984
      dxy     :     0.030698
      f0      :     0.007562  f :     0.025133
      f+1     :     0.004909
      f-1     :     0.005028
      f+2     :     0.002430
      f-2     :     0.001951
      f+3     :     0.001076
      f-3     :     0.002177
 13 H s       :     0.797099  s :     0.797099
      pz      :     0.013180  p :     0.060543
      px      :     0.032619
      py      :     0.014744
 14 H s       :     0.795760  s :     0.795760
      pz      :     0.012690  p :     0.060517
      px      :     0.013555
      py      :     0.034271
 15 H s       :     0.785470  s :     0.785470
      pz      :     0.011796  p :     0.063934
      px      :     0.028375
      py      :     0.023764
 16 C s       :     2.840787  s :     2.840787
      pz      :     1.194067  p :     2.826127
      px      :     0.814136
      py      :     0.817924
      dz2     :     0.154421  d :     0.457772
      dxz     :     0.151166
      dyz     :     0.150277
      dx2y2   :     0.000477
      dxy     :     0.001431
      f0      :     0.022836  f :     0.059491
      f+1     :     0.018338
      f-1     :     0.017979
      f+2     :     0.000120
      f-2     :     0.000207
      f+3     :     0.000002
      f-3     :     0.000008
 17 N s       :     3.308453  s :     3.308453
      pz      :     1.494574  p :     3.578246
      px      :     1.043401
      py      :     1.040271
      dz2     :     0.045440  d :     0.108420
      dxz     :     0.031334
      dyz     :     0.031324
      dx2y2   :     0.000167
      dxy     :     0.000154
      f0      :     0.006217  f :     0.014138
      f+1     :     0.003931
      f-1     :     0.003933
      f+2     :     0.000029
      f-2     :     0.000027
      f+3     :     0.000000
      f-3     :     0.000001


                      *****************************
                      * MAYER POPULATION ANALYSIS *
                      *****************************

  NA   - Mulliken gross atomic population
  ZA   - Total nuclear charge
  QA   - Mulliken gross atomic charge
  VA   - Mayer's total valence
  BVA  - Mayer's bonded valence
  FA   - Mayer's free valence

  ATOM       NA         ZA         QA         VA         BVA        FA
  0 C      6.1770     6.0000    -0.1770     3.7839     3.7839     0.0000
  1 H      0.8029     1.0000     0.1971     0.9611     0.9611    -0.0000
  2 H      0.8505     1.0000     0.1495     0.9642     0.9642     0.0000
  3 H      0.8479     1.0000     0.1521     0.9616     0.9616     0.0000
  4 C      6.0552     6.0000    -0.0552     3.8737     3.8737    -0.0000
  5 N      7.2661     7.0000    -0.2661     2.9905     2.9905     0.0000
  6 C      6.1664     6.0000    -0.1664     3.8083     3.8083    -0.0000
  7 H      0.8439     1.0000     0.1561     0.9618     0.9618     0.0000
  8 H      0.8436     1.0000     0.1564     0.9619     0.9619     0.0000
  9 H      0.8445     1.0000     0.1555     0.9619     0.9619     0.0000
 10 C      6.1061     6.0000    -0.1061     3.9230     3.9230    -0.0000
 11 N      7.1956     7.0000    -0.1956     3.0371     3.0371     0.0000
 12 C      6.1770     6.0000    -0.1770     3.7857     3.7857    -0.0000
 13 H      0.8492     1.0000     0.1508     0.9616     0.9616     0.0000
 14 H      0.8524     1.0000     0.1476     0.9646     0.9646    -0.0000
 15 H      0.8035     1.0000     0.1965     0.9607     0.9607    -0.0000
 16 C      6.0583     6.0000    -0.0583     3.8732     3.8732    -0.0000
 17 N      7.2601     7.0000    -0.2601     2.9905     2.9905    -0.0000

  Mayer bond orders larger than 0.100000
B(  0-C ,  1-H ) :   0.9500 B(  0-C ,  2-H ) :   0.9611 B(  0-C ,  3-H ) :   0.9632 
B(  0-C ,  4-C ) :   0.9246 B(  4-C ,  5-N ) :   2.9557 B(  6-C ,  7-H ) :   0.9627 
B(  6-C ,  8-H ) :   0.9631 B(  6-C ,  9-H ) :   0.9635 B(  6-C , 10-C ) :   0.9298 
B( 10-C , 11-N ) :   3.0118 B( 12-C , 13-H ) :   0.9641 B( 12-C , 14-H ) :   0.9619 
B( 12-C , 15-H ) :   0.9498 B( 12-C , 16-C ) :   0.9250 B( 16-C , 17-N ) :   2.9557 


-------
TIMINGS
-------

Total SCF time: 0 days 0 hours 0 min 32 sec 

Total time                  ....      32.749 sec
Sum of individual times     ....      32.458 sec  ( 99.1%)

Fock matrix formation       ....      31.893 sec  ( 97.4%)
Diagonalization             ....       0.138 sec  (  0.4%)
Density matrix formation    ....       0.021 sec  (  0.1%)
Population analysis         ....       0.023 sec  (  0.1%)
Initial guess               ....       0.169 sec  (  0.5%)
Orbital Transformation      ....       0.000 sec  (  0.0%)
Orbital Orthonormalization  ....       0.000 sec  (  0.0%)
DIIS solution               ....       0.052 sec  (  0.2%)
SOSCF solution              ....       0.096 sec  (  0.3%)


           ************************************************************
           *        Program running with 6 parallel MPI-processes     *
           *              working on a common directory               *
           ************************************************************

------------------------------------------------------------------------------
                                ORCA  MP2 
------------------------------------------------------------------------------

Freezing NCore=18 chemical core electrons
MP2 will be done in the AO integral direct mode
The Q1-step will be done using symmetric double matrices
Dimension of the basis                    ...  333
Memory devoted for MP2                    ... 8000 MB   
Memory needed for all in one shot         ...  566 MB
Number of MOs that can be treated together...   55      
MP2 density construction                  ... relaxed
The MP2 gradient is requested => amplitudes will be stored on disk
Total number of MOs              ...   24
Number of MOs treated per batch  ...    4 
Number of batches necessary      ...    1 
OPERATORS   0/  0 PASS   0
-----------------------------------------------
 MP2 CORRELATION ENERGY   :     -1.530201000 Eh
-----------------------------------------------


---------------------
MP2 DENSITY FORMATION
---------------------

Completing the external part of the density      ... done
Storing the unrelaxed density                    ... done

Calculating G(D)                                 ... done
Completing the Lagrangian                        ... done
Solving the Z-vector equations                   ... 

------------------------------------------------------------------------------
                           ORCA CP-SCF CALCULATION
------------------------------------------------------------------------------

Input orbitals are from        ... 12mecn.remya.etal.2.mol0,3,8-orca.engrad-mp2.def2tzvp.frozencore.gbw
Input Perturbation             ... 12mecn.remya.etal.2.mol0,3,8-orca.engrad-mp2.def2tzvp.frozencore.pin.tmp
Wavefunction output            ... 12mecn.remya.etal.2.mol0,3,8-orca.engrad-mp2.def2tzvp.frozencore.pout.tmp
Perturbation mode              ... Real perturbation (singlet)
Solver                         ... POPLE
Max. number of iterations      ... 128
Convergence tolerance          ... 1.000e-08
Integral handling              ... Direct
Number of perturbations        ... 1
Number of operators            ... 1
Orbital ranges used for CP-SCF:
 Operator 0:  Orbitals   0... 32  to  33...332
Variables per vector in CP-SCF ... 9900
Number of vectors sought       ... 1
     CP-SCF ITERATION   0: 
     CP-SCF ITERATION   1:      0.001513314996
     CP-SCF ITERATION   2:      0.000263517268
     CP-SCF ITERATION   3:      0.000009499552
     CP-SCF ITERATION   4:      0.000002097758
     CP-SCF ITERATION   5:      0.000000998895
     CP-SCF ITERATION   6:      0.000000131105
     CP-SCF ITERATION   7:      0.000000013958
     CP-SCF ITERATION   8:      0.000000000872
                                                 ... done
Finalizing the relaxed density                   ... done
Transforming P to the AO basis                   ... done
Storing the relaxed density                      ... done

------------------------------------
ENERGY WEIGHTED DENSITY FINALIZATION
------------------------------------

Gathering the parts of the W-matrix              ...                                                      done
Forming the Z-density                            ... done
Transforming Z to the AO basis                   ... done
Calculating G(Z)                                 ... done
Finalizing the W-matrix                          ...                                                      done
Transforming W to the AO basis and storing       ... done

                *********************************************
                * UNRELAXED MP2 DENSITY POPULATION ANALYSIS *
                *********************************************

------------------------------------------------------------------------------
                           ORCA POPULATION ANALYSIS
------------------------------------------------------------------------------
Input electron density              ... 12mecn.remya.etal.2.mol0,3,8-orca.engrad-mp2.def2tzvp.frozencore.pmp2ur
BaseName (.gbw .S,...)              ... 12mecn.remya.etal.2.mol0,3,8-orca.engrad-mp2.def2tzvp.frozencore

                    ********************************
                    * MULLIKEN POPULATION ANALYSIS *
                    ********************************

-----------------------
MULLIKEN ATOMIC CHARGES
-----------------------
   0 C :   -0.189443
   1 H :    0.198990
   2 H :    0.152160
   3 H :    0.154777
   4 C :   -0.065918
   5 N :   -0.250113
   6 C :   -0.179670
   7 H :    0.158698
   8 H :    0.158966
   9 H :    0.158110
  10 C :   -0.114770
  11 N :   -0.181335
  12 C :   -0.189503
  13 H :    0.153455
  14 H :    0.150360
  15 H :    0.198307
  16 C :   -0.068803
  17 N :   -0.244271
Sum of atomic charges:   -0.0000000

--------------------------------
MULLIKEN REDUCED ORBITAL CHARGES
--------------------------------
  0 C s       :     3.154536  s :     3.154536
      pz      :     0.774974  p :     2.940906
      px      :     1.083440
      py      :     1.082492
      dz2     :     0.020278  d :     0.086661
      dxz     :     0.016595
      dyz     :     0.016788
      dx2y2   :     0.016149
      dxy     :     0.016849
      f0      :     0.002128  f :     0.007341
      f+1     :     0.000864
      f-1     :     0.000861
      f+2     :     0.000606
      f-2     :     0.000601
      f+3     :     0.000815
      f-3     :     0.001467
  1 H s       :     0.775125  s :     0.775125
      pz      :     0.005320  p :     0.025885
      px      :     0.011647
      py      :     0.008919
  2 H s       :     0.822554  s :     0.822554
      pz      :     0.006165  p :     0.025286
      px      :     0.005125
      py      :     0.013997
  3 H s       :     0.820047  s :     0.820047
      pz      :     0.005976  p :     0.025176
      px      :     0.013039
      py      :     0.006161
  4 C s       :     3.246402  s :     3.246402
      pz      :     0.947641  p :     2.667602
      px      :     0.855061
      py      :     0.864900
      dz2     :     0.027372  d :     0.131596
      dxz     :     0.047608
      dyz     :     0.046775
      dx2y2   :     0.004701
      dxy     :     0.005139
      f0      :     0.004526  f :     0.020318
      f+1     :     0.007048
      f-1     :     0.007009
      f+2     :     0.000595
      f-2     :     0.000631
      f+3     :     0.000253
      f-3     :     0.000256
  5 N s       :     3.724969  s :     3.724969
      pz      :     1.265806  p :     3.443347
      px      :     1.093976
      py      :     1.083565
      dz2     :     0.015417  d :     0.076124
      dxz     :     0.025257
      dyz     :     0.025185
      dx2y2   :     0.005133
      dxy     :     0.005132
      f0      :     0.001052  f :     0.005673
      f+1     :     0.001599
      f-1     :     0.001607
      f+2     :     0.000424
      f-2     :     0.000423
      f+3     :     0.000284
      f-3     :     0.000285
  6 C s       :     3.146125  s :     3.146125
      pz      :     0.793544  p :     2.938648
      px      :     1.073256
      py      :     1.071848
      dz2     :     0.020165  d :     0.087564
      dxz     :     0.016889
      dyz     :     0.018229
      dx2y2   :     0.015863
      dxy     :     0.016418
      f0      :     0.002115  f :     0.007332
      f+1     :     0.000865
      f-1     :     0.000886
      f+2     :     0.000607
      f-2     :     0.000616
      f+3     :     0.001281
      f-3     :     0.000963
  7 H s       :     0.816101  s :     0.816101
      pz      :     0.006337  p :     0.025201
      px      :     0.005617
      py      :     0.013247
  8 H s       :     0.815767  s :     0.815767
      pz      :     0.005699  p :     0.025266
      px      :     0.009014
      py      :     0.010553
  9 H s       :     0.816667  s :     0.816667
      pz      :     0.005685  p :     0.025223
      px      :     0.014224
      py      :     0.005314
 10 C s       :     3.233450  s :     3.233450
      pz      :     0.959296  p :     2.731675
      px      :     0.885095
      py      :     0.887284
      dz2     :     0.029194  d :     0.129350
      dxz     :     0.045435
      dyz     :     0.045055
      dx2y2   :     0.004705
      dxy     :     0.004961
      f0      :     0.004602  f :     0.020295
      f+1     :     0.006987
      f-1     :     0.006964
      f+2     :     0.000606
      f-2     :     0.000624
      f+3     :     0.000256
      f-3     :     0.000256
 11 N s       :     3.703508  s :     3.703508
      pz      :     1.274081  p :     3.395171
      px      :     1.061793
      py      :     1.059297
      dz2     :     0.015871  d :     0.076986
      dxz     :     0.025674
      dyz     :     0.025639
      dx2y2   :     0.004903
      dxy     :     0.004899
      f0      :     0.001054  f :     0.005670
      f+1     :     0.001614
      f-1     :     0.001608
      f+2     :     0.000420
      f-2     :     0.000420
      f+3     :     0.000277
      f-3     :     0.000277
 12 C s       :     3.154545  s :     3.154545
      pz      :     0.777197  p :     2.940608
      px      :     1.079871
      py      :     1.083541
      dz2     :     0.020239  d :     0.087003
      dxz     :     0.017189
      dyz     :     0.016525
      dx2y2   :     0.016470
      dxy     :     0.016579
      f0      :     0.002122  f :     0.007346
      f+1     :     0.000874
      f-1     :     0.000857
      f+2     :     0.000602
      f-2     :     0.000607
      f+3     :     0.000951
      f-3     :     0.001333
 13 H s       :     0.821438  s :     0.821438
      pz      :     0.006136  p :     0.025107
      px      :     0.013221
      py      :     0.005750
 14 H s       :     0.824409  s :     0.824409
      pz      :     0.005914  p :     0.025230
      px      :     0.005300
      py      :     0.014017
 15 H s       :     0.775837  s :     0.775837
      pz      :     0.005318  p :     0.025856
      px      :     0.011307
      py      :     0.009231
 16 C s       :     3.245543  s :     3.245543
      pz      :     0.946253  p :     2.671520
      px      :     0.859006
      py      :     0.866261
      dz2     :     0.027371  d :     0.131416
      dxz     :     0.047340
      dyz     :     0.046768
      dx2y2   :     0.004751
      dxy     :     0.005186
      f0      :     0.004546  f :     0.020324
      f+1     :     0.007016
      f-1     :     0.006996
      f+2     :     0.000612
      f-2     :     0.000643
      f+3     :     0.000254
      f-3     :     0.000257
 17 N s       :     3.726668  s :     3.726668
      pz      :     1.263895  p :     3.435718
      px      :     1.090277
      py      :     1.081546
      dz2     :     0.015440  d :     0.076214
      dxz     :     0.025256
      dyz     :     0.025213
      dx2y2   :     0.005154
      dxy     :     0.005150
      f0      :     0.001054  f :     0.005671
      f+1     :     0.001592
      f-1     :     0.001605
      f+2     :     0.000426
      f-2     :     0.000426
      f+3     :     0.000283
      f-3     :     0.000284


                     *******************************
                     * LOEWDIN POPULATION ANALYSIS *
                     *******************************

----------------------
LOEWDIN ATOMIC CHARGES
----------------------
   0 C :   -0.250418
   1 H :    0.152949
   2 H :    0.145003
   3 H :    0.145112
   4 C :   -0.188434
   5 N :   -0.003477
   6 C :   -0.253051
   7 H :    0.144727
   8 H :    0.145090
   9 H :    0.146336
  10 C :   -0.203770
  11 N :    0.020668
  12 C :   -0.251986
  13 H :    0.144024
  14 H :    0.145399
  15 H :    0.152162
  16 C :   -0.190160
  17 N :   -0.000176

-------------------------------
LOEWDIN REDUCED ORBITAL CHARGES
-------------------------------
  0 C s       :     2.811666  s :     2.811666
      pz      :     1.010846  p :     3.121958
      px      :     1.056167
      py      :     1.054945
      dz2     :     0.084379  d :     0.285614
      dxz     :     0.063172
      dyz     :     0.065981
      dx2y2   :     0.034851
      dxy     :     0.037231
      f0      :     0.008714  f :     0.031180
      f+1     :     0.006113
      f-1     :     0.005921
      f+2     :     0.003129
      f-2     :     0.002603
      f+3     :     0.001340
      f-3     :     0.003360
  1 H s       :     0.778496  s :     0.778496
      pz      :     0.013170  p :     0.068555
      px      :     0.030968
      py      :     0.024417
  2 H s       :     0.789353  s :     0.789353
      pz      :     0.014669  p :     0.065643
      px      :     0.014434
      py      :     0.036540
  3 H s       :     0.789386  s :     0.789386
      pz      :     0.014278  p :     0.065502
      px      :     0.034225
      py      :     0.016998
  4 C s       :     2.837587  s :     2.837587
      pz      :     1.182162  p :     2.806094
      px      :     0.809453
      py      :     0.814480
      dz2     :     0.161547  d :     0.477585
      dxz     :     0.153470
      dyz     :     0.151989
      dx2y2   :     0.004821
      dxy     :     0.005759
      f0      :     0.024468  f :     0.067168
      f+1     :     0.020436
      f-1     :     0.020141
      f+2     :     0.000749
      f-2     :     0.000856
      f+3     :     0.000255
      f-3     :     0.000262
  5 N s       :     3.300378  s :     3.300378
      pz      :     1.479069  p :     3.545924
      px      :     1.035365
      py      :     1.031490
      dz2     :     0.052410  d :     0.138601
      dxz     :     0.037992
      dyz     :     0.038031
      dx2y2   :     0.005090
      dxy     :     0.005078
      f0      :     0.007300  f :     0.018573
      f+1     :     0.004884
      f-1     :     0.004909
      f+2     :     0.000457
      f-2     :     0.000455
      f+3     :     0.000284
      f-3     :     0.000285
  6 C s       :     2.812006  s :     2.812006
      pz      :     1.015718  p :     3.119294
      px      :     1.052238
      py      :     1.051338
      dz2     :     0.082459  d :     0.290427
      dxz     :     0.064719
      dyz     :     0.070538
      dx2y2   :     0.035162
      dxy     :     0.037550
      f0      :     0.008452  f :     0.031324
      f+1     :     0.006354
      f-1     :     0.005940
      f+2     :     0.003041
      f-2     :     0.002851
      f+3     :     0.002843
      f-3     :     0.001843
  7 H s       :     0.789642  s :     0.789642
      pz      :     0.015151  p :     0.065631
      px      :     0.015669
      py      :     0.034811
  8 H s       :     0.789124  s :     0.789124
      pz      :     0.013790  p :     0.065785
      px      :     0.024172
      py      :     0.027823
  9 H s       :     0.788195  s :     0.788195
      pz      :     0.013736  p :     0.065469
      px      :     0.036947
      py      :     0.014786
 10 C s       :     2.835768  s :     2.835768
      pz      :     1.179071  p :     2.834037
      px      :     0.826540
      py      :     0.828426
      dz2     :     0.161499  d :     0.467493
      dxz     :     0.148329
      dyz     :     0.147546
      dx2y2   :     0.004802
      dxy     :     0.005317
      f0      :     0.024651  f :     0.066472
      f+1     :     0.019810
      f-1     :     0.019867
      f+2     :     0.000791
      f-2     :     0.000838
      f+3     :     0.000257
      f-3     :     0.000257
 11 N s       :     3.306362  s :     3.306362
      pz      :     1.479072  p :     3.513124
      px      :     1.017766
      py      :     1.016286
      dz2     :     0.052670  d :     0.141015
      dxz     :     0.039229
      dyz     :     0.039408
      dx2y2   :     0.004857
      dxy     :     0.004850
      f0      :     0.007301  f :     0.018831
      f+1     :     0.005012
      f-1     :     0.005050
      f+2     :     0.000457
      f-2     :     0.000455
      f+3     :     0.000277
      f-3     :     0.000277
 12 C s       :     2.812456  s :     2.812456
      pz      :     1.011891  p :     3.122203
      px      :     1.055077
      py      :     1.055235
      dz2     :     0.084134  d :     0.286155
      dxz     :     0.065571
      dyz     :     0.064118
      dx2y2   :     0.035768
      dxy     :     0.036565
      f0      :     0.008678  f :     0.031172
      f+1     :     0.005976
      f-1     :     0.006091
      f+2     :     0.003107
      f-2     :     0.002619
      f+3     :     0.001765
      f-3     :     0.002934
 13 H s       :     0.790643  s :     0.790643
      pz      :     0.014623  p :     0.065333
      px      :     0.034684
      py      :     0.016026
 14 H s       :     0.789302  s :     0.789302
      pz      :     0.014110  p :     0.065299
      px      :     0.014786
      py      :     0.036404
 15 H s       :     0.779317  s :     0.779317
      pz      :     0.013166  p :     0.068521
      px      :     0.030046
      py      :     0.025308
 16 C s       :     2.837376  s :     2.837376
      pz      :     1.181478  p :     2.808986
      px      :     0.811973
      py      :     0.815535
      dz2     :     0.161673  d :     0.476673
      dxz     :     0.152516
      dyz     :     0.151636
      dx2y2   :     0.004958
      dxy     :     0.005890
      f0      :     0.024464  f :     0.067125
      f+1     :     0.020394
      f-1     :     0.020057
      f+2     :     0.000800
      f-2     :     0.000891
      f+3     :     0.000256
      f-3     :     0.000263
 17 N s       :     3.300689  s :     3.300689
      pz      :     1.478505  p :     3.541905
      px      :     1.033153
      py      :     1.030247
      dz2     :     0.052406  d :     0.138970
      dxz     :     0.038219
      dyz     :     0.038120
      dx2y2   :     0.005117
      dxy     :     0.005107
      f0      :     0.007288  f :     0.018612
      f+1     :     0.004913
      f-1     :     0.004906
      f+2     :     0.000470
      f-2     :     0.000467
      f+3     :     0.000284
      f-3     :     0.000285


                      *****************************
                      * MAYER POPULATION ANALYSIS *
                      *****************************

  NA   - Mulliken gross atomic population
  ZA   - Total nuclear charge
  QA   - Mulliken gross atomic charge
  VA   - Mayer's total valence
  BVA  - Mayer's bonded valence
  FA   - Mayer's free valence

  ATOM       NA         ZA         QA         VA         BVA        FA
  0 C      6.1894     6.0000    -0.1894     3.9022     3.6181     0.2840
  1 H      0.8010     1.0000     0.1990     0.9679     0.9209     0.0470
  2 H      0.8478     1.0000     0.1522     0.9718     0.9239     0.0480
  3 H      0.8452     1.0000     0.1548     0.9692     0.9212     0.0480
  4 C      6.0659     6.0000    -0.0659     3.9743     3.5398     0.4345
  5 N      7.2501     7.0000    -0.2501     3.1958     2.7036     0.4923
  6 C      6.1797     6.0000    -0.1797     3.9259     3.6431     0.2828
  7 H      0.8413     1.0000     0.1587     0.9693     0.9219     0.0474
  8 H      0.8410     1.0000     0.1590     0.9694     0.9219     0.0475
  9 H      0.8419     1.0000     0.1581     0.9694     0.9217     0.0477
 10 C      6.1148     6.0000    -0.1148     4.0243     3.5864     0.4379
 11 N      7.1813     7.0000    -0.1813     3.2325     2.7471     0.4853
 12 C      6.1895     6.0000    -0.1895     3.9040     3.6195     0.2844
 13 H      0.8465     1.0000     0.1535     0.9693     0.9212     0.0481
 14 H      0.8496     1.0000     0.1504     0.9722     0.9240     0.0482
 15 H      0.8017     1.0000     0.1983     0.9675     0.9205     0.0470
 16 C      6.0688     6.0000    -0.0688     3.9740     3.5389     0.4351
 17 N      7.2443     7.0000    -0.2443     3.1951     2.7033     0.4918

  Mayer bond orders larger than 0.100000
B(  0-C ,  1-H ) :   0.9127 B(  0-C ,  2-H ) :   0.9236 B(  0-C ,  3-H ) :   0.9257 
B(  0-C ,  4-C ) :   0.8729 B(  4-C ,  5-N ) :   2.6763 B(  6-C ,  7-H ) :   0.9254 
B(  6-C ,  8-H ) :   0.9258 B(  6-C ,  9-H ) :   0.9260 B(  6-C , 10-C ) :   0.8783 
B( 10-C , 11-N ) :   2.7286 B( 12-C , 13-H ) :   0.9265 B( 12-C , 14-H ) :   0.9242 
B( 12-C , 15-H ) :   0.9126 B( 12-C , 16-C ) :   0.8732 B( 16-C , 17-N ) :   2.6759 



                *******************************************
                * RELAXED MP2 DENSITY POPULATION ANALYSIS *
                *******************************************

------------------------------------------------------------------------------
                           ORCA POPULATION ANALYSIS
------------------------------------------------------------------------------
Input electron density              ... 12mecn.remya.etal.2.mol0,3,8-orca.engrad-mp2.def2tzvp.frozencore.pmp2re
BaseName (.gbw .S,...)              ... 12mecn.remya.etal.2.mol0,3,8-orca.engrad-mp2.def2tzvp.frozencore

                    ********************************
                    * MULLIKEN POPULATION ANALYSIS *
                    ********************************

-----------------------
MULLIKEN ATOMIC CHARGES
-----------------------
   0 C :   -0.284010
   1 H :    0.204797
   2 H :    0.166953
   3 H :    0.168710
   4 C :   -0.103812
   5 N :   -0.152136
   6 C :   -0.280330
   7 H :    0.172265
   8 H :    0.172743
   9 H :    0.172006
  10 C :   -0.145665
  11 N :   -0.091019
  12 C :   -0.284548
  13 H :    0.167382
  14 H :    0.165421
  15 H :    0.204099
  16 C :   -0.105367
  17 N :   -0.147490
Sum of atomic charges:   -0.0000000

--------------------------------
MULLIKEN REDUCED ORBITAL CHARGES
--------------------------------
  0 C s       :     3.189271  s :     3.189271
      pz      :     0.821859  p :     3.011568
      px      :     1.094906
      py      :     1.094804
      dz2     :     0.015961  d :     0.076102
      dxz     :     0.016798
      dyz     :     0.016843
      dx2y2   :     0.012969
      dxy     :     0.013531
      f0      :     0.001883  f :     0.007069
      f+1     :     0.000922
      f-1     :     0.000918
      f+2     :     0.000596
      f-2     :     0.000592
      f+3     :     0.000789
      f-3     :     0.001369
  1 H s       :     0.770494  s :     0.770494
      pz      :     0.005456  p :     0.024709
      px      :     0.010791
      py      :     0.008462
  2 H s       :     0.808881  s :     0.808881
      pz      :     0.006133  p :     0.024166
      px      :     0.005295
      py      :     0.012738
  3 H s       :     0.807204  s :     0.807204
      pz      :     0.005995  p :     0.024086
      px      :     0.011936
      py      :     0.006154
  4 C s       :     3.225981  s :     3.225981
      pz      :     0.973677  p :     2.752351
      px      :     0.888164
      py      :     0.890510
      dz2     :     0.022781  d :     0.106524
      dxz     :     0.037290
      dyz     :     0.036697
      dx2y2   :     0.004670
      dxy     :     0.005086
      f0      :     0.004362  f :     0.018955
      f+1     :     0.006442
      f-1     :     0.006429
      f+2     :     0.000590
      f-2     :     0.000622
      f+3     :     0.000253
      f-3     :     0.000256
  5 N s       :     3.674056  s :     3.674056
      pz      :     1.254129  p :     3.405541
      px      :     1.077126
      py      :     1.074285
      dz2     :     0.014321  d :     0.067333
      dxz     :     0.021450
      dyz     :     0.021304
      dx2y2   :     0.005129
      dxy     :     0.005129
[...]
      f+1     :     0.006410
      f-1     :     0.006399
      f+2     :     0.000601
      f-2     :     0.000616
      f+3     :     0.000256
      f-3     :     0.000256
 11 N s       :     3.644675  s :     3.644675
      pz      :     1.264342  p :     3.373151
      px      :     1.054684
      py      :     1.054124
      dz2     :     0.014856  d :     0.067996
      dxz     :     0.021703
      dyz     :     0.021650
      dx2y2   :     0.004895
      dxy     :     0.004892
      f0      :     0.000936  f :     0.005197
      f+1     :     0.001438
      f-1     :     0.001430
      f+2     :     0.000420
      f-2     :     0.000419
      f+3     :     0.000277
      f-3     :     0.000277
 12 C s       :     3.189287  s :     3.189287
      pz      :     0.824093  p :     3.011777
      px      :     1.092016
      py      :     1.095668
      dz2     :     0.015947  d :     0.076412
      dxz     :     0.017244
      dyz     :     0.016676
      dx2y2   :     0.013222
      dxy     :     0.013322
      f0      :     0.001878  f :     0.007073
      f+1     :     0.000931
      f-1     :     0.000915
      f+2     :     0.000593
      f-2     :     0.000596
      f+3     :     0.000910
      f-3     :     0.001250
 13 H s       :     0.808594  s :     0.808594
      pz      :     0.006125  p :     0.024023
      px      :     0.012083
      py      :     0.005815
 14 H s       :     0.810463  s :     0.810463
      pz      :     0.005934  p :     0.024116
      px      :     0.005435
      py      :     0.012748
 15 H s       :     0.771222  s :     0.771222
      pz      :     0.005450  p :     0.024679
      px      :     0.010501
      py      :     0.008728
 16 C s       :     3.225021  s :     3.225021
      pz      :     0.972575  p :     2.755077
      px      :     0.890572
      py      :     0.891931
      dz2     :     0.022742  d :     0.106308
      dxz     :     0.037079
      dyz     :     0.036660
      dx2y2   :     0.004707
      dxy     :     0.005119
      f0      :     0.004376  f :     0.018961
      f+1     :     0.006419
      f-1     :     0.006415
      f+2     :     0.000605
      f-2     :     0.000633
      f+3     :     0.000254
      f-3     :     0.000257
 17 N s       :     3.675790  s :     3.675790
      pz      :     1.252056  p :     3.399103
      px      :     1.074732
      py      :     1.072315
      dz2     :     0.014338  d :     0.067394
      dxz     :     0.021440
      dyz     :     0.021332
      dx2y2   :     0.005143
      dxy     :     0.005141
      f0      :     0.000931  f :     0.005203
      f+1     :     0.001421
      f-1     :     0.001433
      f+2     :     0.000425
      f-2     :     0.000425
      f+3     :     0.000283
      f-3     :     0.000284


                     *******************************
                     * LOEWDIN POPULATION ANALYSIS *
                     *******************************

----------------------
LOEWDIN ATOMIC CHARGES
----------------------
   0 C :   -0.281173
   1 H :    0.157461
   2 H :    0.152098
   3 H :    0.152209
   4 C :   -0.207733
   5 N :    0.027913
   6 C :   -0.283814
   7 H :    0.151424
   8 H :    0.151796
   9 H :    0.153119
  10 C :   -0.218768
  11 N :    0.046242
  12 C :   -0.282789
  13 H :    0.151162
  14 H :    0.152594
  15 H :    0.156665
  16 C :   -0.209017
  17 N :    0.030611

-------------------------------
LOEWDIN REDUCED ORBITAL CHARGES
-------------------------------
  0 C s       :     2.816702  s :     2.816702
      pz      :     1.029664  p :     3.158013
      px      :     1.064654
      py      :     1.063694
      dz2     :     0.076444  d :     0.275056
      dxz     :     0.065338
      dyz     :     0.067525
      dx2y2   :     0.031623
      dxy     :     0.034125
      f0      :     0.008159  f :     0.031403
      f+1     :     0.006593
      f-1     :     0.006346
      f+2     :     0.003113
      f-2     :     0.002592
      f+3     :     0.001319
      f-3     :     0.003280
  1 H s       :     0.773997  s :     0.773997
      pz      :     0.013738  p :     0.068542
      px      :     0.030501
      py      :     0.024304
  2 H s       :     0.781874  s :     0.781874
      pz      :     0.015142  p :     0.066028
      px      :     0.014877
      py      :     0.036010
  3 H s       :     0.781887  s :     0.781887
      pz      :     0.014785  p :     0.065904
      px      :     0.033811
      py      :     0.017308
  4 C s       :     2.841883  s :     2.841883
      pz      :     1.171230  p :     2.839124
      px      :     0.833909
      py      :     0.833985
      dz2     :     0.163597  d :     0.459912
      dxz     :     0.143314
      dyz     :     0.142621
      dx2y2   :     0.004758
      dxy     :     0.005622
      f0      :     0.025527  f :     0.066815
      f+1     :     0.019646
      f-1     :     0.019553
      f+2     :     0.000745
      f-2     :     0.000829
      f+3     :     0.000255
      f-3     :     0.000261
  5 N s       :     3.300940  s :     3.300940
      pz      :     1.466837  p :     3.516950
      px      :     1.024721
      py      :     1.025392
      dz2     :     0.052928  d :     0.135187
      dxz     :     0.036211
      dyz     :     0.035879
      dx2y2   :     0.005088
      dxy     :     0.005080
      f0      :     0.007384  f :     0.019010
      f+1     :     0.005083
      f-1     :     0.005061
      f+2     :     0.000457
      f-2     :     0.000456
      f+3     :     0.000284
      f-3     :     0.000285
  6 C s       :     2.816919  s :     2.816919
      pz      :     1.033697  p :     3.155914
      px      :     1.061592
      py      :     1.060626
      dz2     :     0.074893  d :     0.279450
      dxz     :     0.066469
      dyz     :     0.071795
      dx2y2   :     0.032022
      dxy     :     0.034272
      f0      :     0.007956  f :     0.031530
      f+1     :     0.006789
      f-1     :     0.006346
      f+2     :     0.003025
      f-2     :     0.002834
      f+3     :     0.002775
      f-3     :     0.001806
  7 H s       :     0.782651  s :     0.782651
      pz      :     0.015586  p :     0.065924
      px      :     0.016056
      py      :     0.034283
  8 H s       :     0.782115  s :     0.782115
      pz      :     0.014321  p :     0.066089
      px      :     0.024167
      py      :     0.027601
  9 H s       :     0.781095  s :     0.781095
      pz      :     0.014276  p :     0.065786
      px      :     0.036305
      py      :     0.015205
 10 C s       :     2.841281  s :     2.841281
      pz      :     1.170235  p :     2.859638
      px      :     0.844478
      py      :     0.844924
      dz2     :     0.163612  d :     0.451372
      dxz     :     0.139161
      dyz     :     0.138621
      dx2y2   :     0.004751
      dxy     :     0.005227
      f0      :     0.025636  f :     0.066478
      f+1     :     0.019307
      f-1     :     0.019424
      f+2     :     0.000782
      f-2     :     0.000815
      f+3     :     0.000257
      f-3     :     0.000257
 11 N s       :     3.306497  s :     3.306497
      pz      :     1.466256  p :     3.491177
      px      :     1.012516
      py      :     1.012404
      dz2     :     0.053312  d :     0.136880
      dxz     :     0.036900
      dyz     :     0.036970
      dx2y2   :     0.004851
      dxy     :     0.004847
      f0      :     0.007398  f :     0.019205
      f+1     :     0.005158
      f-1     :     0.005181
      f+2     :     0.000458
      f-2     :     0.000456
      f+3     :     0.000277
      f-3     :     0.000277
 12 C s       :     2.817516  s :     2.817516
      pz      :     1.030618  p :     3.158361
      px      :     1.063753
      py      :     1.063990
      dz2     :     0.076255  d :     0.275523
      dxz     :     0.067499
      dyz     :     0.065793
      dx2y2   :     0.032461
      dxy     :     0.033515
      f0      :     0.008131  f :     0.031389
      f+1     :     0.006440
      f-1     :     0.006522
      f+2     :     0.003091
      f-2     :     0.002608
      f+3     :     0.001730
      f-3     :     0.002867
 13 H s       :     0.783095  s :     0.783095
      pz      :     0.015107  p :     0.065743
      px      :     0.034249
      py      :     0.016387
 14 H s       :     0.781703  s :     0.781703
      pz      :     0.014626  p :     0.065703
      px      :     0.015206
      py      :     0.035871
 15 H s       :     0.774824  s :     0.774824
      pz      :     0.013732  p :     0.068511
      px      :     0.029621
      py      :     0.025158
 16 C s       :     2.841769  s :     2.841769
      pz      :     1.170702  p :     2.841300
      px      :     0.835500
      py      :     0.835098
      dz2     :     0.163694  d :     0.459144
      dxz     :     0.142557
      dyz     :     0.142275
      dx2y2   :     0.004877
      dxy     :     0.005741
      f0      :     0.025506  f :     0.066804
      f+1     :     0.019653
      f-1     :     0.019469
      f+2     :     0.000794
      f-2     :     0.000863
      f+3     :     0.000256
      f-3     :     0.000262
 17 N s       :     3.301246  s :     3.301246
      pz      :     1.466168  p :     3.513627
      px      :     1.023375
      py      :     1.024084
      dz2     :     0.052936  d :     0.135474
      dxz     :     0.036359
      dyz     :     0.035962
      dx2y2   :     0.005113
      dxy     :     0.005105
      f0      :     0.007374  f :     0.019042
      f+1     :     0.005101
      f-1     :     0.005060
      f+2     :     0.000471
      f-2     :     0.000469
      f+3     :     0.000284
      f-3     :     0.000285


                      *****************************
                      * MAYER POPULATION ANALYSIS *
                      *****************************

  NA   - Mulliken gross atomic population
  ZA   - Total nuclear charge
  QA   - Mulliken gross atomic charge
  VA   - Mayer's total valence
  BVA  - Mayer's bonded valence
  FA   - Mayer's free valence

  ATOM       NA         ZA         QA         VA         BVA        FA
  0 C      6.2840     6.0000    -0.2840     3.9085     3.6258     0.2827
  1 H      0.7952     1.0000     0.2048     0.9700     0.9236     0.0464
  2 H      0.8330     1.0000     0.1670     0.9655     0.9182     0.0473
  3 H      0.8313     1.0000     0.1687     0.9632     0.9158     0.0474
  4 C      6.1038     6.0000    -0.1038     4.0906     3.6668     0.4238
  5 N      7.1521     7.0000    -0.1521     3.3078     2.8285     0.4793
  6 C      6.2803     6.0000    -0.2803     3.9301     3.6484     0.2817
  7 H      0.8277     1.0000     0.1723     0.9634     0.9165     0.0469
  8 H      0.8273     1.0000     0.1727     0.9632     0.9164     0.0469
  9 H      0.8280     1.0000     0.1720     0.9632     0.9160     0.0471
 10 C      6.1457     6.0000    -0.1457     4.1481     3.7211     0.4271
 11 N      7.0910     7.0000    -0.0910     3.3464     2.8734     0.4730
 12 C      6.2845     6.0000    -0.2845     3.9102     3.6271     0.2831
 13 H      0.8326     1.0000     0.1674     0.9634     0.9159     0.0475
 14 H      0.8346     1.0000     0.1654     0.9657     0.9182     0.0476
 15 H      0.7959     1.0000     0.2041     0.9698     0.9234     0.0464
 16 C      6.1054     6.0000    -0.1054     4.0896     3.6653     0.4244
 17 N      7.1475     7.0000    -0.1475     3.3065     2.8276     0.4789

  Mayer bond orders larger than 0.100000
B(  0-C ,  1-H ) :   0.9019 B(  0-C ,  2-H ) :   0.9146 B(  0-C ,  3-H ) :   0.9157 
B(  0-C ,  4-C ) :   0.9014 B(  4-C ,  5-N ) :   2.7754 B(  6-C ,  7-H ) :   0.9162 
B(  6-C ,  8-H ) :   0.9166 B(  6-C ,  9-H ) :   0.9166 B(  6-C , 10-C ) :   0.9028 
B( 10-C , 11-N ) :   2.8373 B( 12-C , 13-H ) :   0.9165 B( 12-C , 14-H ) :   0.9151 
B( 12-C , 15-H ) :   0.9018 B( 12-C , 16-C ) :   0.9015 B( 16-C , 17-N ) :   2.7747 



----------------------------------
MP2 DERIVATIVE INTEGRAL GENERATION
----------------------------------


Input Wavefunction Amplitudes       ... 12mecn.remya.etal.2.mol0,3,8-orca.engrad-mp2.def2tzvp.frozencore.mp2tsaa.tmp
Input Correlated Electron Density   ... 12mecn.remya.etal.2.mol0,3,8-orca.engrad-mp2.def2tzvp.frozencore.pmp2re
Input Energy Weighted Density       ... 12mecn.remya.etal.2.mol0,3,8-orca.engrad-mp2.def2tzvp.frozencore.wmp2.tmp
Input SCF Electron Density          ... 12mecn.remya.etal.2.mol0,3,8-orca.engrad-mp2.def2tzvp.frozencore.scfp

One-Electron Terms    ...
                        ... One-Electron Terms done
Prescreening matrices              ... done

Batch handling in the gradient evaluation:
Memory available                      ... 8000.0 MB
Memory per occupied orbital in Q2     ...   20.3 MB
Memory per occupied orbital in Q3     ...    0.1 MB
Total memory requirement per |i>      ...   20.4 MB
Max. Number of orbitals possible      ...    391
Number of orbitals treated per batch  ...     24
Number of batches to be done          ...      1
Batch   0: i=    9 ...    32

---------------------------------------
MP2 TOTAL ENERGY:     -397.459503977 Eh
---------------------------------------

The final MP2 gradient
  0:   0.00099556  -0.00175755  -0.00779708
  1:   0.00138403   0.00165910   0.00015984
  2:   0.00042511  -0.00201448   0.00063397
  3:  -0.00230253   0.00118521  -0.00085105
  4:  -0.00037185   0.00088337   0.00338589
  5:  -0.00032243  -0.00007914   0.00419561
  6:  -0.00249067   0.00196613   0.00753536
  7:  -0.00070213   0.00241630  -0.00060086
  8:  -0.00037152  -0.00192053  -0.00009014
  9:   0.00257290  -0.00147519   0.00089205
 10:   0.00082502  -0.00077301  -0.00312315
 11:   0.00016115  -0.00014870  -0.00462206
 12:  -0.00051514  -0.00058800   0.00794280
 13:   0.00291224  -0.00096167   0.00029592
 14:  -0.00072667   0.00314140  -0.00003559
 15:  -0.00189153  -0.00180184  -0.00057447
 16:  -0.00008470   0.00014798  -0.00268618
 17:   0.00050316   0.00012062  -0.00466088

-----------------------------------
NORM OF THE MP2 GRADIENT:  0.018738
-----------------------------------

-------------------------   --------------------
FINAL SINGLE POINT ENERGY      -397.459503976907
-------------------------   --------------------


                            ***************************************
                            *     ORCA property calculations      *
                            ***************************************

                                    ---------------------
                                    Active property flags
                                    ---------------------
   (+) Dipole Moment


------------------------------------------------------------------------------
                       ORCA ELECTRIC PROPERTIES CALCULATION
------------------------------------------------------------------------------

Dipole Moment Calculation                       ... on
Quadrupole Moment Calculation                   ... off
Polarizability Calculation                      ... off
GBWName                                         ... 12mecn.remya.etal.2.mol0,3,8-orca.engrad-mp2.def2tzvp.frozencore.gbw
Electron density file                           ... 12mecn.remya.etal.2.mol0,3,8-orca.engrad-mp2.def2tzvp.frozencore.scfp
The origin for moment calculation is the CENTER OF MASS  = (-2.596092, -2.203950 -0.246127)

-------------
DIPOLE MOMENT
-------------
                                X             Y             Z
Electronic contribution:      0.01249       0.09587       3.00597
Nuclear contribution   :     -0.03786      -0.15983      -4.65105
                        -----------------------------------------
Total Dipole Moment    :     -0.02537      -0.06396      -1.64508
                        -----------------------------------------
Magnitude (a.u.)       :      1.64652
Magnitude (Debye)      :      4.18512



--------------------
Rotational spectrum 
--------------------
 
Rotational constants in cm-1:     0.044159     0.008117     0.007711 
Rotational constants in MHz :  1323.859901   243.331279   231.179981 

 Dipole components along the rotational axes: 
x,y,z [a.u.] :     0.023419     0.938666    -1.352549 
x,y,z [Debye]:     0.059525     2.385900    -3.437907 

 

                         *** MP2 UNRELAXED DENSITY ***

------------------------------------------------------------------------------
                       ORCA ELECTRIC PROPERTIES CALCULATION
------------------------------------------------------------------------------

Dipole Moment Calculation                       ... on
Quadrupole Moment Calculation                   ... off
Polarizability Calculation                      ... off
GBWName                                         ... 12mecn.remya.etal.2.mol0,3,8-orca.engrad-mp2.def2tzvp.frozencore.gbw
Electron density file                           ... 12mecn.remya.etal.2.mol0,3,8-orca.engrad-mp2.def2tzvp.frozencore.pmp2ur
The origin for moment calculation is the CENTER OF MASS  = (-2.596092, -2.203950 -0.246127)

-------------
DIPOLE MOMENT
-------------
                                X             Y             Z
Electronic contribution:      0.01337       0.09719       3.04124
Nuclear contribution   :     -0.03786      -0.15983      -4.65105
                        -----------------------------------------
Total Dipole Moment    :     -0.02450      -0.06264      -1.60981
                        -----------------------------------------
Magnitude (a.u.)       :      1.61122
Magnitude (Debye)      :      4.09539



--------------------
Rotational spectrum 
--------------------
 
Rotational constants in cm-1:     0.044159     0.008117     0.007711 
Rotational constants in MHz :  1323.859901   243.331279   231.179981 

 Dipole components along the rotational axes: 
x,y,z [a.u.] :     0.022644     0.918700    -1.323442 
x,y,z [Debye]:     0.057555     2.335150    -3.363922 

 

                           *** MP2 RELAXED DENSITY ***

------------------------------------------------------------------------------
                       ORCA ELECTRIC PROPERTIES CALCULATION
------------------------------------------------------------------------------

Dipole Moment Calculation                       ... on
Quadrupole Moment Calculation                   ... off
Polarizability Calculation                      ... off
GBWName                                         ... 12mecn.remya.etal.2.mol0,3,8-orca.engrad-mp2.def2tzvp.frozencore.gbw
Electron density file                           ... 12mecn.remya.etal.2.mol0,3,8-orca.engrad-mp2.def2tzvp.frozencore.pmp2re
The origin for moment calculation is the CENTER OF MASS  = (-2.596092, -2.203950 -0.246127)

-------------
DIPOLE MOMENT
-------------
                                X             Y             Z
Electronic contribution:      0.01561       0.10129       3.14118
Nuclear contribution   :     -0.03786      -0.15983      -4.65105
                        -----------------------------------------
Total Dipole Moment    :     -0.02225      -0.05853      -1.50988
                        -----------------------------------------
Magnitude (a.u.)       :      1.51117
Magnitude (Debye)      :      3.84110



--------------------
Rotational spectrum 
--------------------
 
Rotational constants in cm-1:     0.044159     0.008117     0.007711 
Rotational constants in MHz :  1323.859901   243.331279   231.179981 

 Dipole components along the rotational axes: 
x,y,z [a.u.] :     0.020881     0.862211    -1.240888 
x,y,z [Debye]:     0.053075     2.191565    -3.154087 

 

Timings for individual modules:

Sum of individual times         ...      153.653 sec (=   2.561 min)
GTO integral calculation        ...        1.317 sec (=   0.022 min)   0.9 %
SCF iterations                  ...       33.441 sec (=   0.557 min)  21.8 %
MP2 module                      ...      118.895 sec (=   1.982 min)  77.4 %
                             ****ORCA TERMINATED NORMALLY****
TOTAL RUN TIME: 0 days 0 hours 2 minutes 34 seconds 720 msec
