13
Energy:   -174.25310769
C    1.09641118  -2.89615482  -3.08967842
H    2.06113048  -3.32146385  -3.27224092
H    0.52208755  -2.91412247  -3.99230161
H    0.59315581  -3.46415893  -2.33535457
C    1.25884505  -1.44066385  -2.61348383
N    1.37978446  -0.35698467  -2.25893532
C   -1.72255292   2.11489719   3.45276448
H   -2.54784500   1.46889715   3.23717897
H   -2.08149706   3.10943026   3.61696608
H   -1.21811453   1.76831800   4.33044545
C   -0.74415048   2.11208510   2.26351230
N   -0.01568539   2.10999138   1.37806000
Na   1.41843085   1.70992950  -0.71693260
