13
Energy:   -184.02838670
C   -2.22056668  -2.67209541   1.72376516
H   -2.32335503  -2.25094264   2.70201108
H   -1.32894644  -3.26210611   1.68134094
H   -3.06767025  -3.29008794   1.51069272
C   -2.13669887  -1.53961693   0.68354467
N   -2.07425547  -0.69643523  -0.09094677
C    3.03872557   2.12144175  -1.08154596
H    3.22213271   2.53400488  -0.11146675
H    3.42837473   2.78058330  -1.82894480
H    3.51929142   1.16870754  -1.16062232
C    1.52229459   1.95021290  -1.28822873
N    0.39324280   1.82272524  -1.44211345
Na  -1.97256910   1.33360864  -1.29748580
