13
Energy:   -175.66408688
C   -3.29290241  -1.72333560   2.12975732
H   -2.56308051  -1.71760035   2.91220685
H   -3.88499633  -2.61174844   2.20079607
H   -3.92471986  -0.86506635   2.22504486
C   -2.58178168  -1.68820575   0.76422695
N   -2.05231998  -1.66204999  -0.25247249
C    3.60082414   2.02584581  -1.18280350
H    3.49780710   2.60214543  -0.28716606
H    3.95290401   2.65513742  -1.97332922
H    4.30119879   1.23373884  -1.01866641
C    2.23434145   1.43073650  -1.57032120
N    1.21693298   0.98765056  -1.85884575
Na  -0.50420770  -0.66724808  -2.08842742
