60
Energy:   -252.12018521
C   -2.44118749  -2.89815543  -2.83261993
H   -2.46965380  -1.89268100  -3.19746378
H   -3.29377206  -3.43342486  -3.19522892
H   -1.54750863  -3.37666680  -3.17505834
C   -2.45936237  -2.88620043  -1.29277359
N   -2.47289440  -2.87729939  -0.14628800
C    3.73229198  -0.62487848   3.47158029
H    4.64928548  -0.60979817   2.92040365
H    3.01002189  -1.21412934   2.94621526
H    3.90421005  -1.04991980   4.43837042
C    3.20460141   0.81324222   3.62954076
N    2.81171179   1.88398845   3.74714951
C   -3.32770744   0.55173625   0.35587065
H   -2.57333476  -0.08938323   0.76181135
H   -4.29430759   0.18010865   0.62508466
H   -3.20399844   1.54006592   0.74676659
C   -3.20030680   0.58687911  -1.17844811
N   -3.10545123   0.61304456  -2.32081816
C    3.96794979  -0.36371551  -2.55061141
H    4.98050979  -0.16140439  -2.83113350
H    3.32981462   0.40066102  -2.94228873
H    3.67132308  -1.31293939  -2.94543506
C    3.85597847  -0.38885033  -1.01489312
N    3.77261073  -0.40756434   0.12851895
C    2.01434723   2.66416948   0.59089763
H    1.87307767   1.66888271   0.95743184
H    1.21996347   3.28945461   0.94142870
H    2.95004458   3.04475457   0.94377800
C    2.01428389   2.64893719  -0.94902704
N    2.01423672   2.63759606  -2.09557095
C   -1.39506201   3.81467239  -2.57844639
H   -2.01853262   3.06201565  -3.01398331
H   -0.39502604   3.70403931  -2.94257203
H   -1.76616251   4.78258538  -2.84364055
C   -1.40292732   3.66409296  -1.04584599
N   -1.40878341   3.55197972   0.09524466
C   -0.70941037   1.45830899   3.01686686
H   -0.07195397   2.17053352   3.49778863
H   -1.69546313   1.52852039   3.42634141
H   -0.74382538   1.66216757   1.96703051
C   -0.15815932   0.03877964   3.24634176
N    0.25227214  -1.01812448   3.41719625
C   -2.54910646  -3.10882399   3.19519116
H   -1.58204543  -3.03001942   2.74410029
H   -3.18388763  -3.70739618   2.57578556
H   -2.45720206  -3.56551212   4.15846092
C   -3.15961582  -1.70345513   3.34951776
N   -3.61416778  -0.65709413   3.46442093
C    0.94629775  -2.43373518   0.36601313
H    1.82171498  -2.33745501   0.97369313
H    1.19283122  -2.95678325  -0.53428740
H    0.19822346  -2.97950015   0.90213302
C    0.40819426  -1.03401233   0.01555547
N    0.00755175   0.00814496  -0.24537619
C   -0.03762392   0.50829991  -3.71405023
H   -0.26578657   0.98155100  -2.78191537
H   -0.92566013   0.44220316  -4.30728036
H    0.69783830   1.08424363  -4.23585790
C    0.51035323  -0.90662894  -3.45080623
N    0.91834713  -1.96010778  -3.25480912
