60
Energy:   -252.47089152
C    2.54278588   0.67411605  -3.84738182
H    3.18459496   0.93611857  -4.66244989
H    2.79747209   1.26124630  -2.98987840
H    1.52537340   0.86300197  -4.11958220
C    2.71681657  -0.81985755  -3.51669131
N    2.84639032  -1.93218880  -3.27047720
C   -0.04914568  -3.05951570   3.49952564
H   -0.51735939  -4.01241699   3.63239867
H    0.61730824  -2.87270274   4.31551533
H    0.50115570  -3.05736867   2.58188580
C   -1.12648794  -1.96000932   3.45458794
N   -1.92861822  -1.14137685   3.42112977
C    2.90611764   1.95591120   3.15962286
H    2.73744304   2.32281167   2.16874794
H    3.93751595   2.08097242   3.41550628
H    2.29847144   2.50216089   3.85047483
C    2.53899608   0.46166023   3.22315090
N    2.26565739  -0.65087753   3.27045041
C    3.28773800  -1.97198932   0.07591764
H    4.17679929  -2.38112328  -0.35660934
H    2.43102180  -2.36775353  -0.42837110
H    3.24312148  -2.23232874   1.11280329
C    3.30539969  -0.43884075  -0.06810848
N    3.31854962   0.70265805  -0.17534247
C   -3.45514493  -1.56089990   0.37371876
H   -3.38809635  -0.54109536   0.69058366
H   -2.63949998  -2.11699956   0.78648452
H   -4.37980630  -1.97953436   0.71231236
C   -3.39474252  -1.62576773  -1.16372838
N   -3.34977017  -1.67406477  -2.30842766
C   -0.32011010  -3.43608838  -2.75944520
H    0.65806830  -3.65959477  -3.13107955
H   -0.63714883  -2.48680611  -3.13792733
H   -1.00468195  -4.19398581  -3.07858775
C   -0.28638523  -3.38985726  -1.22050878
N   -0.26127553  -3.35543609  -0.07470066
C   -2.80231812   1.71455992  -3.15516706
H   -3.04806002   2.65403340  -3.60450066
H   -3.53076480   0.98313077  -3.43672687
H   -1.83512649   1.40161924  -3.48909454
C   -2.79224775   1.86553251  -1.62261825
N   -2.78474990   1.97793846  -0.48156600
C   -2.80082251   2.12777901   3.04925633
H   -3.09914878   1.51767942   2.22240682
H   -3.44454974   2.98000641   3.11423949
H   -2.86803939   1.56022531   3.95383567
C   -1.34822504   2.59614987   2.84385594
N   -0.26670019   2.94487327   2.69092601
C   -0.05666719   0.04735258   0.74884428
H   -1.05156485   0.22441891   1.10059182
H    0.58292088   0.84148559   1.07315732
H    0.30059489  -0.88148426   1.14194099
C   -0.05947731  -0.01361787  -0.78994574
N   -0.06156957  -0.05901315  -1.93564485
C    0.73438050   3.46453221  -0.62516033
H    1.52933393   2.79291080  -0.37641565
H   -0.15225905   3.17814199  -0.09908994
H    1.00853185   4.46052222  -0.34633419
C    0.47176649   3.40987161  -2.14161874
N    0.27623843   3.36917431  -3.27069095
