60
Energy:   -252.86824225
C   -0.42524718   0.42097311   0.30837256
H   -1.30469406  -0.14931436   0.52342039
H    0.42907574  -0.07001288   0.72546272
H   -0.30562491   0.50602999  -0.75151184
C   -0.56125433   1.82599772   0.92400873
N   -0.66251783   2.87210241   1.38237784
C    3.27140371   0.26451079  -1.71165284
H    3.82019868   1.16452637  -1.52808752
H    2.31349809   0.50815998  -2.12147108
H    3.81068860  -0.34703704  -2.40453100
C    3.08404977  -0.50134118  -0.38878880
N    2.94455625  -1.07155278   0.59614360
C   -2.99499811   0.68205941   3.54586172
H   -2.73040599  -0.34240698   3.70510938
H   -3.70487141   0.98634964   4.28639291
H   -2.11910998   1.29223088   3.61941343
C   -3.61475130   0.84038419   2.14499084
N   -4.07618573   0.95826419   1.10197879
C    2.67137990  -4.40992738  -0.63650476
H    1.61522548  -4.51453819  -0.50050991
H    3.08923995  -3.89159732   0.20112644
H    3.11850183  -5.37880395  -0.71562023
C    2.94652580  -3.61091441  -1.92393359
N    3.15138443  -3.01601294  -2.88248288
C   -3.77256623  -2.23095579  -0.60230900
H   -4.50049759  -3.00355270  -0.73688284
H   -3.01908679  -2.31540199  -1.35731673
H   -4.24826055  -1.27554008  -0.67843282
C   -3.12469098  -2.37253901   0.78758735
N   -2.64231841  -2.47795416   1.82242835
C    0.12300912  -1.15664023  -3.58355502
H    1.05833610  -1.42730597  -4.02718063
H    0.12673331  -0.11179878  -3.35292205
H   -0.67115069  -1.36779667  -4.26884492
C   -0.08552649  -1.96696855  -2.29069737
N   -0.24079074  -2.57029482  -1.32810608
C    0.61654111  -2.87103423   2.36852912
H    0.38479146  -2.73971970   1.33221413
H   -0.00533418  -3.63919795   2.77852268
H    1.64408549  -3.15111686   2.47151148
C    0.36622671  -1.55133551   3.12174753
N    0.17985626  -0.56875982   3.68255288
C    2.50817529   1.76041612   3.02251316
H    3.13283997   2.19093620   3.77706381
H    2.64981419   0.69998513   3.00452348
H    1.48367537   1.97977642   3.23972291
C    2.87978565   2.35130313   1.64979386
N    3.15646646   2.79124537   0.62774195
C    1.15046263   4.77696182  -1.10229449
H    0.72011742   5.61488032  -1.60983342
H    2.21551491   4.87842405  -1.08591926
H    0.78032394   4.73907550  -0.09906916
C    0.76968128   3.47948145  -1.83928177
N    0.48617225   2.51344834  -2.38800230
C   -3.05597888   2.82523752  -1.63303090
H   -4.04882193   3.14188606  -1.87571706
H   -2.34902977   3.47879381  -2.09992084
H   -2.92174743   2.85417663  -0.57187891
C   -2.83769790   1.38721458  -2.13903825
N   -2.67517779   0.31654114  -2.51578373
