60
Energy:   -254.72415547
C    3.00315487   1.27119004  -3.19557840
H    2.42838707   0.41542897  -3.48231024
H    3.99631047   1.17996364  -3.58315908
H    2.54668323   2.15547066  -3.58874571
C    3.05796723   1.36144120  -1.65920269
N    3.09877751   1.42863730  -0.51530113
C    0.02558913  -3.37208055   3.11826531
H    0.51350059  -3.40139896   2.16643391
H   -0.41984466  -4.32376950   3.32019592
H    0.74230657  -3.14498800   3.87960897
C   -1.06708627  -2.28700486   3.10179611
N   -1.88063276  -1.47911668   3.08953403
C    2.94877365   1.72423058   3.07032995
H    2.71753916   2.15649078   2.11923484
H    3.99827348   1.81531045   3.25782305
H    2.40393227   2.23536101   3.83635386
C    2.55524686   0.23536372   3.06684421
N    2.26224828  -0.87316533   3.06424892
C    3.11389285  -2.19820075   0.07764667
H    2.19165122  -2.55570123   0.48576915
H    3.28772951  -1.19691274   0.41246336
H    3.91572263  -2.82743549   0.40327182
C    3.03700091  -2.21914594  -1.46028991
N    2.97975137  -2.23474058  -2.60535361
C   -3.46035312  -1.59639251   0.10767586
H   -3.30800534  -0.61327392   0.50158979
H   -2.67935257  -2.24275157   0.44995818
H   -4.40545749  -1.97156755   0.44072314
C   -3.44343316  -1.54110277  -1.43123829
N   -3.43083548  -1.49993705  -2.57702983
C   -0.40743546  -3.28124714  -3.14864801
H    0.58576540  -3.33354016  -3.54325879
H   -0.86188241  -2.35978281  -3.44744654
H   -0.98376227  -4.10117141  -3.52344221
C   -0.35335847  -3.35212617  -1.61123075
N   -0.31309570  -3.40489883  -0.46655371
C   -2.64477273   1.94867393  -3.17085933
H   -3.18741393   1.10913080  -3.55244555
H   -1.62017447   1.87735919  -3.47087882
H   -3.06758968   2.85231272  -3.55759162
C   -2.72989045   1.95906403  -1.63324852
N   -2.79326447   1.96679993  -0.48842737
C   -2.92648080   1.70777219   3.10070944
H   -3.19785301   1.28647611   2.15531697
H   -3.52755423   2.57213192   3.29173845
H   -3.08650253   0.98435830   3.87269679
C   -1.44049696   2.11126770   3.07534415
N   -0.33411445   2.41168845   3.05645853
C    0.00273634   0.00342162   0.53002503
H   -0.98524986   0.20044546   0.89053169
H    0.66809852   0.76556346   0.87835257
H    0.33088291  -0.94884200   0.89115231
C   -0.00521203  -0.00651221  -1.00992242
N   -0.01112995  -0.01390840  -2.15648329
C    0.34770131   3.79612061   0.05325827
H   -0.60182352   3.44781850   0.40252668
H    0.49602269   4.80680768   0.37171001
H    1.12378534   3.17826388   0.45431403
C    0.38385456   3.73203315  -1.48498285
N    0.41077230   3.68431712  -2.63027328
