
                                 *****************
                                 * O   R   C   A *
                                 *****************

           --- An Ab Initio, DFT and Semiempirical electronic structure package ---

                  #######################################################
                  #                        -***-                        #
                  #  Department of molecular theory and spectroscopy    #
                  #              Directorship: Frank Neese              #
                  # Max Planck Institute for Chemical Energy Conversion #
                  #                  D-45470 Muelheim/Ruhr              #
                  #                       Germany                       #
                  #                                                     #
                  #                  All rights reserved                #
                  #                        -***-                        #
                  #######################################################


                         Program Version 3.0.3 - RELEASE   -


 With contributions from (in alphabetic order):
   Ute Becker             : Parallelization
   Dmytro Bykov           : SCF Hessian
   Dmitry Ganyushin       : Spin-Orbit,Spin-Spin,Magnetic field MRCI
   Andreas Hansen         : Spin unrestricted coupled pair/coupled cluster methods
   Dimitrios Liakos       : Extrapolation schemes; parallel MDCI
   Robert Izsak           : Overlap fitted RIJCOSX, COSX-SCS-MP3
   Christian Kollmar      : KDIIS, OOCD, Brueckner-CCSD(T), CCSD density
   Simone Kossmann        : Meta GGA functionals, TD-DFT gradient, OOMP2, MP2 Hessian
   Taras Petrenko         : DFT Hessian,TD-DFT gradient, ASA and ECA modules, normal mode analysis, Resonance Raman, ABS, FL, XAS/XES, NRVS
   Christoph Reimann      : Effective Core Potentials
   Michael Roemelt        : Restricted open shell CIS
   Christoph Riplinger    : Improved optimizer, TS searches, QM/MM, DLPNO-CCSD
   Barbara Sandhoefer     : DKH picture change effects
   Igor Schapiro          : Molecular dynamics
   Kantharuban Sivalingam : CASSCF convergence, NEVPT2
   Boris Wezisla          : Elementary symmetry handling
   Frank Wennmohs         : Technical directorship


 We gratefully acknowledge several colleagues who have allowed us to
 interface, adapt or use parts of their codes:
   Stefan Grimme, W. Hujo, H. Kruse, T. Risthaus : VdW corrections, initial TS optimization,
                                                   DFT functionals, gCP
   Ed Valeev                                     : LibInt (2-el integral package), F12 methods
   Garnet Chan, S. Sharma, R. Olivares           : DMRG
   Ulf Ekstrom                                   : XCFun DFT Library
   Mihaly Kallay                                 : mrcc  (arbitrary order and MRCC methods)
   Andreas Klamt, Michael Diedenhofen            : otool_cosmo (COSMO solvation model)
   Frank Weinhold                                : gennbo (NPA and NBO analysis)
   Christopher J. Cramer and Donald G. Truhlar   : smd solvation model


 Your calculation uses the libint2 library for the computation of 2-el integrals
 For citations please refer to: http://libint.valeyev.net

 This ORCA versions uses:
   CBLAS   interface :  Fast vector & matrix operations
   LAPACKE interface :  Fast linear algebra routines
   SCALAPACK package :  Parallel linear algebra routines


Your calculation utilizes the basis: ma-def2-TZVP
Cite in your paper:
        def2-TZVP: F. Weigend, R. Ahlrichs, Phys. Chem. Chem. Phys. 2005, 7, 3297.
        Minimal augmentation of diffuse functions: J. Zheng, X. Xu, D. G. Truhlar, Theor. Chem. Acc. 2011, 128, 295.

Your calculation utilizes the atom-pairwise dispersion correction
with the zero-damping scheme (D30)
Cite in your paper:
S.Grimme, J.Antony, S.Ehrlich and H.Krieg, J.Chem.Phys., 132, (2010), 154104 
   

XCFun DFT library Copyright 2009-2010 Ulf Ekstrom and contributors.
See http://admol.org/xcfun for more information. This is free soft-
ware; see the source code for copying conditions. There is ABSOLUTELY
NO WARRANTY; not even for MERCHANTABILITY or FITNESS FOR A PARTICULAR
PURPOSE. For details see the documentation. Scientific users of this 
library should cite U. Ekstrom, L. Visscher, R. Bast, A. J. Thorvald-
sen and K. Ruud; J.Chem.Theor.Comp. 2010, DOI: 10.1021/ct100117s
XCFun Version 0.99 
================================================================================
                                        WARNINGS
                       Please study these warnings very carefully!
================================================================================
Now building the actual basis set


INFO   : the flag for use of LIBINT has been found!

================================================================================
                                       INPUT FILE
================================================================================
NAME = 3_wb98x-ma-def2-TZVP-SMD_onBP86_SMD_16_waters.inp
|  1> ! wB97X-D3 MA-Def2-TZVP def2-TZVP/J RIJCOSX TightSCF Grid4 
|  2> 
|  3> %pal nprocs 1 end
|  4> 
|  5> %scf
|  6>         maxiter 400
|  7> end
|  8> 
|  9> %cosmo
| 10>         SMD true
| 11>         solvent "WATER"
| 12> end
| 13> 
| 14> * xyz  0  1
| 15> O  3.073672	0.824351	-3.041152
| 16> H  3.585628	1.355768	-3.682145
| 17> H  2.433587	0.243965	-3.598960
| 18> O  -2.220201	0.551597	-0.357248
| 19> H  -3.058096	0.767288	0.158502
| 20> H  -1.550510	1.213771	0.021938
| 21> O  -0.440292	-0.075332	-2.266484
| 22> H  -1.296865	0.147143	-1.808654
| 23> H  0.221474	0.584314	-1.864973
| 24> O  1.371565	-0.782081	-4.197166
| 25> H  1.691382	-1.609278	-3.727958
| 26> H  0.546152	-0.546572	-3.697110
| 27> O  2.300706	-2.730354	-2.572755
| 28> H  3.071347	-2.199088	-2.148818
| 29> H  2.684477	-3.582983	-2.857231
| 30> O  -3.986922	1.095003	1.524357
| 31> H  -4.898606	1.443063	1.466077
| 32> H  -3.422901	1.851127	1.933957
| 33> O  0.387259	0.097389	2.284776
| 34> H  -0.079166	0.345441	3.142284
| 35> H  -0.253013	-0.575768	1.873194
| 36> O  -3.085693	-0.884361	3.123602
| 37> H  -2.517843	-1.355558	2.457098
| 38> H  -3.580580	-0.220601	2.555956
| 39> O  -1.379574	0.824546	4.106598
| 40> H  -2.066257	0.112194	3.820882
| 41> H  -1.342943	0.785511	5.082877
| 42> O  1.386586	1.473688	-1.123256
| 43> H  2.061340	1.488357	-1.871341
| 44> H  1.750651	0.749198	-0.511517
| 45> O  -2.335599	2.829203	2.568013
| 46> H  -1.616094	2.825477	1.882000
| 47> H  -1.972887	2.208445	3.268473
| 48> O  -1.361993	-1.502701	1.082608
| 49> H  -0.788099	-2.033559	0.464574
| 50> H  -1.741291	-0.771933	0.485246
| 51> O  -0.393723	2.127239	0.766649
| 52> H  -0.028016	1.400942	1.378316
| 53> H  0.293509	2.198022	0.047268
| 54> O  4.071590	-1.142576	-1.482752
| 55> H  3.592692	-0.927906	-0.638322
| 56> H  3.852072	-0.356592	-2.067905
| 57> O  2.181743	-0.554013	0.401595
| 58> H  1.774983	-0.332078	1.283944
| 59> H  1.526810	-1.218676	-0.004438
| 60> O  0.430668	-2.131811	-0.815149
| 61> H  1.073732	-2.603892	-1.430585
| 62> H  0.050056	-1.404089	-1.411215
| 63> **                         ****END OF INPUT****
================================================================================

                       ****************************
                       * Single Point Calculation *
                       ****************************

---------------------------------
CARTESIAN COORDINATES (ANGSTROEM)
---------------------------------
  O      3.073672    0.824351   -3.041152
  H      3.585628    1.355768   -3.682145
  H      2.433587    0.243965   -3.598960
  O     -2.220201    0.551597   -0.357248
  H     -3.058096    0.767288    0.158502
  H     -1.550510    1.213771    0.021938
  O     -0.440292   -0.075332   -2.266484
  H     -1.296865    0.147143   -1.808654
  H      0.221474    0.584314   -1.864973
  O      1.371565   -0.782081   -4.197166
  H      1.691382   -1.609278   -3.727958
  H      0.546152   -0.546572   -3.697110
  O      2.300706   -2.730354   -2.572755
  H      3.071347   -2.199088   -2.148818
  H      2.684477   -3.582983   -2.857231
  O     -3.986922    1.095003    1.524357
  H     -4.898606    1.443063    1.466077
  H     -3.422901    1.851127    1.933957
  O      0.387259    0.097389    2.284776
  H     -0.079166    0.345441    3.142284
  H     -0.253013   -0.575768    1.873194
  O     -3.085693   -0.884361    3.123602
  H     -2.517843   -1.355558    2.457098
  H     -3.580580   -0.220601    2.555956
  O     -1.379574    0.824546    4.106598
  H     -2.066257    0.112194    3.820882
  H     -1.342943    0.785511    5.082877
  O      1.386586    1.473688   -1.123256
  H      2.061340    1.488357   -1.871341
  H      1.750651    0.749198   -0.511517
  O     -2.335599    2.829203    2.568013
  H     -1.616094    2.825477    1.882000
  H     -1.972887    2.208445    3.268473
  O     -1.361993   -1.502701    1.082608
  H     -0.788099   -2.033559    0.464574
  H     -1.741291   -0.771933    0.485246
  O     -0.393723    2.127239    0.766649
  H     -0.028016    1.400942    1.378316
  H      0.293509    2.198022    0.047268
  O      4.071590   -1.142576   -1.482752
  H      3.592692   -0.927906   -0.638322
  H      3.852072   -0.356592   -2.067905
  O      2.181743   -0.554013    0.401595
  H      1.774983   -0.332078    1.283944
  H      1.526810   -1.218676   -0.004438
  O      0.430668   -2.131811   -0.815149
  H      1.073732   -2.603892   -1.430585
  H      0.050056   -1.404089   -1.411215

----------------------------
CARTESIAN COORDINATES (A.U.)
----------------------------
  NO LB      ZA    FRAG    MASS        X           Y           Z
   0 O     8.0000    0    15.999          5.808398305502002          1.557797628224118         -5.746944411626882
   1 H     1.0000    0     1.008          6.775854938119790          2.562030221134147         -6.958245635387467
   2 H     1.0000    0     1.008          4.598812953071017          0.461027036262098         -6.801048766937228
   3 O     8.0000    0    15.999         -4.195571852258096          1.042367266292561         -0.675100881891099
   4 H     1.0000    0     1.008         -5.778963931240044          1.449964185844169          0.299525371678786
   5 H     1.0000    0     1.008         -2.930039267906240          2.293694779295731          0.041456811925964
   6 O     8.0000    0    15.999         -0.832031298956456         -0.142356849120556         -4.283034046914374
   7 H     1.0000    0     1.008         -2.450719682667784          0.278059972523575         -3.417860731021208
   8 H     1.0000    0     1.008          0.418525205784075          1.104193436216062         -3.524288217157518
   9 O     8.0000    0    15.999          2.591882224871701         -1.477918904543267         -7.931494278605724
  10 H     1.0000    0     1.008          3.196248767843994         -3.041094693344524         -7.044819658760802
  11 H     1.0000    0     1.008          1.032077707493359         -1.032871392469606         -6.986525386981598
  12 O     8.0000    0    15.999          4.347704254669427         -5.159621308656425         -4.861802359676569
  13 H     1.0000    0     1.008          5.804004692240635         -4.155674064392618         -4.060677531640396
  14 H     1.0000    0     1.008          5.072926342810519         -6.770856612495568         -5.399384091349952
  15 O     8.0000    0    15.999         -7.534190697305585          2.069255785822172          2.880617260325797
  16 H     1.0000    0     1.008         -9.257023777983447          2.726993863994803          2.770484021240867
  17 H     1.0000    0     1.008         -6.468345473525186          3.498123069107245          3.654649084779942
  18 O     8.0000    0    15.999          0.731813452896210          0.184038538456457          4.317600917356062
  19 H     1.0000    0     1.008         -0.149602059118010          0.652788885427891          5.938056195002607
  20 H     1.0000    0     1.008         -0.478125278321818         -1.088043836675571          3.539823655704485
  21 O     8.0000    0    15.999         -5.831114703357869         -1.671200093520732          5.902752331368689
  22 H     1.0000    0     1.008         -4.758033718210686         -2.561633378646024          4.643242304205639
  23 H     1.0000    0     1.008         -6.766315600595755         -0.416875474869162          4.830056850352827
  24 O     8.0000    0    15.999         -2.607017041478277          1.558166124820232          7.760345562108744
  25 H     1.0000    0     1.008         -3.904659852297723          0.212015933869161          7.220420570029300
  26 H     1.0000    0     1.008         -2.537794483466608          1.484400665182616          9.605245502407250
  27 O     8.0000    0    15.999          2.620267801129333          2.784866726846142         -2.122646218283850
  28 H     1.0000    0     1.008          3.895368068897233          2.812587119504632         -3.536321993178329
  29 H     1.0000    0     1.008          3.308250946075373          1.415779040081534         -0.966627042844997
  30 O     8.0000    0    15.999         -4.413642468660342          5.346418847268407          4.852841278349516
  31 H     1.0000    0     1.008         -3.053975066673331          5.339377727693416          3.556464584039795
  32 H     1.0000    0     1.008         -3.728216123173496          4.173356231827719          6.176518846115996
  33 O     8.0000    0    15.999         -2.573793766317807         -2.839693351169599          2.045832630392218
  34 H     1.0000    0     1.008         -1.489291276417205         -3.842869587170767          0.877917628940332
  35 H     1.0000    0     1.008         -3.290563109461870         -1.458741963736234          0.916982047580752
  36 O     8.0000    0    15.999         -0.744028642625877          4.019899131396509          1.448756650844594
  37 H     1.0000    0     1.008         -0.052942567367938          2.647396709507906          2.604639766001804
  38 H     1.0000    0     1.008          0.554651627841093          4.153659616333857          0.089323574898190
  39 O     8.0000    0    15.999          7.694190029612428         -2.159155727191208         -2.801995204524004
  40 H     1.0000    0     1.008          6.789203963529809         -1.753488218022333         -1.206253765256881
  41 H     1.0000    0     1.008          7.279361128146304         -0.673861221547247         -3.907774120966426
  42 O     8.0000    0    15.999          4.122896764599753         -1.046932844632114          0.758904566752105
  43 H     1.0000    0     1.008          3.354231762365945         -0.627536475100301          2.426302531291388
  44 H     1.0000    0     1.008          2.885252758532306         -2.302963885982615         -0.008386604582343
  45 O     8.0000    0    15.999          0.813844574643598         -4.028538959280797         -1.540408368339774
  46 H     1.0000    0     1.008          2.029059421227533         -4.920642762308476         -2.703413861295734
  47 H     1.0000    0     1.008          0.094592131359562         -2.653343677651356         -2.666809866081679

--------------------------------
INTERNAL COORDINATES (ANGSTROEM)
--------------------------------
 O      0   0   0   0.000000     0.000     0.000
 H      1   0   0   0.977433     0.000     0.000
 H      1   2   0   1.028449   106.088     0.000
 O      3   1   2   5.679884    99.778   219.851
 H      4   3   1   1.007268   170.198    73.312
 H      4   3   1   1.015255    73.024     8.736
 O      4   3   1   2.684455    15.882   185.957
 H      7   4   3   0.996404    18.390   220.150
 H      7   4   3   1.016995    89.953   358.013
 O      3   1   2   1.593271   169.088   174.126
 H     10   3   1   1.003341    98.215   312.703
 H     10   3   1   0.993392   102.250    58.003
 O     11  10   3   1.721215   164.512    38.721
 H     13  11  10   1.027547   101.867   317.425
 H     13  11  10   0.977335   120.789   200.406
 O      5   4   6   1.683946   156.321   312.638
 H     16   5   4   0.977604   122.365   167.533
 H     16   5   4   1.028404    99.418    51.857
 O      6   4   3   3.181461   116.011   268.938
 H     19   6   4   1.007175   103.714   265.456
 H     19   6   4   1.016114    63.933     2.832
 O     16   5   4   2.699570    98.840   313.291
 H     22  16   5   0.994338    98.107   353.825
 H     22  16   5   1.003849    10.140   237.597
 O     20  19   6   1.688344   155.905    17.198
 H     25  20  19   1.029860    99.139    52.967
 H     25  20  19   0.977745   122.013   168.328
 O      9   7   4   1.642747   172.277   100.078
 H     28   9   7   1.007541    98.489    92.502
 H     28   9   7   1.015704    98.047   348.425
 O     18  16   5   1.594015   169.630   302.400
 H     31  18  16   0.994140   102.527    57.654
 H     31  18  16   1.003765    98.314   312.712
 O     21  19   6   1.647443   172.433     0.114
 H     34  21  19   0.996559   102.103   105.025
 H     34  21  19   1.017217    97.389   359.460
 O      6   4   3   1.651416   172.418   268.720
 H     37   6   4   1.017539    97.355     0.760
 H     37   6   4   0.997400   101.341   106.375
 O     14  13  11   1.600109   169.093    44.832
 H     40  14  13   0.994228   101.245    60.746
 H     40  14  13   1.004173    97.908   315.988
 O     30  28   9   1.648628   172.371   356.308
 H     43  30  28   0.996619   101.982   260.101
 H     43  30  28   1.017633    97.298     5.791
 O     45  43  30   1.640913   172.101    10.007
 H     46  45  43   1.007548    97.826    91.728
 H     46  45  43   1.014761    98.146   347.809

---------------------------
INTERNAL COORDINATES (A.U.)
---------------------------
 O      0   0   0   0.000000     0.000     0.000
 H      1   0   0   1.847080     0.000     0.000
 H      1   2   0   1.943486   106.088     0.000
 O      3   1   2  10.733424    99.778   219.851
 H      4   3   1   1.903461   170.198    73.312
 H      4   3   1   1.918554    73.024     8.736
 O      4   3   1   5.072885    15.882   185.957
 H      7   4   3   1.882930    18.390   220.150
 H      7   4   3   1.921841    89.953   358.013
 O      3   1   2   3.010845   169.088   174.126
 H     10   3   1   1.896040    98.215   312.703
 H     10   3   1   1.877238   102.250    58.003
 O     11  10   3   3.252625   164.512    38.721
 H     13  11  10   1.941783   101.867   317.425
 H     13  11  10   1.846895   120.789   200.406
 O      5   4   6   3.182197   156.321   312.638
 H     16   5   4   1.847404   122.365   167.533
 H     16   5   4   1.943402    99.418    51.857
 O      6   4   3   6.012090   116.011   268.938
 H     19   6   4   1.903285   103.714   265.456
 H     19   6   4   1.920178    63.933     2.832
 O     16   5   4   5.101449    98.840   313.291
 H     22  16   5   1.879026    98.107   353.825
 H     22  16   5   1.896999    10.140   237.597
 O     20  19   6   3.190507   155.905    17.198
 H     25  20  19   1.946154    99.139    52.967
 H     25  20  19   1.847671   122.013   168.328
 O      9   7   4   3.104341   172.277   100.078
 H     28   9   7   1.903977    98.489    92.502
 H     28   9   7   1.919402    98.047   348.425
 O     18  16   5   3.012253   169.630   302.400
 H     31  18  16   1.878653   102.527    57.654
 H     31  18  16   1.896841    98.314   312.712
 O     21  19   6   3.113216   172.433     0.114
 H     34  21  19   1.883224   102.103   105.025
 H     34  21  19   1.922261    97.389   359.460
 O      6   4   3   3.120724   172.418   268.720
 H     37   6   4   1.922870    97.355     0.760
 H     37   6   4   1.884813   101.341   106.375
 O     14  13  11   3.023767   169.093    44.832
 H     40  14  13   1.878818   101.245    60.746
 H     40  14  13   1.897612    97.908   315.988
 O     30  28   9   3.115455   172.371   356.308
 H     43  30  28   1.883336   101.982   260.101
 H     43  30  28   1.923048    97.298     5.791
 O     45  43  30   3.100876   172.101    10.007
 H     46  45  43   1.903990    97.826    91.728
 H     46  45  43   1.917620    98.146   347.809

---------------------
BASIS SET INFORMATION
---------------------
There are 2 groups of distinct atoms

 Group   1 Type O   : 12s7p2d1f contracted to 6s4p2d1f pattern {621111/4111/11/1}
 Group   2 Type H   : 5s1p contracted to 3s1p pattern {311/1}

Atom   0O    basis set group =>   1
Atom   1H    basis set group =>   2
Atom   2H    basis set group =>   2
Atom   3O    basis set group =>   1
Atom   4H    basis set group =>   2
Atom   5H    basis set group =>   2
Atom   6O    basis set group =>   1
Atom   7H    basis set group =>   2
Atom   8H    basis set group =>   2
Atom   9O    basis set group =>   1
Atom  10H    basis set group =>   2
Atom  11H    basis set group =>   2
Atom  12O    basis set group =>   1
Atom  13H    basis set group =>   2
Atom  14H    basis set group =>   2
Atom  15O    basis set group =>   1
Atom  16H    basis set group =>   2
Atom  17H    basis set group =>   2
Atom  18O    basis set group =>   1
Atom  19H    basis set group =>   2
Atom  20H    basis set group =>   2
Atom  21O    basis set group =>   1
Atom  22H    basis set group =>   2
Atom  23H    basis set group =>   2
Atom  24O    basis set group =>   1
Atom  25H    basis set group =>   2
Atom  26H    basis set group =>   2
Atom  27O    basis set group =>   1
Atom  28H    basis set group =>   2
Atom  29H    basis set group =>   2
Atom  30O    basis set group =>   1
Atom  31H    basis set group =>   2
Atom  32H    basis set group =>   2
Atom  33O    basis set group =>   1
Atom  34H    basis set group =>   2
Atom  35H    basis set group =>   2
Atom  36O    basis set group =>   1
Atom  37H    basis set group =>   2
Atom  38H    basis set group =>   2
Atom  39O    basis set group =>   1
Atom  40H    basis set group =>   2
Atom  41H    basis set group =>   2
Atom  42O    basis set group =>   1
Atom  43H    basis set group =>   2
Atom  44H    basis set group =>   2
Atom  45O    basis set group =>   1
Atom  46H    basis set group =>   2
Atom  47H    basis set group =>   2
-------------------------------
AUXILIARY BASIS SET INFORMATION
-------------------------------
There are 2 groups of distinct atoms

 Group   1 Type O   : 12s5p4d2f1g contracted to 6s4p3d1f1g pattern {711111/2111/211/2/1}
 Group   2 Type H   : 5s2p1d contracted to 3s1p1d pattern {311/2/1}

Atom   0O    basis set group =>   1
Atom   1H    basis set group =>   2
Atom   2H    basis set group =>   2
Atom   3O    basis set group =>   1
Atom   4H    basis set group =>   2
Atom   5H    basis set group =>   2
Atom   6O    basis set group =>   1
Atom   7H    basis set group =>   2
Atom   8H    basis set group =>   2
Atom   9O    basis set group =>   1
Atom  10H    basis set group =>   2
Atom  11H    basis set group =>   2
Atom  12O    basis set group =>   1
Atom  13H    basis set group =>   2
Atom  14H    basis set group =>   2
Atom  15O    basis set group =>   1
Atom  16H    basis set group =>   2
Atom  17H    basis set group =>   2
Atom  18O    basis set group =>   1
Atom  19H    basis set group =>   2
Atom  20H    basis set group =>   2
Atom  21O    basis set group =>   1
Atom  22H    basis set group =>   2
Atom  23H    basis set group =>   2
Atom  24O    basis set group =>   1
Atom  25H    basis set group =>   2
Atom  26H    basis set group =>   2
Atom  27O    basis set group =>   1
Atom  28H    basis set group =>   2
Atom  29H    basis set group =>   2
Atom  30O    basis set group =>   1
Atom  31H    basis set group =>   2
Atom  32H    basis set group =>   2
Atom  33O    basis set group =>   1
Atom  34H    basis set group =>   2
Atom  35H    basis set group =>   2
Atom  36O    basis set group =>   1
Atom  37H    basis set group =>   2
Atom  38H    basis set group =>   2
Atom  39O    basis set group =>   1
Atom  40H    basis set group =>   2
Atom  41H    basis set group =>   2
Atom  42O    basis set group =>   1
Atom  43H    basis set group =>   2
Atom  44H    basis set group =>   2
Atom  45O    basis set group =>   1
Atom  46H    basis set group =>   2
Atom  47H    basis set group =>   2
------------------------------------------------------------------------------
                           ORCA GTO INTEGRAL CALCULATION
                           -- RI-GTO INTEGRALS CHOSEN --
------------------------------------------------------------------------------

                         BASIS SET STATISTICS AND STARTUP INFO

Gaussian basis set:
 # of primitive gaussian shells          ...  544
 # of primitive gaussian functions       ... 1056
 # of contracted shells                  ...  336
 # of contracted basis functions         ...  752
 Highest angular momentum                ...    3
 Maximum contraction depth               ...    6
Auxiliary gaussian basis set:
 # of primitive gaussian shells          ...  640
 # of primitive gaussian functions       ... 1632
 # of contracted shells                  ...  400
 # of contracted aux-basis functions     ... 1136
 Highest angular momentum                ...    4
 Maximum contraction depth               ...    7
Ratio of auxiliary to basis functions    ...  1.51
Integral package used                  ... LIBINT
 One Electron integrals                  ... done
 Ordering auxiliary basis shells         ... done
 Integral threshhold             Thresh  ...  2.500e-11
 Primitive cut-off               TCut    ...  2.500e-12
 Pre-screening matrix                    ... done
 Shell pair data                         ... 
 Ordering of the shell pairs             ... done (   0.007 sec) 41121 of 56616 pairs
 Determination of significant pairs      ... done (   0.000 sec)
 Creation of shell pair data             ... done (   0.010 sec)
 Storage of shell pair data              ... done (   0.007 sec)
 Shell pair data done in (   0.024 sec)
 Computing two index integrals           ... done
 Cholesky decomposition of the V-matrix  ... done


Timings:
 Total evaluation time                   ...   0.855 sec (  0.014 min)
 One electron matrix time                ...   0.305 sec (  0.005 min) = 35.6%
 Schwartz matrix evaluation time         ...   0.451 sec (  0.008 min) = 52.7%
 Two index repulsion integral time       ...   0.032 sec (  0.001 min) =  3.8%
 Cholesky decomposition of V             ...   0.029 sec (  0.000 min) =  3.4%
 Three index repulsion integral time     ...   0.000 sec (  0.000 min) =  0.0%

-------------------------------------------------------------------------------
                                 ORCA SCF
-------------------------------------------------------------------------------

------------
SCF SETTINGS
------------
Hamiltonian:
 Density Functional     Method          .... DFT(GTOs)
 Exchange Functional    Exchange        .... WB97X-D3
 Correlation Functional Correlation     .... WB97X-D3
 Gradients option       PostSCFGGA      .... off
 Hybrid DFT is turned on
   Fraction HF Exchange ScalHFX         ....  0.195728
   Scaling of DF-GGA-X  ScalDFX         ....  0.000000
   Scaling of DF-GGA-C  ScalDFC         ....  1.000000
   Scaling of DF-LDA-C  ScalLDAC        ....  1.000000
   Perturbative correction              ....  0.000000
 Long-range corrected/Screened/Range-Separated Hybrid DFT is turned on
   Amount of maximum screened exact exchange              ....  0.804272
   Range separation parameter mu (erf(mu*r12)/r12)        ....  0.250000
 RI-approximation to the Coulomb term is turned on
   Number of auxiliary basis functions  .... 1136
   RIJ-COSX (HFX calculated with COS-X)).... on


General Settings:
 Integral files         IntName         .... 3_wb98x-ma-def2-TZVP-SMD_onBP86_SMD_16_waters
 Hartree-Fock type      HFTyp           .... RHF
 Total Charge           Charge          ....    0
 Multiplicity           Mult            ....    1
 Number of Electrons    NEL             ....  160
 Basis Dimension        Dim             ....  752
 Nuclear Repulsion      ENuc            ....   1682.6320068950 Eh

Convergence Acceleration:
 DIIS                   CNVDIIS         .... on
   Start iteration      DIISMaxIt       ....    12
   Startup error        DIISStart       ....  0.200000
   # of expansion vecs  DIISMaxEq       ....     5
   Bias factor          DIISBfac        ....   1.050
   Max. coefficient     DIISMaxC        ....  10.000
 Newton-Raphson         CNVNR           .... off
 SOSCF                  CNVSOSCF        .... on
   Start iteration      SOSCFMaxIt      ....   150
   Startup grad/error   SOSCFStart      ....  0.003300
 Level Shifting         CNVShift        .... on
   Level shift para.    LevelShift      ....    0.2500
   Turn off err/grad.   ShiftErr        ....    0.0010
 Zerner damping         CNVZerner       .... off
 Static damping         CNVDamp         .... on
   Fraction old density DampFac         ....    0.7000
   Max. Damping (<1)    DampMax         ....    0.9800
   Min. Damping (>=0)   DampMin         ....    0.0000
   Turn off err/grad.   DampErr         ....    0.1000
 Fernandez-Rico         CNVRico         .... off

SCF Procedure:
 Maximum # iterations   MaxIter         ....   400
 SCF integral mode      SCFMode         .... Direct
   Integral package                     .... LIBINT
 Reset frequeny         DirectResetFreq ....    20
 Integral Threshold     Thresh          ....  2.500e-11 Eh
 Primitive CutOff       TCut            ....  2.500e-12 Eh

Convergence Tolerance:
 Convergence Check Mode ConvCheckMode   .... Total+1el-Energy
 Energy Change          TolE            ....  1.000e-08 Eh
 1-El. energy change                    ....  1.000e-05 Eh
 Orbital Gradient       TolG            ....  1.000e-05
 Orbital Rotation angle TolX            ....  1.000e-05
 DIIS Error             TolErr          ....  5.000e-07


Diagonalization of the overlap matrix:
Smallest eigenvalue                        ... 1.646e-04
Time for diagonalization                   ...    0.141 sec
Threshold for overlap eigenvalues          ... 1.000e-08
Number of eigenvalues below threshold      ... 0
Time for construction of square roots      ...    0.068 sec
Total time needed                          ...    0.212 sec

-------------------
DFT GRID GENERATION
-------------------

General Integration Accuracy     IntAcc      ...  4.670
Radial Grid Type                 RadialGrid  ... Gauss-Chebyshev
Angular Grid (max. acc.)         AngularGrid ... Lebedev-302
Angular grid pruning method      GridPruning ... 3 (G Style)
Weight generation scheme         WeightScheme... Becke
Basis function cutoff            BFCut       ...    1.0000e-11
Integration weight cutoff        WCut        ...    1.0000e-14
Grids for H and He will be reduced by one unit

# of grid points (after initial pruning)     ... 208000 (   0.2 sec)
# of grid points (after weights+screening)   ... 181202 (   2.4 sec)
nearest neighbour list constructed           ...    0.0 sec
Grid point re-assignment to atoms done       ...    0.0 sec
Grid point division into batches done        ...    0.4 sec
Reduced shell lists constructed in    8.0 sec

Total number of grid points                  ...   181202
Total number of batches                      ...     2856
Average number of points per batch           ...       63
Average number of grid points per atom       ...     3775
Average number of shells per batch           ...   148.12 (44.08%)
Average number of basis functions per batch  ...   288.91 (38.42%)
Average number of large shells per batch     ...   100.72 (68.00%)
Average number of large basis fcns per batch ...   192.97 (66.79%)
Maximum spatial batch extension              ...  17.77, 19.76, 14.83 au
Average spatial batch extension              ...   1.99,  2.04,  1.98 au

Time for grid setup =   10.538 sec

------------------------------
INITIAL GUESS: MODEL POTENTIAL
------------------------------
Loading Hartree-Fock densities                     ... done
Calculating cut-offs                               ... done
Setting up the integral package                    ... done
Initializing the effective Hamiltonian             ... done
Starting the Coulomb interaction                   ... done (   4.6 sec)
Reading the grid                                   ... done
Mapping shells                                     ... done
Starting the XC term evaluation                    ... done (  11.0 sec)
  promolecular density results
     # of electrons  =    159.986042149
     EX              =   -139.921006379
     EC              =     -5.299805954
     EX+EC           =   -145.220812333
Transforming the Hamiltonian                       ... done (   0.1 sec)
Diagonalizing the Hamiltonian                      ... done (   0.1 sec)
Back transforming the eigenvectors                 ... done (   0.0 sec)
Now organizing SCF variables                       ... done
                      ------------------
                      INITIAL GUESS DONE (  26.6 sec)
                      ------------------
--------------------
COSX GRID GENERATION
--------------------

General Integration Accuracy     IntAcc      ...  3.340
Radial Grid Type                 RadialGrid  ... Gauss-Chebyshev
Angular Grid (max. acc.)         AngularGrid ... Lebedev-50
Angular grid pruning method      GridPruning ... 3 (G Style)
Weight generation scheme         WeightScheme... Becke
Basis function cutoff            BFCut       ...    1.0000e-11
Integration weight cutoff        WCut        ...    1.0000e-14
Grids for H and He will be reduced by one unit

# of grid points (after initial pruning)     ...  19520 (   0.0 sec)
# of grid points (after weights+screening)   ...  17284 (   0.2 sec)
nearest neighbour list constructed           ...    0.0 sec
Grid point re-assignment to atoms done       ...    0.0 sec
Grid point division into batches done        ...    0.0 sec
Reduced shell lists constructed in    0.9 sec

Total number of grid points                  ...    17284
Total number of batches                      ...      288
Average number of points per batch           ...       60
Average number of grid points per atom       ...      360
Average number of shells per batch           ...   170.66 (50.79%)
Average number of basis functions per batch  ...   342.46 (45.54%)
Average number of large shells per batch     ...   117.53 (68.86%)
Average number of large basis fcns per batch ...   229.42 (66.99%)
Maximum spatial batch extension              ...  13.86, 16.39, 16.89 au
Average spatial batch extension              ...   4.29,  4.70,  4.32 au

Overlap Fitting                  UseSFitting ... on
Constructing numerical overlap ... done (      0.6 sec)
Inverting numerical overlap    ... done (      0.0 sec)
Obtaining analytic overlap     ... done (      0.0 sec)
Final contraction and storage  ... done (      0.0 sec)


General Integration Accuracy     IntAcc      ...  3.670
Radial Grid Type                 RadialGrid  ... Gauss-Chebyshev
Angular Grid (max. acc.)         AngularGrid ... Lebedev-50
Angular grid pruning method      GridPruning ... 3 (G Style)
Weight generation scheme         WeightScheme... Becke
Basis function cutoff            BFCut       ...    1.0000e-11
Integration weight cutoff        WCut        ...    1.0000e-14
Grids for H and He will be reduced by one unit

# of grid points (after initial pruning)     ...  25632 (   0.0 sec)
# of grid points (after weights+screening)   ...  22641 (   0.3 sec)
nearest neighbour list constructed           ...    0.0 sec
Grid point re-assignment to atoms done       ...    0.0 sec
Grid point division into batches done        ...    0.0 sec
Reduced shell lists constructed in    1.1 sec

Total number of grid points                  ...    22641
Total number of batches                      ...      377
Average number of points per batch           ...       60
Average number of grid points per atom       ...      472
Average number of shells per batch           ...   167.21 (49.76%)
Average number of basis functions per batch  ...   333.94 (44.41%)
Average number of large shells per batch     ...   114.74 (68.62%)
Average number of large basis fcns per batch ...   222.80 (66.72%)
Maximum spatial batch extension              ...  15.82, 18.09, 17.12 au
Average spatial batch extension              ...   3.86,  4.27,  3.93 au

Overlap Fitting                  UseSFitting ... on
Constructing numerical overlap ... done (      0.8 sec)
Inverting numerical overlap    ... done (      0.0 sec)
Obtaining analytic overlap     ... done (      0.0 sec)
Final contraction and storage  ... done (      0.0 sec)


General Integration Accuracy     IntAcc      ...  4.010
Radial Grid Type                 RadialGrid  ... Gauss-Chebyshev
Angular Grid (max. acc.)         AngularGrid ... Lebedev-110
Angular grid pruning method      GridPruning ... 3 (G Style)
Weight generation scheme         WeightScheme... Becke
Basis function cutoff            BFCut       ...    1.0000e-11
Integration weight cutoff        WCut        ...    1.0000e-14
Grids for H and He will be reduced by one unit

# of grid points (after initial pruning)     ...  44128 (   0.0 sec)
# of grid points (after weights+screening)   ...  39284 (   0.5 sec)
nearest neighbour list constructed           ...    0.0 sec
Grid point re-assignment to atoms done       ...    0.0 sec
Grid point division into batches done        ...    0.0 sec
Reduced shell lists constructed in    1.9 sec

Total number of grid points                  ...    39284
Total number of batches                      ...      636
Average number of points per batch           ...       61
Average number of grid points per atom       ...      818
Average number of shells per batch           ...   161.57 (48.09%)
Average number of basis functions per batch  ...   320.51 (42.62%)
Average number of large shells per batch     ...   111.29 (68.88%)
Average number of large basis fcns per batch ...   215.14 (67.12%)
Maximum spatial batch extension              ...  17.59, 19.40, 15.69 au
Average spatial batch extension              ...   3.25,  3.57,  3.28 au

Overlap Fitting                  UseSFitting ... on
Constructing numerical overlap ... done (      1.3 sec)
Inverting numerical overlap    ... done (      0.0 sec)
Obtaining analytic overlap     ... done (      0.0 sec)
Final contraction and storage  ... done (      0.0 sec)

Time for X-Grid setup             =    7.901 sec

--------------------
COSMO INITIALIZATION
--------------------

Epsilon                                      ...   78.3550
Refractive Index                             ...    1.0000
Potential Evaluation                         ...  ANALYTIC
Technical COSMO parameters:
  rsolv                                      ...    1.3000
  routf                                      ...    0.8500
  disex                                      ...   10.0000
  nppa                                       ... 1082   
  nspa                                       ...   92   
Solvent:                                     ... WATER
Solvent:                                     ... WATER
SMD-CDS solvent descriptors:
  Soln                                       ...    1.3328
  Soln25                                     ...    1.3323
  Sola                                       ...    0.0000
  Solb                                       ...    0.0000
  Solg                                       ...    0.0000
  Solc                                       ...    0.0000
  Solh                                       ...    0.0000
Radii:
 Radius for O  used is    2.8724 Bohr (=   1.5200 Ang.)
 Radius for H  used is    2.2677 Bohr (=   1.2000 Ang.)
Initializing COSMO package            ... done
Setting COSMO radii                   ... done
Setting atoms and making cavity       ...  USING 1082 GRID
done
Cholesky decomposition of A           ... done
--------------
SCF ITERATIONS
--------------
ITER       Energy         Delta-E        Max-DP      RMS-DP      [F,P]     Damp
               ***  Starting incremental Fock matrix formation  ***
  0  -1222.3671999419   0.000000000000 0.03933572  0.00065362  0.2806564 0.7000
  1  -1222.7972867937  -0.430086851768 0.02335089  0.00042379  0.1431847 0.7000
                               ***Turning on DIIS***
  2  -1222.9818581836  -0.184571389947 0.03615247  0.00068819  0.0582636 0.0000
  3  -1223.2684571498  -0.286598966211 0.01649319  0.00028663  0.0677050 0.0000
  4  -1223.3240746256  -0.055617475772 0.00498313  0.00007473  0.0092010 0.0000
                      *** Initiating the SOSCF procedure ***
                           *** Shutting down DIIS ***
                      *** Re-Reading the Fockian *** 
                      *** Removing any level shift *** 
ITER      Energy       Delta-E        Grad      Rot      Max-DP    RMS-DP
  5  -1223.32525797  -0.0011833406  0.000501  0.000501  0.002176  0.000032
               *** Restarting incremental Fock matrix formation ***
  6  -1223.32533875  -0.0000807869  0.000258  0.000474  0.002138  0.000024
  7  -1223.32534604  -0.0000072903  0.000143  0.000241  0.000633  0.000009
  8  -1223.32534981  -0.0000037705  0.000014  0.000028  0.000442  0.000004
  9  -1223.32534993  -0.0000001179  0.000013  0.000014  0.000126  0.000001
                  ***Gradient check signals convergence***
              ***Rediagonalizing the Fockian in SOSCF/NRSCF***

               *****************************************************
               *                     SUCCESS                       *
               *           SCF CONVERGED AFTER  10 CYCLES          *
               *****************************************************

Setting up the final grid:

General Integration Accuracy     IntAcc      ...  5.010
Radial Grid Type                 RadialGrid  ... Gauss-Chebyshev
Angular Grid (max. acc.)         AngularGrid ... Lebedev-434
Angular grid pruning method      GridPruning ... 3 (G Style)
Weight generation scheme         WeightScheme... Becke
Basis function cutoff            BFCut       ...    1.0000e-11
Integration weight cutoff        WCut        ...    1.0000e-14
Grids for H and He will be reduced by one unit

# of grid points (after initial pruning)     ... 387616 (   0.3 sec)
# of grid points (after weights+screening)   ... 336619 (   4.4 sec)
nearest neighbour list constructed           ...    0.0 sec
Grid point re-assignment to atoms done       ...    0.0 sec
Grid point division into batches done        ...    1.6 sec
Reduced shell lists constructed in   15.1 sec

Total number of grid points                  ...   336619
Total number of batches                      ...     5286
Average number of points per batch           ...       63
Average number of grid points per atom       ...     7013
Average number of shells per batch           ...   144.20 (42.92%)
Average number of basis functions per batch  ...   279.61 (37.18%)
Average number of large shells per batch     ...    97.97 (67.94%)
Average number of large basis fcns per batch ...   187.26 (66.97%)
Maximum spatial batch extension              ...  15.74, 22.03, 15.48 au
Average spatial batch extension              ...   1.58,  1.63,  1.60 au

Final grid set up in   19.7 sec
Final integration                            ... done (  22.1 sec)
Change in XC energy                          ...    -0.001714773
Integrated number of electrons               ...   159.999795899
Previous integrated no of electrons          ...   160.001543883
Old exchange energy                            =    -45.253960548 Eh
New exchange energy                            =    -45.252780096 Eh
Exchange energy change after final integration =      0.001180451 Eh
Total energy after final integration           =  -1223.325884346 Eh
Final COS-X integration done in                =   269.727 sec
   3.81459127131396        2.00047131203237       -2.42619565587752     
  8.465743587650417E-004  0.107332135554216       7.887426765466880E-003
Total Energy after outlying charge correction =  -1223.331121665 Eh

SMD CDS free energy correction energy :                 8.20600     Kcal/mol
Total Energy after SMD CDS correction =             -1223.312807254 Eh

----------------
TOTAL SCF ENERGY
----------------

Total Energy       :        -1223.31280725 Eh          -33288.03382 eV
Total Energy       :        -1223.31280725 Eh          -33288.03382 eV
COSMO(ediel)       :           -0.06157309 Eh              -1.67549 eV
SMD CDS (Gcds)     :            0.01307709 Eh               0.35585 eV

Components:
Nuclear Repulsion  :         1682.63200689 Eh           45786.74466 eV
Electronic Energy  :        -2905.94481415 Eh          -79074.77848 eV

One Electron Energy:        -5039.14645814 Eh         -137122.14628 eV
Two Electron Energy:         2133.20164399 Eh           58047.36780 eV

Virial components:
Potential Energy   :        -2440.96898941 Eh          -66422.14304 eV
Kinetic Energy     :         1217.65618215 Eh           33134.10922 eV
Virial Ratio       :            2.00464550


DFT components:
N(Alpha)           :       79.999897949585 electrons
N(Beta)            :       79.999897949585 electrons
N(Total)           :      159.999795899170 electrons
E(XC)              :     -103.897264262572 Eh       

---------------
SCF CONVERGENCE
---------------

  Last Energy change         ...   -9.1845e-08  Tolerance :   1.0000e-08
  Last MAX-Density change    ...    5.3943e-14  Tolerance :   1.0000e-07
  Last RMS-Density change    ...    3.5462e-16  Tolerance :   5.0000e-09
  Last Orbital Gradient      ...    2.3824e-06  Tolerance :   1.0000e-05
  Last Orbital Rotation      ...    2.9738e-06  Tolerance :   1.0000e-05

             **** THE GBW FILE WAS UPDATED (3_wb98x-ma-def2-TZVP-SMD_onBP86_SMD_16_waters.gbw) ****
             **** DENSITY FILE WAS UPDATED (3_wb98x-ma-def2-TZVP-SMD_onBP86_SMD_16_waters.scfp.tmp) ****
             **** ENERGY FILE WAS UPDATED (3_wb98x-ma-def2-TZVP-SMD_onBP86_SMD_16_waters.en.tmp) ****
----------------
ORBITAL ENERGIES
----------------

  NO   OCC          E(Eh)            E(eV) 
   0   2.0000     -19.243045      -523.6299 
   1   2.0000     -19.242889      -523.6256 
   2   2.0000     -19.242806      -523.6234 
   3   2.0000     -19.242471      -523.6143 
   4   2.0000     -19.238204      -523.4982 
   5   2.0000     -19.238118      -523.4958 
   6   2.0000     -19.238109      -523.4956 
   7   2.0000     -19.237802      -523.4872 
   8   2.0000     -19.235415      -523.4223 
   9   2.0000     -19.235012      -523.4113 
  10   2.0000     -19.234923      -523.4089 
  11   2.0000     -19.234803      -523.4056 
  12   2.0000     -19.234790      -523.4053 
  13   2.0000     -19.234763      -523.4045 
  14   2.0000     -19.234658      -523.4016 
  15   2.0000     -19.234178      -523.3886 
  16   2.0000      -1.156061       -31.4580 
  17   2.0000      -1.147912       -31.2363 
  18   2.0000      -1.137314       -30.9479 
  19   2.0000      -1.135977       -30.9115 
  20   2.0000      -1.134341       -30.8670 
  21   2.0000      -1.129598       -30.7379 
  22   2.0000      -1.128202       -30.6999 
  23   2.0000      -1.125657       -30.6307 
  24   2.0000      -1.118699       -30.4414 
  25   2.0000      -1.114836       -30.3362 
  26   2.0000      -1.113516       -30.3003 
  27   2.0000      -1.108209       -30.1559 
  28   2.0000      -1.107485       -30.1362 
  29   2.0000      -1.106656       -30.1137 
  30   2.0000      -1.097594       -29.8671 
  31   2.0000      -1.087692       -29.5976 
  32   2.0000      -0.651873       -17.7384 
  33   2.0000      -0.651269       -17.7219 
  34   2.0000      -0.650959       -17.7135 
  35   2.0000      -0.647790       -17.6273 
  36   2.0000      -0.644394       -17.5348 
  37   2.0000      -0.639438       -17.4000 
  38   2.0000      -0.637704       -17.3528 
  39   2.0000      -0.633324       -17.2336 
  40   2.0000      -0.631791       -17.1919 
  41   2.0000      -0.628262       -17.0959 
  42   2.0000      -0.624980       -17.0066 
  43   2.0000      -0.623613       -16.9694 
  44   2.0000      -0.622412       -16.9367 
  45   2.0000      -0.618636       -16.8339 
  46   2.0000      -0.617740       -16.8096 
  47   2.0000      -0.616601       -16.7786 
  48   2.0000      -0.581383       -15.8202 
  49   2.0000      -0.566934       -15.4271 
  50   2.0000      -0.545259       -14.8372 
  51   2.0000      -0.539806       -14.6889 
  52   2.0000      -0.532204       -14.4820 
  53   2.0000      -0.530470       -14.4348 
  54   2.0000      -0.523005       -14.2317 
  55   2.0000      -0.522645       -14.2219 
  56   2.0000      -0.505114       -13.7448 
  57   2.0000      -0.502379       -13.6704 
  58   2.0000      -0.499626       -13.5955 
  59   2.0000      -0.497419       -13.5354 
  60   2.0000      -0.480939       -13.0870 
  61   2.0000      -0.477509       -12.9937 
  62   2.0000      -0.470188       -12.7945 
  63   2.0000      -0.451100       -12.2751 
  64   2.0000      -0.432042       -11.7565 
  65   2.0000      -0.431012       -11.7284 
  66   2.0000      -0.429532       -11.6882 
  67   2.0000      -0.424941       -11.5632 
  68   2.0000      -0.424608       -11.5542 
  69   2.0000      -0.424032       -11.5385 
  70   2.0000      -0.423637       -11.5278 
  71   2.0000      -0.423088       -11.5128 
  72   2.0000      -0.420761       -11.4495 
  73   2.0000      -0.420677       -11.4472 
  74   2.0000      -0.419047       -11.4029 
  75   2.0000      -0.418970       -11.4008 
  76   2.0000      -0.417452       -11.3595 
  77   2.0000      -0.417055       -11.3487 
  78   2.0000      -0.414474       -11.2784 
  79   2.0000      -0.413140       -11.2421 
  80   0.0000       0.062308         1.6955 
  81   0.0000       0.074704         2.0328 
  82   0.0000       0.092695         2.5224 
  83   0.0000       0.093733         2.5506 
  84   0.0000       0.102699         2.7946 
  85   0.0000       0.103528         2.8171 
  86   0.0000       0.105347         2.8666 
  87   0.0000       0.120961         3.2915 
  88   0.0000       0.126849         3.4517 
  89   0.0000       0.128901         3.5076 
  90   0.0000       0.133309         3.6275 
  91   0.0000       0.137772         3.7490 
  92   0.0000       0.141151         3.8409 
  93   0.0000       0.155162         4.2222 
  94   0.0000       0.157226         4.2783 
  95   0.0000       0.161653         4.3988 
  96   0.0000       0.162907         4.4329 
  97   0.0000       0.165313         4.4984 
  98   0.0000       0.179261         4.8780 
  99   0.0000       0.179769         4.8918 
 100   0.0000       0.181706         4.9445 
 101   0.0000       0.183409         4.9908 
 102   0.0000       0.190361         5.1800 
 103   0.0000       0.193369         5.2619 
 104   0.0000       0.195446         5.3184 
 105   0.0000       0.195878         5.3301 
 106   0.0000       0.207801         5.6546 
 107   0.0000       0.210633         5.7316 
 108   0.0000       0.210880         5.7383 
 109   0.0000       0.214263         5.8304 
 110   0.0000       0.219639         5.9767 
 111   0.0000       0.223096         6.0708 
 112   0.0000       0.227059         6.1786 
 113   0.0000       0.228495         6.2177 
 114   0.0000       0.232712         6.3324 
 115   0.0000       0.243960         6.6385 
 116   0.0000       0.245925         6.6920 
 117   0.0000       0.246192         6.6992 
 118   0.0000       0.246337         6.7032 
 119   0.0000       0.256882         6.9901 
 120   0.0000       0.259430         7.0594 
 121   0.0000       0.260048         7.0763 
 122   0.0000       0.263540         7.1713 
 123   0.0000       0.266140         7.2420 
 124   0.0000       0.278070         7.5667 
 125   0.0000       0.278245         7.5714 
 126   0.0000       0.281551         7.6614 
 127   0.0000       0.283392         7.7115 
 128   0.0000       0.288398         7.8477 
 129   0.0000       0.291912         7.9433 
 130   0.0000       0.296477         8.0676 
 131   0.0000       0.305244         8.3061 
 132   0.0000       0.313929         8.5424 
 133   0.0000       0.314989         8.5713 
 134   0.0000       0.317590         8.6421 
 135   0.0000       0.324176         8.8213 
 136   0.0000       0.333830         9.0840 
 137   0.0000       0.336603         9.1594 
 138   0.0000       0.340269         9.2592 
 139   0.0000       0.340554         9.2669 
 140   0.0000       0.342103         9.3091 
 141   0.0000       0.342721         9.3259 
 142   0.0000       0.344127         9.3642 
 143   0.0000       0.345231         9.3942 
 144   0.0000       0.350837         9.5468 
 145   0.0000       0.352877         9.6023 
 146   0.0000       0.354061         9.6345 
 147   0.0000       0.358215         9.7475 
 148   0.0000       0.362976         9.8771 
 149   0.0000       0.369309        10.0494 
 150   0.0000       0.369855        10.0643 
 151   0.0000       0.372926        10.1478 
 152   0.0000       0.376299        10.2396 
 153   0.0000       0.378698        10.3049 
 154   0.0000       0.380329        10.3493 
 155   0.0000       0.385164        10.4808 
 156   0.0000       0.395461        10.7610 
 157   0.0000       0.402487        10.9522 
 158   0.0000       0.402851        10.9621 
 159   0.0000       0.403452        10.9785 
 160   0.0000       0.408696        11.1212 
 161   0.0000       0.419160        11.4059 
 162   0.0000       0.424505        11.5514 
 163   0.0000       0.424743        11.5578 
 164   0.0000       0.429241        11.6802 
 165   0.0000       0.436833        11.8868 
 166   0.0000       0.439475        11.9587 
 167   0.0000       0.440921        11.9981 
 168   0.0000       0.455640        12.3986 
 169   0.0000       0.460113        12.5203 
 170   0.0000       0.462817        12.5939 
 171   0.0000       0.469782        12.7834 
 172   0.0000       0.477024        12.9805 
 173   0.0000       0.477563        12.9951 
 174   0.0000       0.478973        13.0335 
 175   0.0000       0.490111        13.3366 
 176   0.0000       0.511727        13.9248 
 177   0.0000       0.518100        14.0982 
 178   0.0000       0.522639        14.2217 
 179   0.0000       0.524819        14.2810 
 180   0.0000       0.536783        14.6066 
 181   0.0000       0.536940        14.6109 
 182   0.0000       0.543864        14.7993 
 183   0.0000       0.545465        14.8429 
 184   0.0000       0.547116        14.8878 
 185   0.0000       0.562908        15.3175 
 186   0.0000       0.566967        15.4280 
 187   0.0000       0.570400        15.5214 
 188   0.0000       0.570773        15.5315 
 189   0.0000       0.577824        15.7234 
 190   0.0000       0.585448        15.9308 
 191   0.0000       0.588419        16.0117 
 192   0.0000       0.589980        16.0542 
 193   0.0000       0.596254        16.2249 
 194   0.0000       0.608557        16.5597 
 195   0.0000       0.612221        16.6594 
 196   0.0000       0.615807        16.7570 
 197   0.0000       0.626400        17.0452 
 198   0.0000       0.630948        17.1690 
 199   0.0000       0.644453        17.5365 
 200   0.0000       0.660794        17.9811 
 201   0.0000       0.674985        18.3673 
 202   0.0000       0.677696        18.4410 
 203   0.0000       0.682248        18.5649 
 204   0.0000       0.684266        18.6198 
 205   0.0000       0.697030        18.9672 
 206   0.0000       0.698168        18.9981 
 207   0.0000       0.717198        19.5159 
 208   0.0000       0.724112        19.7041 
 209   0.0000       0.728793        19.8315 
 210   0.0000       0.731199        19.8969 
 211   0.0000       0.739829        20.1318 
 212   0.0000       0.753506        20.5039 
 213   0.0000       0.755449        20.5568 
 214   0.0000       0.760197        20.6860 
 215   0.0000       0.772950        21.0330 
 216   0.0000       0.777713        21.1626 
 217   0.0000       0.778175        21.1752 
 218   0.0000       0.786400        21.3990 
 219   0.0000       0.787051        21.4168 
 220   0.0000       0.793715        21.5981 
 221   0.0000       0.795643        21.6506 
 222   0.0000       0.796651        21.6780 
 223   0.0000       0.801882        21.8203 
 224   0.0000       0.826785        22.4980 
 225   0.0000       0.832150        22.6440 
 226   0.0000       0.836335        22.7578 
 227   0.0000       0.840053        22.8590 
 228   0.0000       0.855987        23.2926 
 229   0.0000       0.856565        23.3083 
 230   0.0000       0.861020        23.4295 
 231   0.0000       0.863154        23.4876 
 232   0.0000       0.878249        23.8984 
 233   0.0000       0.880852        23.9692 
 234   0.0000       0.882077        24.0025 
 235   0.0000       0.883680        24.0462 
 236   0.0000       0.893292        24.3077 
 237   0.0000       0.896125        24.3848 
 238   0.0000       0.898758        24.4565 
 239   0.0000       0.900273        24.4977 
 240   0.0000       0.909262        24.7423 
 241   0.0000       0.911536        24.8042 
 242   0.0000       0.914795        24.8928 
 243   0.0000       0.925865        25.1941 
 244   0.0000       0.928322        25.2609 
 245   0.0000       0.929718        25.2989 
 246   0.0000       0.951636        25.8953 
 247   0.0000       0.971152        26.4264 
 248   0.0000       0.979964        26.6662 
 249   0.0000       0.998457        27.1694 
 250   0.0000       0.999302        27.1924 
 251   0.0000       1.018842        27.7241 
 252   0.0000       1.030975        28.0542 
 253   0.0000       1.033043        28.1105 
 254   0.0000       1.034185        28.1416 
 255   0.0000       1.042747        28.3746 
 256   0.0000       1.046409        28.4742 
 257   0.0000       1.051804        28.6210 
 258   0.0000       1.056449        28.7474 
 259   0.0000       1.071086        29.1457 
 260   0.0000       1.072427        29.1822 
 261   0.0000       1.079551        29.3761 
 262   0.0000       1.108456        30.1626 
 263   0.0000       1.112264        30.2662 
 264   0.0000       1.118366        30.4323 
 265   0.0000       1.133202        30.8360 
 266   0.0000       1.136336        30.9213 
 267   0.0000       1.138033        30.9675 
 268   0.0000       1.157307        31.4919 
 269   0.0000       1.176702        32.0197 
 270   0.0000       1.226193        33.3664 
 271   0.0000       1.236950        33.6591 
 272   0.0000       1.247951        33.9585 
 273   0.0000       1.260867        34.3099 
 274   0.0000       1.264528        34.4096 
 275   0.0000       1.267070        34.4787 
 276   0.0000       1.273786        34.6615 
 277   0.0000       1.275191        34.6997 
 278   0.0000       1.292036        35.1581 
 279   0.0000       1.297072        35.2951 
 280   0.0000       1.302788        35.4507 
 281   0.0000       1.309189        35.6249 
 282   0.0000       1.310204        35.6525 
 283   0.0000       1.311670        35.6924 
 284   0.0000       1.315660        35.8009 
 285   0.0000       1.329799        36.1857 
 286   0.0000       1.333647        36.2904 
 287   0.0000       1.335613        36.3439 
 288   0.0000       1.342173        36.5224 
 289   0.0000       1.342834        36.5404 
 290   0.0000       1.380149        37.5558 
 291   0.0000       1.401374        38.1333 
 292   0.0000       1.405070        38.2339 
 293   0.0000       1.414545        38.4917 
 294   0.0000       1.425150        38.7803 
 295   0.0000       1.429978        38.9117 
 296   0.0000       1.451038        39.4847 
 297   0.0000       1.456035        39.6207 
 298   0.0000       1.456644        39.6373 
 299   0.0000       1.457947        39.6728 
 300   0.0000       1.463452        39.8226 
 301   0.0000       1.471091        40.0304 
 302   0.0000       1.471798        40.0496 
 303   0.0000       1.474048        40.1109 
 304   0.0000       1.482933        40.3527 
 305   0.0000       1.488212        40.4963 
 306   0.0000       1.489598        40.5340 
 307   0.0000       1.495292        40.6890 
 308   0.0000       1.498810        40.7847 
 309   0.0000       1.509777        41.0831 
 310   0.0000       1.517150        41.2838 
 311   0.0000       1.517628        41.2968 
 312   0.0000       1.532082        41.6901 
 313   0.0000       1.532543        41.7026 
 314   0.0000       1.543540        42.0019 
 315   0.0000       1.551830        42.2274 
 316   0.0000       1.555208        42.3194 
 317   0.0000       1.558087        42.3977 
 318   0.0000       1.563365        42.5413 
 319   0.0000       1.578085        42.9419 
 320   0.0000       1.667243        45.3680 
 321   0.0000       1.717038        46.7230 
 322   0.0000       1.729022        47.0491 
 323   0.0000       1.766445        48.0674 
 324   0.0000       1.770436        48.1760 
 325   0.0000       1.774048        48.2743 
 326   0.0000       1.801907        49.0324 
 327   0.0000       1.808141        49.2020 
 328   0.0000       1.812020        49.3076 
 329   0.0000       1.816524        49.4301 
 330   0.0000       1.818983        49.4971 
 331   0.0000       1.827399        49.7261 
 332   0.0000       1.837325        49.9961 
 333   0.0000       1.844746        50.1981 
 334   0.0000       1.847121        50.2627 
 335   0.0000       1.854669        50.4681 
 336   0.0000       1.860606        50.6297 
 337   0.0000       1.868249        50.8376 
 338   0.0000       1.869622        50.8750 
 339   0.0000       1.889287        51.4101 
 340   0.0000       1.894641        51.5558 
 341   0.0000       1.897126        51.6234 
 342   0.0000       1.906649        51.8826 
 343   0.0000       1.914239        52.0891 
 344   0.0000       1.916751        52.1574 
 345   0.0000       1.921245        52.2797 
 346   0.0000       1.922459        52.3128 
 347   0.0000       1.931600        52.5615 
 348   0.0000       1.947065        52.9823 
 349   0.0000       1.950360        53.0720 
 350   0.0000       1.957389        53.2633 
 351   0.0000       1.958186        53.2849 
 352   0.0000       1.974182        53.7202 
 353   0.0000       1.978971        53.8505 
 354   0.0000       1.999564        54.4109 
 355   0.0000       2.041915        55.5633 
 356   0.0000       2.045662        55.6653 
 357   0.0000       2.056468        55.9593 
 358   0.0000       2.066329        56.2277 
 359   0.0000       2.082520        56.6683 
 360   0.0000       2.090444        56.8839 
 361   0.0000       2.092395        56.9370 
 362   0.0000       2.095815        57.0300 
 363   0.0000       2.123088        57.7722 
 364   0.0000       2.130241        57.9668 
 365   0.0000       2.134836        58.0918 
 366   0.0000       2.140686        58.2510 
 367   0.0000       2.146023        58.3963 
 368   0.0000       2.149997        58.5044 
 369   0.0000       2.155466        58.6532 
 370   0.0000       2.159420        58.7608 
 371   0.0000       2.167248        58.9738 
 372   0.0000       2.176200        59.2174 
 373   0.0000       2.179985        59.3204 
 374   0.0000       2.193806        59.6965 
 375   0.0000       2.205377        60.0114 
 376   0.0000       2.206625        60.0453 
 377   0.0000       2.220024        60.4099 
 378   0.0000       2.230261        60.6885 
 379   0.0000       2.236312        60.8531 
 380   0.0000       2.238409        60.9102 
 381   0.0000       2.245981        61.1162 
 382   0.0000       2.256656        61.4067 
 383   0.0000       2.282305        62.1047 
 384   0.0000       2.283592        62.1397 
 385   0.0000       2.302712        62.6600 
 386   0.0000       2.312424        62.9243 
 387   0.0000       2.313810        62.9620 
 388   0.0000       2.319249        63.1100 
 389   0.0000       2.336561        63.5811 
 390   0.0000       2.354656        64.0734 
 391   0.0000       2.365122        64.3583 
 392   0.0000       2.370953        64.5169 
 393   0.0000       2.372569        64.5609 
 394   0.0000       2.379460        64.7484 
 395   0.0000       2.382571        64.8331 
 396   0.0000       2.393949        65.1427 
 397   0.0000       2.397962        65.2519 
 398   0.0000       2.414449        65.7005 
 399   0.0000       2.414772        65.7093 
 400   0.0000       2.417405        65.7809 
 401   0.0000       2.429291        66.1044 
 402   0.0000       2.451100        66.6978 
 403   0.0000       2.463804        67.0435 
 404   0.0000       2.473545        67.3086 
 405   0.0000       2.474759        67.3416 
 406   0.0000       2.476749        67.3958 
 407   0.0000       2.491821        67.8059 
 408   0.0000       2.496097        67.9223 
 409   0.0000       2.498921        67.9991 
 410   0.0000       2.501890        68.0799 
 411   0.0000       2.512906        68.3797 
 412   0.0000       2.520247        68.5794 
 413   0.0000       2.521944        68.6256 
 414   0.0000       2.525145        68.7127 
 415   0.0000       2.528759        68.8110 
 416   0.0000       2.539051        69.0911 
 417   0.0000       2.546896        69.3046 
 418   0.0000       2.551862        69.4397 
 419   0.0000       2.554349        69.5074 
 420   0.0000       2.562789        69.7370 
 421   0.0000       2.569966        69.9323 
 422   0.0000       2.570424        69.9448 
 423   0.0000       2.582389        70.2704 
 424   0.0000       2.584816        70.3364 
 425   0.0000       2.595849        70.6366 
 426   0.0000       2.604167        70.8630 
 427   0.0000       2.607893        70.9644 
 428   0.0000       2.608866        70.9908 
 429   0.0000       2.616250        71.1918 
 430   0.0000       2.617481        71.2253 
 431   0.0000       2.632509        71.6342 
 432   0.0000       2.636977        71.7558 
 433   0.0000       2.646080        72.0035 
 434   0.0000       2.657653        72.3184 
 435   0.0000       2.671117        72.6848 
 436   0.0000       2.674629        72.7804 
 437   0.0000       2.677517        72.8589 
 438   0.0000       2.689767        73.1923 
 439   0.0000       2.695506        73.3484 
 440   0.0000       2.699955        73.4695 
 441   0.0000       2.712287        73.8051 
 442   0.0000       2.713954        73.8504 
 443   0.0000       2.744846        74.6910 
 444   0.0000       2.755527        74.9817 
 445   0.0000       2.758405        75.0600 
 446   0.0000       2.773280        75.4648 
 447   0.0000       2.774141        75.4882 
 448   0.0000       2.776012        75.5391 
 449   0.0000       2.786523        75.8252 
 450   0.0000       2.789296        75.9006 
 451   0.0000       2.793220        76.0074 
 452   0.0000       2.817095        76.6570 
 453   0.0000       2.829437        76.9929 
 454   0.0000       2.830869        77.0319 
 455   0.0000       2.836171        77.1761 
 456   0.0000       2.839721        77.2727 
 457   0.0000       2.847940        77.4964 
 458   0.0000       2.858826        77.7926 
 459   0.0000       2.859910        77.8221 
 460   0.0000       2.881417        78.4073 
 461   0.0000       2.882235        78.4296 
 462   0.0000       2.891972        78.6946 
 463   0.0000       2.914953        79.3199 
 464   0.0000       2.920302        79.4655 
 465   0.0000       2.922319        79.5203 
 466   0.0000       2.928223        79.6810 
 467   0.0000       2.935800        79.8872 
 468   0.0000       2.954457        80.3948 
 469   0.0000       2.977635        81.0256 
 470   0.0000       2.990470        81.3748 
 471   0.0000       3.006732        81.8173 
 472   0.0000       3.018094        82.1265 
 473   0.0000       3.019181        82.1561 
 474   0.0000       3.023978        82.2866 
 475   0.0000       3.026248        82.3484 
 476   0.0000       3.039569        82.7109 
 477   0.0000       3.060474        83.2797 
 478   0.0000       3.071878        83.5900 
 479   0.0000       3.098162        84.3053 
 480   0.0000       3.103141        84.4408 
 481   0.0000       3.119855        84.8956 
 482   0.0000       3.123213        84.9870 
 483   0.0000       3.139782        85.4378 
 484   0.0000       3.164291        86.1047 
 485   0.0000       3.170531        86.2745 
 486   0.0000       3.178681        86.4963 
 487   0.0000       3.181427        86.5710 
 488   0.0000       3.199433        87.0610 
 489   0.0000       3.201255        87.1106 
 490   0.0000       3.202342        87.1401 
 491   0.0000       3.210563        87.3639 
 492   0.0000       3.219794        87.6151 
 493   0.0000       3.227593        87.8273 
 494   0.0000       3.230448        87.9049 
 495   0.0000       3.245486        88.3142 
 496   0.0000       3.248245        88.3892 
 497   0.0000       3.254254        88.5528 
 498   0.0000       3.255713        88.5925 
 499   0.0000       3.295615        89.6783 
 500   0.0000       3.302963        89.8782 
 501   0.0000       3.304502        89.9201 
 502   0.0000       3.321828        90.3915 
 503   0.0000       3.328985        90.5863 
 504   0.0000       3.339251        90.8656 
 505   0.0000       3.353251        91.2466 
 506   0.0000       3.372812        91.7789 
 507   0.0000       3.382990        92.0558 
 508   0.0000       3.384333        92.0924 
 509   0.0000       3.395687        92.4014 
 510   0.0000       3.398713        92.4837 
 511   0.0000       3.438720        93.5723 
 512   0.0000       3.904819       106.2555 
 513   0.0000       3.913881       106.5021 
 514   0.0000       3.918819       106.6365 
 515   0.0000       3.932140       106.9990 
 516   0.0000       3.938596       107.1746 
 517   0.0000       3.953647       107.5842 
 518   0.0000       3.960006       107.7572 
 519   0.0000       3.961795       107.8059 
 520   0.0000       3.964429       107.8776 
 521   0.0000       3.984600       108.4265 
 522   0.0000       3.994745       108.7025 
 523   0.0000       4.016055       109.2824 
 524   0.0000       4.023528       109.4858 
 525   0.0000       4.031519       109.7032 
 526   0.0000       4.040693       109.9528 
 527   0.0000       4.046167       110.1018 
 528   0.0000       4.049684       110.1975 
 529   0.0000       4.054141       110.3188 
 530   0.0000       4.073772       110.8530 
 531   0.0000       4.080006       111.0226 
 532   0.0000       4.082591       111.0930 
 533   0.0000       4.094437       111.4153 
 534   0.0000       4.098738       111.5323 
 535   0.0000       4.108060       111.7860 
 536   0.0000       4.124769       112.2407 
 537   0.0000       4.130083       112.3853 
 538   0.0000       4.132515       112.4514 
 539   0.0000       4.143034       112.7377 
 540   0.0000       4.199877       114.2845 
 541   0.0000       4.203298       114.3775 
 542   0.0000       4.205691       114.4427 
 543   0.0000       4.273295       116.2823 
 544   0.0000       5.188294       141.1806 
 545   0.0000       5.188559       141.1879 
 546   0.0000       5.189034       141.2008 
 547   0.0000       5.189318       141.2085 
 548   0.0000       5.191206       141.2599 
 549   0.0000       5.191410       141.2655 
 550   0.0000       5.192359       141.2913 
 551   0.0000       5.193643       141.3262 
 552   0.0000       5.194458       141.3484 
 553   0.0000       5.194584       141.3518 
 554   0.0000       5.196003       141.3904 
 555   0.0000       5.200477       141.5122 
 556   0.0000       5.210049       141.7726 
 557   0.0000       5.212703       141.8449 
 558   0.0000       5.216437       141.9465 
 559   0.0000       5.217227       141.9680 
 560   0.0000       5.302532       144.2892 
 561   0.0000       5.304474       144.3421 
 562   0.0000       5.308857       144.4613 
 563   0.0000       5.311202       144.5251 
 564   0.0000       5.313384       144.5845 
 565   0.0000       5.318236       144.7166 
 566   0.0000       5.318730       144.7300 
 567   0.0000       5.325209       144.9063 
 568   0.0000       5.334754       145.1660 
 569   0.0000       5.337957       145.2532 
 570   0.0000       5.341836       145.3588 
 571   0.0000       5.342393       145.3739 
 572   0.0000       5.345077       145.4469 
 573   0.0000       5.346867       145.4956 
 574   0.0000       5.349259       145.5607 
 575   0.0000       5.350535       145.5955 
 576   0.0000       5.419495       147.4719 
 577   0.0000       5.420331       147.4947 
 578   0.0000       5.422234       147.5465 
 579   0.0000       5.429719       147.7502 
 580   0.0000       5.435092       147.8964 
 581   0.0000       5.439724       148.0224 
 582   0.0000       5.442853       148.1076 
 583   0.0000       5.446444       148.2053 
 584   0.0000       5.448809       148.2696 
 585   0.0000       5.451337       148.3384 
 586   0.0000       5.452712       148.3758 
 587   0.0000       5.454336       148.4200 
 588   0.0000       5.456139       148.4691 
 589   0.0000       5.458280       148.5273 
 590   0.0000       5.459971       148.5734 
 591   0.0000       5.470127       148.8497 
 592   0.0000       5.471536       148.8881 
 593   0.0000       5.476216       149.0154 
 594   0.0000       5.484873       149.2510 
 595   0.0000       5.489091       149.3657 
 596   0.0000       5.491380       149.4280 
 597   0.0000       5.491632       149.4349 
 598   0.0000       5.494555       149.5144 
 599   0.0000       5.499783       149.6567 
 600   0.0000       5.501957       149.7159 
 601   0.0000       5.508070       149.8822 
 602   0.0000       5.513221       150.0224 
 603   0.0000       5.516187       150.1031 
 604   0.0000       5.517672       150.1435 
 605   0.0000       5.519922       150.2047 
 606   0.0000       5.521251       150.2409 
 607   0.0000       5.525133       150.3465 
 608   0.0000       5.528652       150.4423 
 609   0.0000       5.529359       150.4615 
 610   0.0000       5.533351       150.5701 
 611   0.0000       5.536256       150.6492 
 612   0.0000       5.537660       150.6874 
 613   0.0000       5.540539       150.7657 
 614   0.0000       5.546294       150.9223 
 615   0.0000       5.547955       150.9675 
 616   0.0000       5.549513       151.0099 
 617   0.0000       5.550527       151.0375 
 618   0.0000       5.552565       151.0930 
 619   0.0000       5.555191       151.1644 
 620   0.0000       5.587998       152.0572 
 621   0.0000       5.593482       152.2064 
 622   0.0000       5.594665       152.2386 
 623   0.0000       5.619844       152.9237 
 624   0.0000       5.984201       162.8384 
 625   0.0000       5.993826       163.1003 
 626   0.0000       6.000315       163.2769 
 627   0.0000       6.035167       164.2253 
 628   0.0000       6.041365       164.3939 
 629   0.0000       6.044046       164.4669 
 630   0.0000       6.046354       164.5297 
 631   0.0000       6.048426       164.5860 
 632   0.0000       6.051674       164.6744 
 633   0.0000       6.054746       164.7580 
 634   0.0000       6.062684       164.9740 
 635   0.0000       6.067108       165.0944 
 636   0.0000       6.072849       165.2506 
 637   0.0000       6.091464       165.7572 
 638   0.0000       6.096855       165.9039 
 639   0.0000       6.106660       166.1707 
 640   0.0000       6.186031       168.3305 
 641   0.0000       6.201023       168.7384 
 642   0.0000       6.246976       169.9889 
 643   0.0000       6.264523       170.4663 
 644   0.0000       6.266708       170.5258 
 645   0.0000       6.270545       170.6302 
 646   0.0000       6.299620       171.4214 
 647   0.0000       6.300520       171.4459 
 648   0.0000       6.312440       171.7702 
 649   0.0000       6.352047       172.8480 
 650   0.0000       6.355362       172.9382 
 651   0.0000       6.361097       173.0942 
 652   0.0000       6.388798       173.8480 
 653   0.0000       6.397959       174.0973 
 654   0.0000       6.402321       174.2160 
 655   0.0000       6.412019       174.4799 
 656   0.0000       6.416501       174.6019 
 657   0.0000       6.419007       174.6701 
 658   0.0000       6.444816       175.3724 
 659   0.0000       6.453783       175.6164 
 660   0.0000       6.454858       175.6456 
 661   0.0000       6.471854       176.1081 
 662   0.0000       6.473049       176.1406 
 663   0.0000       6.474494       176.1800 
 664   0.0000       6.476277       176.2285 
 665   0.0000       6.492650       176.6740 
 666   0.0000       6.493865       176.7071 
 667   0.0000       6.500067       176.8758 
 668   0.0000       6.503755       176.9762 
 669   0.0000       6.507273       177.0719 
 670   0.0000       6.507881       177.0885 
 671   0.0000       6.512465       177.2132 
 672   0.0000       6.513302       177.2359 
 673   0.0000       6.518547       177.3787 
 674   0.0000       6.523037       177.5009 
 675   0.0000       6.528032       177.6368 
 676   0.0000       6.532921       177.7698 
 677   0.0000       6.539180       177.9401 
 678   0.0000       6.547258       178.1600 
 679   0.0000       6.551537       178.2764 
 680   0.0000       6.558700       178.4713 
 681   0.0000       6.568232       178.7307 
 682   0.0000       6.583689       179.1513 
 683   0.0000       6.599012       179.5682 
 684   0.0000       6.603938       179.7023 
 685   0.0000       6.610994       179.8943 
 686   0.0000       6.618855       180.1082 
 687   0.0000       6.630412       180.4227 
 688   0.0000       6.631341       180.4480 
 689   0.0000       6.634643       180.5378 
 690   0.0000       6.642387       180.7485 
 691   0.0000       6.671988       181.5540 
 692   0.0000       6.689975       182.0435 
 693   0.0000       6.698434       182.2736 
 694   0.0000       6.727464       183.0636 
 695   0.0000       6.741696       183.4509 
 696   0.0000       6.749311       183.6581 
 697   0.0000       6.760232       183.9553 
 698   0.0000       6.780226       184.4993 
 699   0.0000       6.792996       184.8468 
 700   0.0000       6.879615       187.2038 
 701   0.0000       6.889357       187.4689 
 702   0.0000       6.899705       187.7505 
 703   0.0000       6.902112       187.8160 
 704   0.0000       6.967725       189.6014 
 705   0.0000       6.995911       190.3684 
 706   0.0000       7.022708       191.0976 
 707   0.0000       7.048060       191.7875 
 708   0.0000       7.075080       192.5227 
 709   0.0000       7.078892       192.6265 
 710   0.0000       7.109490       193.4591 
 711   0.0000       7.115198       193.6144 
 712   0.0000       7.121415       193.7836 
 713   0.0000       7.138885       194.2589 
 714   0.0000       7.140063       194.2910 
 715   0.0000       7.161259       194.8678 
 716   0.0000       7.182049       195.4335 
 717   0.0000       7.190934       195.6753 
 718   0.0000       7.200277       195.9295 
 719   0.0000       7.208397       196.1504 
 720   0.0000       7.215164       196.3346 
 721   0.0000       7.226362       196.6393 
 722   0.0000       7.228926       196.7091 
 723   0.0000       7.237776       196.9499 
 724   0.0000       7.240595       197.0266 
 725   0.0000       7.247014       197.2013 
 726   0.0000       7.256006       197.4460 
 727   0.0000       7.277174       198.0220 
 728   0.0000       7.282858       198.1766 
 729   0.0000       7.309188       198.8931 
 730   0.0000       7.334749       199.5887 
 731   0.0000       7.338707       199.6964 
 732   0.0000       7.343436       199.8251 
 733   0.0000       7.362171       200.3348 
 734   0.0000       7.365043       200.4130 
 735   0.0000       7.366947       200.4648 
 736   0.0000      43.747087      1190.4188 
 737   0.0000      43.763050      1190.8531 
 738   0.0000      43.777304      1191.2410 
 739   0.0000      43.780347      1191.3238 
 740   0.0000      43.790925      1191.6116 
 741   0.0000      43.800548      1191.8735 
 742   0.0000      43.828609      1192.6371 
 743   0.0000      43.847752      1193.1580 
 744   0.0000      43.860923      1193.5164 
 745   0.0000      43.872484      1193.8310 
 746   0.0000      43.901063      1194.6087 
 747   0.0000      43.909657      1194.8425 
 748   0.0000      43.954610      1196.0658 
 749   0.0000      43.958861      1196.1814 
 750   0.0000      44.058650      1198.8968 
 751   0.0000      44.211398      1203.0533 

                    ********************************
                    * MULLIKEN POPULATION ANALYSIS *
                    ********************************

-----------------------
MULLIKEN ATOMIC CHARGES
-----------------------
   0 O :   -0.870511
   1 H :    0.419776
[...]
      dyz     :     0.003867
      dx2y2   :     0.004453
      dxy     :     0.010750
      f0      :     0.000373  f :     0.001979
      f+1     :     0.000068
      f-1     :     0.000132
      f+2     :     0.000228
      f-2     :     0.000448
      f+3     :     0.000463
      f-3     :     0.000266
 13 H s       :     0.595691  s :     0.595691
      pz      :     0.052208  p :     0.202166
      px      :     0.087742
      py      :     0.062217
 14 H s       :     0.622267  s :     0.622267
      pz      :     0.042772  p :     0.156962
      px      :     0.041868
      py      :     0.072322
 15 O s       :     3.479452  s :     3.479452
      pz      :     1.796280  p :     4.878511
      px      :     1.425948
      py      :     1.656283
      dz2     :     0.003656  d :     0.027725
      dxz     :     0.003105
      dyz     :     0.004563
      dx2y2   :     0.005486
      dxy     :     0.010915
      f0      :     0.000197  f :     0.001970
      f+1     :     0.000432
      f-1     :     0.000078
      f+2     :     0.000083
      f-2     :     0.000323
      f+3     :     0.000338
      f-3     :     0.000518
 16 H s       :     0.622375  s :     0.622375
      pz      :     0.039219  p :     0.156894
      px      :     0.076806
      py      :     0.040869
 17 H s       :     0.595655  s :     0.595655
      pz      :     0.051122  p :     0.203159
      px      :     0.065413
      py      :     0.086624
 18 O s       :     3.491589  s :     3.491589
      pz      :     1.540942  p :     4.906507
      px      :     1.700740
      py      :     1.664826
      dz2     :     0.004151  d :     0.028345
      dxz     :     0.010266
      dyz     :     0.004588
      dx2y2   :     0.001674
      dxy     :     0.007666
      f0      :     0.000228  f :     0.001790
      f+1     :     0.000501
      f-1     :     0.000150
      f+2     :     0.000112
      f-2     :     0.000428
      f+3     :     0.000198
      f-3     :     0.000173
 19 H s       :     0.607559  s :     0.607559
      pz      :     0.090899  p :     0.187879
      px      :     0.059824
      py      :     0.037156
 20 H s       :     0.605246  s :     0.605246
      pz      :     0.046481  p :     0.197378
      px      :     0.075113
      py      :     0.075784
 21 O s       :     3.492148  s :     3.492148
      pz      :     1.635805  p :     4.880852
      px      :     1.636116
      py      :     1.608930
      dz2     :     0.001281  d :     0.028067
      dxz     :     0.009893
      dyz     :     0.010480
      dx2y2   :     0.000811
      dxy     :     0.005602
      f0      :     0.000177  f :     0.001895
      f+1     :     0.000223
      f-1     :     0.000196
      f+2     :     0.000062
      f-2     :     0.000892
      f+3     :     0.000216
      f-3     :     0.000128
 22 H s       :     0.618984  s :     0.618984
      pz      :     0.068964  p :     0.173595
      px      :     0.058630
      py      :     0.046001
 23 H s       :     0.613325  s :     0.613325
      pz      :     0.059945  p :     0.184027
      px      :     0.050171
      py      :     0.073911
 24 O s       :     3.480548  s :     3.480548
      pz      :     1.462146  p :     4.880064
      px      :     1.710413
      py      :     1.707505
      dz2     :     0.013614  d :     0.027687
      dxz     :     0.002599
      dyz     :     0.002609
      dx2y2   :     0.001042
      dxy     :     0.007822
      f0      :     0.001128  f :     0.001961
      f+1     :     0.000063
      f-1     :     0.000067
      f+2     :     0.000038
      f-2     :     0.000218
      f+3     :     0.000248
      f-3     :     0.000198
 25 H s       :     0.595129  s :     0.595129
      pz      :     0.036217  p :     0.204277
      px      :     0.082849
      py      :     0.085211
 26 H s       :     0.622724  s :     0.622724
      pz      :     0.085616  p :     0.156935
      px      :     0.035770
      py      :     0.035548
 27 O s       :     3.491244  s :     3.491244
      pz      :     1.529423  p :     4.906072
      px      :     1.670552
      py      :     1.706097
      dz2     :     0.001206  d :     0.028328
      dxz     :     0.012042
      dyz     :     0.006703
      dx2y2   :     0.003917
      dxy     :     0.004459
      f0      :     0.000130  f :     0.001785
      f+1     :     0.000442
      f-1     :     0.000117
      f+2     :     0.000482
      f-2     :     0.000370
      f+3     :     0.000206
      f-3     :     0.000037
 28 H s       :     0.607061  s :     0.607061
      pz      :     0.080833  p :     0.188182
      px      :     0.074278
      py      :     0.033071
 29 H s       :     0.605180  s :     0.605180
      pz      :     0.064987  p :     0.197325
      px      :     0.042148
      py      :     0.090190
 30 O s       :     3.492424  s :     3.492424
      pz      :     1.488060  p :     4.882480
      px      :     1.636159
      py      :     1.758261
      dz2     :     0.000629  d :     0.027962
      dxz     :     0.012358
      dyz     :     0.006689
      dx2y2   :     0.003837
      dxy     :     0.004449
      f0      :     0.000112  f :     0.001886
      f+1     :     0.000381
      f-1     :     0.000264
      f+2     :     0.000500
      f-2     :     0.000390
      f+3     :     0.000200
      f-3     :     0.000039
 31 H s       :     0.619084  s :     0.619084
      pz      :     0.064069  p :     0.174350
      px      :     0.074215
      py      :     0.036067
 32 H s       :     0.613565  s :     0.613565
      pz      :     0.067640  p :     0.183650
      px      :     0.041744
      py      :     0.074265
 33 O s       :     3.487032  s :     3.487032
      pz      :     1.640239  p :     4.903917
      px      :     1.688368
      py      :     1.575310
      dz2     :     0.000850  d :     0.027853
      dxz     :     0.008675
      dyz     :     0.011533
      dx2y2   :     0.001780
      dxy     :     0.005015
      f0      :     0.000183  f :     0.001824
      f+1     :     0.000147
      f-1     :     0.000188
      f+2     :     0.000183
      f-2     :     0.000789
      f+3     :     0.000240
      f-3     :     0.000094
 34 H s       :     0.612706  s :     0.612706
      pz      :     0.065533  p :     0.176358
      px      :     0.062775
      py      :     0.048050
 35 H s       :     0.603236  s :     0.603236
      pz      :     0.064073  p :     0.198464
      px      :     0.044736
      py      :     0.089656
 36 O s       :     3.487376  s :     3.487376
      pz      :     1.540088  p :     4.905211
      px      :     1.660062
      py      :     1.705060
      dz2     :     0.000846  d :     0.027793
      dxz     :     0.011912
      dyz     :     0.006324
      dx2y2   :     0.004203
      dxy     :     0.004508
      f0      :     0.000152  f :     0.001813
      f+1     :     0.000407
      f-1     :     0.000123
      f+2     :     0.000507
      f-2     :     0.000367
      f+3     :     0.000219
      f-3     :     0.000038
 37 H s       :     0.603140  s :     0.603140
      pz      :     0.065441  p :     0.198245
      px      :     0.041317
      py      :     0.091487
 38 H s       :     0.612136  s :     0.612136
      pz      :     0.071647  p :     0.177614
      px      :     0.072069
      py      :     0.033899
 39 O s       :     3.493299  s :     3.493299
      pz      :     1.448707  p :     4.884081
      px      :     1.804433
      py      :     1.630941
      dz2     :     0.002941  d :     0.027907
      dxz     :     0.008114
      dyz     :     0.009199
      dx2y2   :     0.003585
      dxy     :     0.004068
      f0      :     0.000190  f :     0.001874
      f+1     :     0.000543
      f-1     :     0.000177
      f+2     :     0.000388
      f-2     :     0.000331
      f+3     :     0.000127
      f-3     :     0.000118
 40 H s       :     0.619180  s :     0.619180
      pz      :     0.080494  p :     0.174862
      px      :     0.059477
      py      :     0.034892
 41 H s       :     0.613842  s :     0.613842
      pz      :     0.056956  p :     0.184820
      px      :     0.041699
      py      :     0.086165
 42 O s       :     3.486723  s :     3.486723
      pz      :     1.517840  p :     4.903522
      px      :     1.709845
      py      :     1.675837
      dz2     :     0.005394  d :     0.027924
      dxz     :     0.009383
      dyz     :     0.004179
      dx2y2   :     0.001531
      dxy     :     0.007436
      f0      :     0.000301  f :     0.001824
      f+1     :     0.000516
      f-1     :     0.000159
      f+2     :     0.000089
      f-2     :     0.000389
      f+3     :     0.000186
      f-3     :     0.000183
 43 H s       :     0.612527  s :     0.612527
      pz      :     0.088184  p :     0.177064
      px      :     0.052110
      py      :     0.036770
 44 H s       :     0.603248  s :     0.603248
      pz      :     0.045923  p :     0.198316
      px      :     0.077239
      py      :     0.075154
 45 O s       :     3.491387  s :     3.491387
      pz      :     1.643878  p :     4.905833
      px      :     1.661098
      py      :     1.600857
      dz2     :     0.000708  d :     0.028316
      dxz     :     0.009792
      dyz     :     0.010459
      dx2y2   :     0.002397
      dxy     :     0.004960
      f0      :     0.000191  f :     0.001788
      f+1     :     0.000148
      f-1     :     0.000154
      f+2     :     0.000239
      f-2     :     0.000737
      f+3     :     0.000187
      f-3     :     0.000131
 46 H s       :     0.607248  s :     0.607248
      pz      :     0.069336  p :     0.188702
      px      :     0.074875
      py      :     0.044492
 47 H s       :     0.606039  s :     0.606039
      pz      :     0.064011  p :     0.196587
      px      :     0.044331
      py      :     0.088245


                      *****************************
                      * MAYER POPULATION ANALYSIS *
                      *****************************

  NA   - Mulliken gross atomic population
  ZA   - Total nuclear charge
  QA   - Mulliken gross atomic charge
  VA   - Mayer's total valence
  BVA  - Mayer's bonded valence
  FA   - Mayer's free valence

  ATOM       NA         ZA         QA         VA         BVA        FA
  0 O      8.8705     8.0000    -0.8705     1.6862     1.6862     0.0000
  1 H      0.5802     1.0000     0.4198     0.8474     0.8474     0.0000
  2 H      0.5599     1.0000     0.4401     0.8356     0.8356     0.0000
  3 O      8.9300     8.0000    -0.9300     1.7641     1.7641     0.0000
  4 H      0.5447     1.0000     0.4553     0.8339     0.8339     0.0000
  5 H      0.5614     1.0000     0.4386     0.8366     0.8366     0.0000
  6 O      8.9273     8.0000    -0.9273     1.7580     1.7580     0.0000
  7 H      0.5367     1.0000     0.4633     0.8119     0.8119     0.0000
  8 H      0.5547     1.0000     0.4453     0.8274     0.8274    -0.0000
  9 O      8.8236     8.0000    -0.8236     1.7708     1.7708    -0.0000
 10 H      0.5660     1.0000     0.4340     0.8379     0.8379    -0.0000
 11 H      0.5589     1.0000     0.4411     0.8215     0.8215    -0.0000
 12 O      8.8698     8.0000    -0.8698     1.6924     1.6924     0.0000
 13 H      0.5609     1.0000     0.4391     0.8366     0.8366    -0.0000
 14 H      0.5805     1.0000     0.4195     0.8476     0.8476    -0.0000
 15 O      8.8537     8.0000    -0.8537     1.6854     1.6854    -0.0000
 16 H      0.5812     1.0000     0.4188     0.8493     0.8493     0.0000
 17 H      0.5631     1.0000     0.4369     0.8398     0.8398    -0.0000
 18 O      8.9280     8.0000    -0.9280     1.7613     1.7613    -0.0000
 19 H      0.5452     1.0000     0.4548     0.8339     0.8339    -0.0000
 20 H      0.5610     1.0000     0.4390     0.8363     0.8363     0.0000
 21 O      8.8289     8.0000    -0.8289     1.7703     1.7703    -0.0000
 22 H      0.5583     1.0000     0.4417     0.8245     0.8245    -0.0000
 23 H      0.5651     1.0000     0.4349     0.8370     0.8370    -0.0000
 24 O      8.8530     8.0000    -0.8530     1.6814     1.6814    -0.0000
 25 H      0.5643     1.0000     0.4357     0.8414     0.8414    -0.0000
 26 H      0.5816     1.0000     0.4184     0.8500     0.8500    -0.0000
 27 O      8.9139     8.0000    -0.9139     1.7374     1.7374    -0.0000
 28 H      0.5493     1.0000     0.4507     0.8401     0.8401     0.0000
 29 H      0.5570     1.0000     0.4430     0.8287     0.8287     0.0000
 30 O      8.8305     8.0000    -0.8305     1.7713     1.7713     0.0000
 31 H      0.5574     1.0000     0.4426     0.8231     0.8231     0.0000
 32 H      0.5654     1.0000     0.4346     0.8374     0.8374     0.0000
 33 O      8.9240     8.0000    -0.9240     1.7477     1.7477     0.0000
 34 H      0.5367     1.0000     0.4633     0.8105     0.8105    -0.0000
 35 H      0.5510     1.0000     0.4490     0.8225     0.8225    -0.0000
 36 O      8.9279     8.0000    -0.9279     1.7469     1.7469    -0.0000
 37 H      0.5488     1.0000     0.4512     0.8196     0.8196    -0.0000
 38 H      0.5353     1.0000     0.4647     0.8102     0.8102    -0.0000
 39 O      8.8234     8.0000    -0.8234     1.7693     1.7693    -0.0000
 40 H      0.5579     1.0000     0.4421     0.8209     0.8209     0.0000
 41 H      0.5672     1.0000     0.4328     0.8391     0.8391     0.0000
 42 O      8.9359     8.0000    -0.9359     1.7606     1.7606     0.0000
 43 H      0.5362     1.0000     0.4638     0.8113     0.8113     0.0000
 44 H      0.5525     1.0000     0.4475     0.8242     0.8242     0.0000
 45 O      8.9126     8.0000    -0.9126     1.7365     1.7365    -0.0000
 46 H      0.5506     1.0000     0.4494     0.8418     0.8418     0.0000
 47 H      0.5579     1.0000     0.4421     0.8304     0.8304     0.0000

  Mayer bond orders larger than 0.1
B(  0-O ,  1-H ) :   0.8269 B(  0-O ,  2-H ) :   0.7444 B(  3-O ,  4-H ) :   0.7744 
B(  3-O ,  5-H ) :   0.7790 B(  6-O ,  7-H ) :   0.7925 B(  6-O ,  8-H ) :   0.7706 
B(  9-O , 10-H ) :   0.8019 B(  9-O , 11-H ) :   0.8123 B( 12-O , 13-H ) :   0.7463 
B( 12-O , 14-H ) :   0.8273 B( 15-O , 16-H ) :   0.8283 B( 15-O , 17-H ) :   0.7457 
B( 18-O , 19-H ) :   0.7753 B( 18-O , 20-H ) :   0.7783 B( 21-O , 22-H ) :   0.8111 
B( 21-O , 23-H ) :   0.8006 B( 21-O , 25-H ) :   0.1022 B( 24-O , 25-H ) :   0.7447 
B( 24-O , 26-H ) :   0.8288 B( 27-O , 28-H ) :   0.7719 B( 27-O , 29-H ) :   0.7789 
B( 30-O , 31-H ) :   0.8103 B( 30-O , 32-H ) :   0.8012 B( 33-O , 34-H ) :   0.7929 
B( 33-O , 35-H ) :   0.7687 B( 36-O , 37-H ) :   0.7688 B( 36-O , 38-H ) :   0.7902 
B( 39-O , 40-H ) :   0.8111 B( 39-O , 41-H ) :   0.8019 B( 42-O , 43-H ) :   0.7920 
B( 42-O , 44-H ) :   0.7685 B( 45-O , 46-H ) :   0.7729 B( 45-O , 47-H ) :   0.7806 


-------
TIMINGS
-------

Total SCF time: 0 days 0 hours 31 min 58 sec 

Total time                  ....    1918.592 sec
Sum of individual times     ....    1721.231 sec  ( 89.7%)

Fock matrix formation       ....    1581.834 sec  ( 82.4%)
  Coulomb formation         ....    1447.930 sec  ( 91.5% of F)
  Split-RI-J                ....      66.387 sec  (  4.2% of F)
  Chain of spheres X        ....    1584.524 sec  (100.2% of F)
  COS-X 1 center corr.      ....       0.000 sec  (  0.0% of F)
  XC integration            ....     133.768 sec  (  8.5% of F)
    Basis function eval.    ....      51.750 sec  ( 38.7% of XC)
    Density eval.           ....      24.474 sec  ( 18.3% of XC)
    XC-Functional eval.     ....       8.925 sec  (  6.7% of XC)
    XC-Potential eval.      ....      47.121 sec  ( 35.2% of XC)
Diagonalization             ....       1.339 sec  (  0.1%)
Density matrix formation    ....       0.218 sec  (  0.0%)
Population analysis         ....       1.275 sec  (  0.1%)
Initial guess               ....      26.557 sec  (  1.4%)
Orbital Transformation      ....       0.000 sec  (  0.0%)
Orbital Orthonormalization  ....       0.000 sec  (  0.0%)
DIIS solution               ....       0.444 sec  (  0.0%)
SOSCF solution              ....       0.882 sec  (  0.0%)
Grid generation             ....      38.166 sec  (  2.0%)
COSMO(total)                ....      70.516 sec  (  3.7%)
   Initialization           ....       3.992 sec  (  5.7% of COSMO)
   Potential evaluation     ....      39.748 sec  ( 56.4% of COSMO)
   Charge calculation       ....       1.800 sec  (  2.6% of COSMO)
   Fock-Matrix contrib.     ....      26.441 sec  ( 37.5% of COSMO)
   Outer-lying charge       ....       1.584 sec  (  2.2% of COSMO)

Entering the calculation of the dispersion correction...

Checking the input atom types...

Done


-------------------------------------------------------------------------------
                          DFT DISPERSION CORRECTION                            
                                                                               
                                DFTD3 V2.1  Rev 6                               
                              USING zero damping                               
-------------------------------------------------------------------------------
The omegaB97X-D3 functional is recognized. Fit by Chai et al.
Active option DFTDOPT                   ...         3   

molecular C6(AA) [au] = 11389.300382 


            DFT-D V3
 parameters
 s6 scaling factor         :     1.0000 
 rs6 scaling factor        :     1.2810 
 s8 scaling factor         :     1.0000 
 rs8 scaling factor        :     1.0940 
 Damping factor alpha6     :    14.0000 
 Damping factor alpha8     :    16.0000 
 ad hoc parameters k1-k3   :    16.0000     1.3333    -4.0000 

 Edisp/kcal,au: -20.727101731006  -0.033030735593 
 E6   /kcal   : -11.142292096 
 E8   /kcal   :  -9.584809635 
 % E8         :  46.242884122 

-------------------------   ----------------
Dispersion correction           -0.033030736
-------------------------   ----------------


-------------------------   --------------------
FINAL SINGLE POINT ENERGY     -1223.345837989352
-------------------------   --------------------


                            ***************************************
                            *     ORCA property calculations      *
                            ***************************************

                                    ---------------------
                                    Active property flags
                                    ---------------------
   (+) Dipole Moment


------------------------------------------------------------------------------
                       ORCA ELECTRIC PROPERTIES CALCULATION
------------------------------------------------------------------------------

Dipole Moment Calculation                       ... on
Quadrupole Moment Calculation                   ... off
Polarizability Calculation                      ... off
GBWName                                         ... 3_wb98x-ma-def2-TZVP-SMD_onBP86_SMD_16_waters.gbw
Electron density file                           ... 3_wb98x-ma-def2-TZVP-SMD_onBP86_SMD_16_waters.scfp.tmp

-------------
DIPOLE MOMENT
-------------
                                X             Y             Z
Electronic contribution:     -0.00954      -0.01043      -0.00642
Nuclear contribution   :     -0.00238      -0.04838      -0.00255
                        -----------------------------------------
Total Dipole Moment    :     -0.01191      -0.05881      -0.00896
                        -----------------------------------------
Magnitude (a.u.)       :      0.06067
Magnitude (Debye)      :      0.15421


Timings for individual modules:

Sum of individual times         ...     1923.507 sec (=  32.058 min)
GTO integral calculation        ...        0.885 sec (=   0.015 min)   0.0 %
SCF iterations                  ...     1922.621 sec (=  32.044 min) 100.0 %
                             ****ORCA TERMINATED NORMALLY****
TOTAL RUN TIME: 0 days 0 hours 32 minutes 3 seconds 890 msec
cp: cannot stat /scratch/slurm-2202734/*.{prop}: No such file or directory
