42
Energy:   -221.06272351
O    0.18525759  -2.28969684  -1.10078595
H    0.80375182  -2.13274853  -0.37191327
C    0.93394915  -2.77528525  -2.20359990
H    0.22202800  -2.94674351  -3.01554543
H    1.44063352  -3.72872851  -1.98681838
H    1.68733255  -2.05387216  -2.55680515
O    2.56984869   1.07400744   1.38767930
H    2.13886661   1.55509428   0.66571450
C    2.73888014   1.97876534   2.46720480
H    3.22556003   1.42061827   3.27162989
H    1.78218717   2.36639045   2.85095297
H    3.38169446   2.83458853   2.20810300
O   -1.63546368   3.00952552  -0.13072580
H   -1.91869917   2.29625757   0.46041696
C   -2.46421877   2.96952611  -1.28142072
H   -2.13158355   3.77932627  -1.93644951
H   -3.52710382   3.13566589  -1.04594190
H   -2.37523486   2.02276865  -1.83685704
O    1.05011990   2.28068930  -0.63199350
H    0.17379766   2.67712232  -0.51656617
C    0.94585489   1.29351730  -1.64547958
H    1.94152725   0.85717485  -1.76264190
H    0.64013057   1.71220720  -2.61708071
H    0.24748976   0.48425227  -1.38061437
O   -2.22039001  -0.87716014  -1.28548619
H   -1.41314912  -1.41200703  -1.31239752
C   -3.32628380  -1.76527011  -1.31365329
H   -4.22710197  -1.14635492  -1.28273688
H   -3.34863800  -2.44419003  -0.44685148
H   -3.36069027  -2.37257504  -2.23168065
O    1.95588167  -1.62549114   0.96140885
H    2.26354687  -0.72488401   1.14216336
C    2.25416649  -2.41870974   2.09911013
H    1.90103628  -3.42971591   1.87854092
H    1.74064138  -2.06847750   3.00817925
H    3.33394307  -2.47241609   2.30881349
O   -2.22112794   0.55174093   1.14946152
H   -2.30848621   0.03722679   0.33333223
C   -1.01420040   0.15547420   1.78099327
H   -0.93151822   0.74462394   2.69835440
H   -0.12491044   0.35809173   1.16383296
H   -1.00932527  -0.91032868   2.05815349
