42
Energy:   -219.68663908
O   -2.10401719   0.61898272  -0.98640273
H   -1.42580496   1.31027452  -0.96258900
C   -2.01030141  -0.03283787  -2.24293806
H   -2.78105959  -0.80828535  -2.25284882
H   -1.03455991  -0.51935269  -2.39788705
H   -2.19831198   0.64619873  -3.08930599
O   -0.02501589   2.51003314  -0.85137651
H    0.85457564   2.42348201  -0.45482774
C   -0.12494380   3.81608838  -1.39614058
H   -1.12154534   3.89650518  -1.83863772
H    0.61651841   4.00427895  -2.18834979
H   -0.02566505   4.60387286  -0.63304382
O    1.22378937  -0.15056240   1.78334072
H    0.94713119  -1.02655427   1.47589680
C    0.06820320   0.52597229   2.25180115
H    0.39782577   1.51063926   2.59424109
H   -0.41074014   0.01224374   3.10001904
H   -0.68680024   0.67368421   1.46381110
O    0.05715667  -2.53466286   0.74337478
H   -0.87874528  -2.29230402   0.80479967
C    0.13985216  -3.94980335   0.79880605
H    1.20057668  -4.20551040   0.72836024
H   -0.38553120  -4.43949640  -0.03602948
H   -0.24862848  -4.36179864   1.74332709
O    1.22132243  -1.97366496  -1.80993600
H    0.85258328  -2.20578126  -0.94473271
C    1.87371834  -0.72089473  -1.67772374
H    2.28319800  -0.47459793  -2.66116133
H    2.70703183  -0.74923561  -0.95830540
H    1.18658847   0.08725743  -1.38188599
O   -2.53382408  -1.49343325   0.79928744
H   -2.46613412  -0.76019495   0.16984090
C   -3.79396860  -1.39307750   1.44310285
H   -3.85361106  -2.22635726   2.14849127
H   -4.63816338  -1.47893439   0.74114766
H   -3.90802902  -0.45636490   2.01085022
O    2.43059923   1.99023020   0.42789994
H    2.09904308   1.25567503   0.96541505
C    3.83484393   2.06189741   0.61629958
H    4.19190031   2.89432917   0.00388363
H    4.35513683   1.14860075   0.28772411
H    4.11380594   2.26345904   1.66240208
