7
Energy:    -39.47474598
C    0.02593004   0.17934923  -0.05050510
H    0.62009473   0.50642685  -0.87808515
H    0.12294041  -0.88034343   0.06147503
H    0.36049836   0.66448764   0.84258160
C   -1.45037627   0.53553121  -0.30595386
N   -2.54955343   0.80072489  -0.49614706
Cl   2.87046616  -1.80617640   0.82663455
