
                                 *****************
                                 * O   R   C   A *
                                 *****************

           --- An Ab Initio, DFT and Semiempirical electronic structure package ---

                  #######################################################
                  #                        -***-                        #
                  #          Department of theory and spectroscopy      #
                  #               Directorship: Frank Neese             #
                  #        Max Planck Institute fuer Kohlenforschung    #
                  #                Kaiser Wilhelm Platz 1               #
                  #                 D-45470 Muelheim/Ruhr               #
                  #                      Germany                        #
                  #                                                     #
                  #                  All rights reserved                #
                  #                        -***-                        #
                  #######################################################


                         Program Version 4.2.0 -  RELEASE  -


 With contributions from (in alphabetic order):
   Daniel Aravena         : Magnetic Suceptibility
   Michael Atanasov       : Ab Initio Ligand Field Theory (pilot matlab implementation)
   Alexander A. Auer      : GIAO ZORA, VPT2
   Ute Becker             : Parallelization
   Giovanni Bistoni       : ED, misc. LED, open-shell LED, HFLED
   Martin Brehm           : Molecular dynamics
   Dmytro Bykov           : SCF Hessian
   Vijay G. Chilkuri      : MRCI spin determinant printing, contributions to CSF-ICE
   Dipayan Datta          : RHF DLPNO-CCSD density
   Achintya Kumar Dutta   : EOM-CC, STEOM-CC
   Dmitry Ganyushin       : Spin-Orbit,Spin-Spin,Magnetic field MRCI
   Miquel Garcia          : C-PCM Hessian, Gaussian charge scheme
   Yang Guo               : DLPNO-NEVPT2, CIM, IAO-localization
   Andreas Hansen         : Spin unrestricted coupled pair/coupled cluster methods
   Benjamin Helmich-Paris : CASSCF linear response (MC-RPA)
   Lee Huntington         : MR-EOM, pCC
   Robert Izsak           : Overlap fitted RIJCOSX, COSX-SCS-MP3, EOM
   Christian Kollmar      : KDIIS, OOCD, Brueckner-CCSD(T), CCSD density
   Simone Kossmann        : Meta GGA functionals, TD-DFT gradient, OOMP2, MP2 Hessian
   Martin Krupicka        : AUTO-CI
   Lucas Lang             : DCDCAS
   Dagmar Lenk            : GEPOL surface, SMD
   Dimitrios Liakos       : Extrapolation schemes; Compound Job, initial MDCI parallelization
   Dimitrios Manganas     : Further ROCIS development; embedding schemes
   Dimitrios Pantazis     : SARC Basis sets
   Taras Petrenko         : DFT Hessian,TD-DFT gradient, ASA, ECA, R-Raman, ABS, FL, XAS/XES, NRVS
   Peter Pinski           : DLPNO-MP2, DLPNO-MP2 Gradient
   Christoph Reimann      : Effective Core Potentials
   Marius Retegan         : Local ZFS, SOC
   Christoph Riplinger    : Optimizer, TS searches, QM/MM, DLPNO-CCSD(T), (RO)-DLPNO pert. Triples
   Tobias Risthaus        : Range-separated hybrids, TD-DFT gradient, RPA, STAB
   Michael Roemelt        : Original ROCIS implementation
   Masaaki Saitow         : Open-shell DLPNO-CCSD energy and density
   Barbara Sandhoefer     : DKH picture change effects
   Avijit Sen             : IP-ROCIS
   Kantharuban Sivalingam : CASSCF convergence, NEVPT2, FIC-MRCI
   Bernardo de Souza      : ESD, SOC TD-DFT
   Georgi Stoychev        : AutoAux, RI-MP2 NMR
   Willem Van den Heuvel  : Paramagnetic NMR
   Boris Wezisla          : Elementary symmetry handling
   Frank Wennmohs         : Technical directorship


 We gratefully acknowledge several colleagues who have allowed us to
 interface, adapt or use parts of their codes:
   Stefan Grimme, W. Hujo, H. Kruse,             : VdW corrections, initial TS optimization,
                  C. Bannwarth                     DFT functionals, gCP, sTDA/sTD-DF
   Ed Valeev, F. Pavosevic, A. Kumar             : LibInt (2-el integral package), F12 methods
   Garnet Chan, S. Sharma, J. Yang, R. Olivares  : DMRG
   Ulf Ekstrom                                   : XCFun DFT Library
   Mihaly Kallay                                 : mrcc  (arbitrary order and MRCC methods)
   Andreas Klamt, Michael Diedenhofen            : otool_cosmo (COSMO solvation model)
   Jiri Pittner, Ondrej Demel                    : Mk-CCSD
   Frank Weinhold                                : gennbo (NPA and NBO analysis)
   Christopher J. Cramer and Donald G. Truhlar   : smd solvation model
   Lars Goerigk                                  : TD-DFT with DH, B97 family of functionals
   V. Asgeirsson, H. Jonsson                     : NEB implementation
   FAccTs GmbH                                   : IRC, NEB, NEB-TS, Multilevel, MM, QM/MM, CI optimization
   S Lehtola, MJT Oliveira, MAL Marques          : LibXC Library


 Your calculation uses the libint2 library for the computation of 2-el integrals
 For citations please refer to: http://libint.valeyev.net

 Your ORCA version has been built with support for libXC version: 4.2.3
 For citations please refer to: https://tddft.org/programs/libxc/

 This ORCA versions uses:
   CBLAS   interface :  Fast vector & matrix operations
   LAPACKE interface :  Fast linear algebra routines
   SCALAPACK package :  Parallel linear algebra routines


----- Orbital basis set information -----
Your calculation utilizes the basis: def2-TZVP
   F. Weigend and R. Ahlrichs, Phys. Chem. Chem. Phys. 7, 3297 (2005).

================================================================================
                                        WARNINGS
                       Please study these warnings very carefully!
================================================================================


WARNING: The frozen-core approximation for MP2-gradient calculations is turned on by default.

INFO   : the flag for use of LIBINT has been found!

================================================================================
                                       INPUT FILE
================================================================================
NAME = 12h2o.su.etal.mol0,2,3,5,9,11-orca.engrad-mp2.def2tzvp.frozencore.inp
|  1> # 12h2o.su.etal.mol0,2,3,5,9,11
|  2> ! MP2 def2-TZVP EnGrad TightSCF
|  3> 
|  4> %pal
|  5>     nprocs 6
|  6> end
|  7> 
|  8> %maxcore 8000
|  9> 
| 10> %scf
| 11>     ConvForced true
| 12> end
| 13> 
| 14> *xyz 0 1
| 15> O   1.794470000   0.923410000   2.768350000
| 16> H   2.338250000   1.359750000   3.430940000
| 17> H   0.879480000   1.303000000   2.865760000
| 18> O   0.923410000  -1.794470000  -2.768350000
| 19> H   1.359750000  -2.338250000  -3.430940000
| 20> H   1.303000000  -0.879480000  -2.865760000
| 21> O  -1.752130000  -0.741530000  -2.896280000
| 22> H  -2.036450000  -0.920500000  -1.984040000
| 23> H  -0.921210000  -1.242140000  -2.984230000
| 24> O   0.885520000  -1.737840000   0.052730000
| 25> H   1.284090000  -0.839590000   0.017130000
| 26> H   1.032320000  -2.090180000  -0.841890000
| 27> O   0.741530000  -1.752130000   2.896280000
| 28> H   0.920500000  -2.036450000   1.984040000
| 29> H   1.242140000  -0.921210000   2.984230000
| 30> O  -0.741530000   1.752130000   2.896280000
| 31> H  -0.920500000   2.036450000   1.984040000
| 32> H  -1.242140000   0.921210000   2.984230000
| 33> *
| 34> 
| 35>                          ****END OF INPUT****
================================================================================

                     *******************************
                     * Energy+Gradient Calculation *
                     *******************************

---------------------------------
CARTESIAN COORDINATES (ANGSTROEM)
---------------------------------
  O      1.794470    0.923410    2.768350
  H      2.338250    1.359750    3.430940
  H      0.879480    1.303000    2.865760
  O      0.923410   -1.794470   -2.768350
  H      1.359750   -2.338250   -3.430940
  H      1.303000   -0.879480   -2.865760
  O     -1.752130   -0.741530   -2.896280
  H     -2.036450   -0.920500   -1.984040
  H     -0.921210   -1.242140   -2.984230
  O      0.885520   -1.737840    0.052730
  H      1.284090   -0.839590    0.017130
  H      1.032320   -2.090180   -0.841890
  O      0.741530   -1.752130    2.896280
  H      0.920500   -2.036450    1.984040
  H      1.242140   -0.921210    2.984230
  O     -0.741530    1.752130    2.896280
  H     -0.920500    2.036450    1.984040
  H     -1.242140    0.921210    2.984230

----------------------------
CARTESIAN COORDINATES (A.U.)
----------------------------
  NO LB      ZA    FRAG     MASS         X           Y           Z
   0 O     8.0000    0    15.999    3.391057    1.744992    5.231423
   1 H     1.0000    0     1.008    4.418652    2.569555    6.483537
   2 H     1.0000    0     1.008    1.661976    2.462313    5.415502
   3 O     8.0000    0    15.999    1.744992   -3.391057   -5.231423
   4 H     1.0000    0     1.008    2.569555   -4.418652   -6.483537
   5 H     1.0000    0     1.008    2.462313   -1.661976   -5.415502
   6 O     8.0000    0    15.999   -3.311046   -1.401289   -5.473176
   7 H     1.0000    0     1.008   -3.848333   -1.739493   -3.749292
   8 H     1.0000    0     1.008   -1.740835   -2.347304   -5.639377
   9 O     8.0000    0    15.999    1.673390   -3.284042    0.099645
  10 H     1.0000    0     1.008    2.426578   -1.586595    0.032371
  11 H     1.0000    0     1.008    1.950802   -3.949868   -1.590942
  12 O     8.0000    0    15.999    1.401289   -3.311046    5.473176
  13 H     1.0000    0     1.008    1.739493   -3.848333    3.749292
  14 H     1.0000    0     1.008    2.347304   -1.740835    5.639377
  15 O     8.0000    0    15.999   -1.401289    3.311046    5.473176
  16 H     1.0000    0     1.008   -1.739493    3.848333    3.749292
  17 H     1.0000    0     1.008   -2.347304    1.740835    5.639377

--------------------------------
INTERNAL COORDINATES (ANGSTROEM)
--------------------------------
 O      0   0   0     0.000000000000     0.00000000     0.00000000
 H      1   0   0     0.961828878803     0.00000000     0.00000000
 H      1   2   0     0.995381322057   106.21731035     0.00000000
 O      1   2   3     6.229017908788   152.78811022   148.20682389
 H      4   1   2     0.961828878803   142.70840549    32.77530239
 H      4   1   2     0.995381322057    68.44287781   304.10042923
 O      4   1   2     2.878117964938    90.56600904   213.46992033
 H      7   4   1     0.972136791249    99.37069922   316.39996436
 H      7   4   1     0.974050112161    12.30570018   203.88443535
 O      4   1   2     2.821902722526    26.43043848   121.43990250
 H     10   4   1     0.983350632989    88.66470709   356.04997417
 H     10   4   1     0.972645187106    21.75017499   221.89319655
 O     10   4   1     2.847229166523   177.43098014   143.94628814
 H     13  10  12     0.972136791249    19.08819947     8.79504813
 H     13  10  12     0.974050112161    93.43428486   132.89132802
 O      3   1   2     1.682356278379   171.61043709   195.73896161
 H     16   3   1     0.972136791249   103.79460456   289.35412162
 H     16   3   1     0.974050112161   105.61118924    38.30604821

---------------------------
INTERNAL COORDINATES (A.U.)
---------------------------
 O      0   0   0     0.000000000000     0.00000000     0.00000000
 H      1   0   0     1.817593168635     0.00000000     0.00000000
 H      1   2   0     1.880998097508   106.21731035     0.00000000
 O      1   2   3    11.771137930900   152.78811022   148.20682389
 H      4   1   2     1.817593168635   142.70840549    32.77530239
 H      4   1   2     1.880998097508    68.44287781   304.10042923
 O      4   1   2     5.438854734852    90.56600904   213.46992033
 H      7   4   1     1.837072300170    99.37069922   316.39996436
 H      7   4   1     1.840687952699    12.30570018   203.88443535
 O      4   1   2     5.332623322141    26.43043848   121.43990250
 H     10   4   1     1.858263389967    88.66470709   356.04997417
 H     10   4   1     1.838033029106    21.75017499   221.89319655
 O     10   4   1     5.380483365242   177.43098014   143.94628814
 H     13  10  12     1.837072300170    19.08819947     8.79504813
 H     13  10  12     1.840687952699    93.43428486   132.89132802
 O      3   1   2     3.179192625819   171.61043709   195.73896161
 H     16   3   1     1.837072300170   103.79460456   289.35412162
 H     16   3   1     1.840687952699   105.61118924    38.30604821

---------------------
BASIS SET INFORMATION
---------------------
There are 2 groups of distinct atoms

 Group   1 Type O   : 11s6p2d1f contracted to 5s3p2d1f pattern {62111/411/11/1}
 Group   2 Type H   : 5s1p contracted to 3s1p pattern {311/1}

Atom   0O    basis set group =>   1
Atom   1H    basis set group =>   2
Atom   2H    basis set group =>   2
Atom   3O    basis set group =>   1
Atom   4H    basis set group =>   2
Atom   5H    basis set group =>   2
Atom   6O    basis set group =>   1
Atom   7H    basis set group =>   2
Atom   8H    basis set group =>   2
Atom   9O    basis set group =>   1
Atom  10H    basis set group =>   2
Atom  11H    basis set group =>   2
Atom  12O    basis set group =>   1
Atom  13H    basis set group =>   2
Atom  14H    basis set group =>   2
Atom  15O    basis set group =>   1
Atom  16H    basis set group =>   2
Atom  17H    basis set group =>   2


           ************************************************************
           *        Program running with 6 parallel MPI-processes     *
           *              working on a common directory               *
           ************************************************************
------------------------------------------------------------------------------
                           ORCA GTO INTEGRAL CALCULATION
------------------------------------------------------------------------------

                         BASIS SET STATISTICS AND STARTUP INFO

 # of primitive gaussian shells          ...  192
 # of primitive gaussian functions       ...  372
 # of contracted shells                  ...  114
 # of contracted basis functions         ...  258
 Highest angular momentum                ...    3
 Maximum contraction depth               ...    6
 Integral package used                   ... LIBINT
 Integral threshhold            Thresh   ...  2.500e-11
 Primitive cut-off              TCut     ...  2.500e-12


------------------------------ INTEGRAL EVALUATION ----------------------------


 * One electron integrals 
 Pre-screening matrix                    ... done
 Shell pair data                         ... done (   0.001 sec)



           ************************************************************
           *        Program running with 6 parallel MPI-processes     *
           *              working on a common directory               *
           ************************************************************
-------------------------------------------------------------------------------
                                 ORCA SCF
-------------------------------------------------------------------------------

------------
SCF SETTINGS
------------
Hamiltonian:
 Ab initio Hamiltonian  Method          .... Hartree-Fock(GTOs)


General Settings:
 Integral files         IntName         .... 12h2o.su.etal.mol0,2,3,5,9,11-orca.engrad-mp2.def2tzvp.frozencore
 Hartree-Fock type      HFTyp           .... RHF
 Total Charge           Charge          ....    0
 Multiplicity           Mult            ....    1
 Number of Electrons    NEL             ....   60
 Basis Dimension        Dim             ....  258
 Nuclear Repulsion      ENuc            ....    250.7624335940 Eh

Convergence Acceleration:
 DIIS                   CNVDIIS         .... on
   Start iteration      DIISMaxIt       ....    12
   Startup error        DIISStart       ....  0.200000
   # of expansion vecs  DIISMaxEq       ....     5
   Bias factor          DIISBfac        ....   1.050
   Max. coefficient     DIISMaxC        ....  10.000
 Newton-Raphson         CNVNR           .... off
 SOSCF                  CNVSOSCF        .... on
   Start iteration      SOSCFMaxIt      ....   150
   Startup grad/error   SOSCFStart      ....  0.003300
 Level Shifting         CNVShift        .... on
   Level shift para.    LevelShift      ....    0.2500
   Turn off err/grad.   ShiftErr        ....    0.0010
 Zerner damping         CNVZerner       .... off
 Static damping         CNVDamp         .... on
   Fraction old density DampFac         ....    0.7000
   Max. Damping (<1)    DampMax         ....    0.9800
   Min. Damping (>=0)   DampMin         ....    0.0000
   Turn off err/grad.   DampErr         ....    0.1000
 Fernandez-Rico         CNVRico         .... off

SCF Procedure:
 Maximum # iterations   MaxIter         ....   125
 SCF integral mode      SCFMode         .... Direct
   Integral package                     .... LIBINT
 Reset frequency        DirectResetFreq ....    20
 Integral Threshold     Thresh          ....  2.500e-11 Eh
 Primitive CutOff       TCut            ....  2.500e-12 Eh

Convergence Tolerance:
 Convergence Check Mode ConvCheckMode   .... Total+1el-Energy
 Convergence forced     ConvForced      .... 1
 Energy Change          TolE            ....  1.000e-08 Eh
 1-El. energy change                    ....  1.000e-05 Eh
 Orbital Gradient       TolG            ....  1.000e-05
 Orbital Rotation angle TolX            ....  1.000e-05
 DIIS Error             TolErr          ....  5.000e-07


Diagonalization of the overlap matrix:
Smallest eigenvalue                        ... 4.133e-03
Time for diagonalization                   ...    0.031 sec
Threshold for overlap eigenvalues          ... 1.000e-08
Number of eigenvalues below threshold      ... 0
Time for construction of square roots      ...    0.022 sec
Total time needed                          ...    0.053 sec

-------------------
DFT GRID GENERATION
-------------------

General Integration Accuracy     IntAcc      ...  4.340
Radial Grid Type                 RadialGrid  ... Gauss-Chebyshev
Angular Grid (max. acc.)         AngularGrid ... Lebedev-110
Angular grid pruning method      GridPruning ... 3 (G Style)
Weight generation scheme         WeightScheme... Becke
Basis function cutoff            BFCut       ...    1.0000e-11
Integration weight cutoff        WCut        ...    1.0000e-14
Grids for H and He will be reduced by one unit

# of grid points (after initial pruning)     ...  19824 (   0.0 sec)
# of grid points (after weights+screening)   ...  18856 (   0.0 sec)
nearest neighbour list constructed           ...    0.0 sec
Grid point re-assignment to atoms done       ...    0.0 sec
Grid point division into batches done        ...    0.0 sec
Reduced shell lists constructed in    0.0 sec

Total number of grid points                  ...    18856
Total number of batches                      ...      304
Average number of points per batch           ...       62
Average number of grid points per atom       ...     1048
Average number of shells per batch           ...    54.65 (47.94%)
Average number of basis functions per batch  ...   113.27 (43.90%)
Average number of large shells per batch     ...    38.58 (70.58%)
Average number of large basis fcns per batch ...    79.42 (70.12%)
Maximum spatial batch extension              ...  12.83, 14.40, 14.52 au
Average spatial batch extension              ...   0.52,  0.59,  0.58 au

Time for grid setup =    0.104 sec

------------------------------
INITIAL GUESS: MODEL POTENTIAL
------------------------------
Loading Hartree-Fock densities                     ... done
Calculating cut-offs                               ... done
Setting up the integral package                    ... done
Initializing the effective Hamiltonian             ... done
Starting the Coulomb interaction                   ... done (   0.0 sec)
Reading the grid                                   ... done
Mapping shells                                     ... done
Starting the XC term evaluation                    ... done (   0.1 sec)
Transforming the Hamiltonian                       ... done (   0.0 sec)
Diagonalizing the Hamiltonian                      ... done (   0.0 sec)
Back transforming the eigenvectors                 ... done (   0.0 sec)
Now organizing SCF variables                       ... done
                      ------------------
                      INITIAL GUESS DONE (   0.4 sec)
                      ------------------
--------------
SCF ITERATIONS
--------------
ITER       Energy         Delta-E        Max-DP      RMS-DP      [F,P]     Damp
               ***  Starting incremental Fock matrix formation  ***
  0   -455.8278354669   0.000000000000 0.04387961  0.00097018  0.3473040 0.7000
  1   -456.0403819061  -0.212546439233 0.02912832  0.00067090  0.2167481 0.7000
                               ***Turning on DIIS***
  2   -456.1527923211  -0.112410415035 0.01640288  0.00037409  0.1635885 0.7000
  3   -457.1584479241  -1.005655602931 0.00767250  0.00017101  0.1218139 0.7000
  4   -456.9545644990   0.203883425017 0.01744618  0.00039740  0.0861625 0.0000
  5   -456.4111726468   0.543391852279 0.00204683  0.00006399  0.0055452 0.0000
                      *** Initiating the SOSCF procedure ***
                           *** Shutting down DIIS ***
                      *** Re-Reading the Fockian *** 
                      *** Removing any level shift *** 
ITER      Energy       Delta-E        Grad      Rot      Max-DP    RMS-DP
  6   -456.37948565   0.0316869970  0.000945  0.000945  0.001317  0.000039
               *** Restarting incremental Fock matrix formation ***
  7   -456.36977716   0.0097084847  0.000332  0.000459  0.000604  0.000017
  8   -456.36978595  -0.0000087876  0.000130  0.000365  0.000457  0.000014
  9   -456.36978799  -0.0000020395  0.000070  0.000034  0.000084  0.000002
 10   -456.36978815  -0.0000001604  0.000014  0.000008  0.000017  0.000000
                  ***Gradient check signals convergence***
              ***Rediagonalizing the Fockian in SOSCF/NRSCF***

               *****************************************************
               *                     SUCCESS                       *
               *           SCF CONVERGED AFTER  11 CYCLES          *
               *****************************************************


----------------
TOTAL SCF ENERGY
----------------

Total Energy       :         -456.36978816 Eh          -12418.45328 eV

Components:
Nuclear Repulsion  :          250.76243359 Eh            6823.59272 eV
Electronic Energy  :         -707.13222175 Eh          -19242.04600 eV
One Electron Energy:        -1129.73363338 Eh          -30741.61504 eV
Two Electron Energy:          422.60141163 Eh           11499.56904 eV

Virial components:
Potential Energy   :         -912.12402724 Eh          -24820.15661 eV
Kinetic Energy     :          455.75423908 Eh           12401.70334 eV
Virial Ratio       :            2.00135062


---------------
SCF CONVERGENCE
---------------

  Last Energy change         ...   -4.9442e-09  Tolerance :   1.0000e-08
  Last MAX-Density change    ...    3.9571e-06  Tolerance :   1.0000e-07
  Last RMS-Density change    ...    1.2071e-07  Tolerance :   5.0000e-09
  Last Orbital Gradient      ...    2.2475e-06  Tolerance :   1.0000e-05
  Last Orbital Rotation      ...    2.4414e-06  Tolerance :   1.0000e-05

             **** THE GBW FILE WAS UPDATED (12h2o.su.etal.mol0,2,3,5,9,11-orca.engrad-mp2.def2tzvp.frozencore.gbw) ****
             **** DENSITY FILE WAS UPDATED (12h2o.su.etal.mol0,2,3,5,9,11-orca.engrad-mp2.def2tzvp.frozencore.scfp) ****
             **** ENERGY FILE WAS UPDATED (12h2o.su.etal.mol0,2,3,5,9,11-orca.engrad-mp2.def2tzvp.frozencore.en.tmp) ****
             **** THE GBW FILE WAS UPDATED (12h2o.su.etal.mol0,2,3,5,9,11-orca.engrad-mp2.def2tzvp.frozencore.gbw) ****
             **** DENSITY FILE WAS UPDATED (12h2o.su.etal.mol0,2,3,5,9,11-orca.engrad-mp2.def2tzvp.frozencore.scfp) ****
----------------
ORBITAL ENERGIES
----------------

  NO   OCC          E(Eh)            E(eV) 
   0   2.0000     -20.624332      -561.2166 
   1   2.0000     -20.599001      -560.5273 
   2   2.0000     -20.561547      -559.5081 
   3   2.0000     -20.544524      -559.0449 
   4   2.0000     -20.542176      -558.9810 
   5   2.0000     -20.496191      -557.7297 
   6   2.0000      -1.404468       -38.2175 
   7   2.0000      -1.384753       -37.6811 
   8   2.0000      -1.342925       -36.5428 
   9   2.0000      -1.328610       -36.1533 
  10   2.0000      -1.324695       -36.0468 
  11   2.0000      -1.281301       -34.8660 
  12   2.0000      -0.770141       -20.9566 
  13   2.0000      -0.741343       -20.1730 
  14   2.0000      -0.714006       -19.4291 
  15   2.0000      -0.713202       -19.4072 
  16   2.0000      -0.696255       -18.9461 
  17   2.0000      -0.658627       -17.9221 
  18   2.0000      -0.640579       -17.4310 
  19   2.0000      -0.623617       -16.9695 
  20   2.0000      -0.596217       -16.2239 
  21   2.0000      -0.578619       -15.7450 
  22   2.0000      -0.566964       -15.4279 
  23   2.0000      -0.548799       -14.9336 
  24   2.0000      -0.531862       -14.4727 
  25   2.0000      -0.520943       -14.1756 
  26   2.0000      -0.505176       -13.7465 
  27   2.0000      -0.489717       -13.3259 
  28   2.0000      -0.488376       -13.2894 
  29   2.0000      -0.446516       -12.1503 
  30   0.0000       0.083318         2.2672 
  31   0.0000       0.108552         2.9539 
  32   0.0000       0.151839         4.1317 
  33   0.0000       0.160130         4.3574 
  34   0.0000       0.168593         4.5877 
  35   0.0000       0.188454         5.1281 
  36   0.0000       0.191357         5.2071 
  37   0.0000       0.247123         6.7246 
  38   0.0000       0.272133         7.4051 
  39   0.0000       0.280167         7.6237 
  40   0.0000       0.324809         8.8385 
  41   0.0000       0.341962         9.3053 
  42   0.0000       0.446150        12.1404 
  43   0.0000       0.464781        12.6473 
  44   0.0000       0.478704        13.0262 
  45   0.0000       0.480926        13.0867 
  46   0.0000       0.523478        14.2446 
  47   0.0000       0.525937        14.3115 
  48   0.0000       0.531712        14.4686 
  49   0.0000       0.568229        15.4623 
  50   0.0000       0.571288        15.5455 
  51   0.0000       0.583251        15.8711 
  52   0.0000       0.589107        16.0304 
  53   0.0000       0.602782        16.4025 
  54   0.0000       0.612467        16.6661 
  55   0.0000       0.620253        16.8779 
  56   0.0000       0.634950        17.2779 
  57   0.0000       0.645254        17.5583 
  58   0.0000       0.654414        17.8075 
  59   0.0000       0.672893        18.3103 
  60   0.0000       0.689091        18.7511 
  61   0.0000       0.701808        19.0972 
  62   0.0000       0.707890        19.2627 
  63   0.0000       0.718893        19.5621 
  64   0.0000       0.724705        19.7202 
  65   0.0000       0.747397        20.3377 
  66   0.0000       0.780843        21.2478 
  67   0.0000       0.792321        21.5601 
  68   0.0000       0.798975        21.7412 
  69   0.0000       0.809366        22.0240 
  70   0.0000       0.848280        23.0829 
  71   0.0000       0.913453        24.8563 
  72   0.0000       0.925102        25.1733 
  73   0.0000       0.942930        25.6584 
  74   0.0000       0.969353        26.3774 
  75   0.0000       0.979654        26.6577 
  76   0.0000       1.032298        28.0903 
  77   0.0000       1.059662        28.8349 
  78   0.0000       1.345603        36.6157 
  79   0.0000       1.357798        36.9476 
  80   0.0000       1.373572        37.3768 
  81   0.0000       1.380779        37.5729 
  82   0.0000       1.410184        38.3730 
  83   0.0000       1.420074        38.6422 
  84   0.0000       1.450974        39.4830 
  85   0.0000       1.463761        39.8310 
  86   0.0000       1.469317        39.9821 
  87   0.0000       1.479243        40.2522 
  88   0.0000       1.485556        40.4240 
  89   0.0000       1.536263        41.8038 
  90   0.0000       1.547720        42.1156 
  91   0.0000       1.580182        42.9989 
  92   0.0000       1.593783        43.3690 
  93   0.0000       1.600994        43.5653 
  94   0.0000       1.613292        43.8999 
  95   0.0000       1.668929        45.4139 
  96   0.0000       1.785000        48.5723 
  97   0.0000       1.791366        48.7455 
  98   0.0000       1.815572        49.4042 
  99   0.0000       1.825691        49.6796 
 100   0.0000       1.854528        50.4643 
 101   0.0000       1.880632        51.1746 
 102   0.0000       1.904436        51.8223 
 103   0.0000       1.940045        52.7913 
 104   0.0000       1.963244        53.4226 
 105   0.0000       1.991135        54.1815 
 106   0.0000       1.991947        54.2036 
 107   0.0000       2.026110        55.1333 
 108   0.0000       2.035678        55.3936 
 109   0.0000       2.067681        56.2645 
 110   0.0000       2.082894        56.6784 
 111   0.0000       2.098873        57.1132 
 112   0.0000       2.148356        58.4597 
 113   0.0000       2.189562        59.5810 
 114   0.0000       2.236408        60.8558 
 115   0.0000       2.259159        61.4748 
 116   0.0000       2.284388        62.1614 
 117   0.0000       2.309506        62.8448 
 118   0.0000       2.317335        63.0579 
 119   0.0000       2.327167        63.3254 
 120   0.0000       2.338700        63.6393 
 121   0.0000       2.342210        63.7348 
 122   0.0000       2.359990        64.2186 
 123   0.0000       2.370019        64.4915 
 124   0.0000       2.379727        64.7557 
 125   0.0000       2.410082        65.5817 
 126   0.0000       2.423341        65.9425 
 127   0.0000       2.469789        67.2064 
 128   0.0000       2.492103        67.8136 
 129   0.0000       2.493474        67.8509 
 130   0.0000       2.506689        68.2105 
 131   0.0000       2.545808        69.2750 
 132   0.0000       2.568681        69.8974 
 133   0.0000       2.603104        70.8341 
 134   0.0000       2.611668        71.0671 
 135   0.0000       2.614684        71.1492 
 136   0.0000       2.643963        71.9459 
 137   0.0000       2.651972        72.1638 
 138   0.0000       2.677719        72.8644 
 139   0.0000       2.687981        73.1437 
 140   0.0000       2.702349        73.5347 
 141   0.0000       2.744459        74.6805 
 142   0.0000       2.752191        74.8909 
 143   0.0000       2.796649        76.1007 
 144   0.0000       2.873514        78.1923 
 145   0.0000       2.896466        78.8168 
 146   0.0000       2.921642        79.5019 
 147   0.0000       2.942533        80.0704 
 148   0.0000       2.950005        80.2737 
 149   0.0000       2.961269        80.5802 
 150   0.0000       2.979704        81.0819 
 151   0.0000       2.995694        81.5170 
 152   0.0000       3.012125        81.9641 
 153   0.0000       3.031350        82.4872 
 154   0.0000       3.041905        82.7745 
 155   0.0000       3.069832        83.5344 
 156   0.0000       3.096334        84.2555 
 157   0.0000       3.119973        84.8988 
 158   0.0000       3.142690        85.5170 
 159   0.0000       3.145198        85.5852 
 160   0.0000       3.188919        86.7749 
 161   0.0000       3.204108        87.1882 
 162   0.0000       3.244266        88.2810 
 163   0.0000       3.276947        89.1703 
 164   0.0000       3.300440        89.8095 
 165   0.0000       3.342084        90.9427 
 166   0.0000       3.378750        91.9405 
 167   0.0000       3.501206        95.2727 
 168   0.0000       3.959668       107.7480 
 169   0.0000       3.998511       108.8050 
 170   0.0000       4.031667       109.7072 
 171   0.0000       4.074757       110.8798 
 172   0.0000       4.102810       111.6431 
 173   0.0000       4.124800       112.2415 
 174   0.0000       4.256397       115.8225 
 175   0.0000       4.273807       116.2962 
 176   0.0000       4.313717       117.3822 
 177   0.0000       4.332788       117.9012 
 178   0.0000       4.372283       118.9759 
 179   0.0000       4.388490       119.4169 
 180   0.0000       5.489965       149.3895 
 181   0.0000       5.509201       149.9130 
 182   0.0000       5.549784       151.0173 
 183   0.0000       5.558992       151.2679 
 184   0.0000       5.564438       151.4161 
 185   0.0000       5.584027       151.9491 
 186   0.0000       5.606548       152.5619 
 187   0.0000       5.647566       153.6781 
 188   0.0000       5.658496       153.9755 
 189   0.0000       5.664430       154.1370 
 190   0.0000       5.670483       154.3017 
 191   0.0000       5.713618       155.4754 
 192   0.0000       5.751795       156.5143 
 193   0.0000       5.794479       157.6758 
 194   0.0000       5.795127       157.6934 
 195   0.0000       5.799425       157.8104 
 196   0.0000       5.819562       158.3583 
 197   0.0000       5.841899       158.9662 
 198   0.0000       5.845776       159.0717 
 199   0.0000       5.855629       159.3398 
 200   0.0000       5.858279       159.4119 
 201   0.0000       5.863011       159.5406 
 202   0.0000       5.866427       159.6336 
 203   0.0000       5.885595       160.1552 
 204   0.0000       5.893796       160.3784 
 205   0.0000       5.901923       160.5995 
 206   0.0000       5.914598       160.9444 
 207   0.0000       5.934494       161.4858 
 208   0.0000       5.945598       161.7879 
 209   0.0000       5.962902       162.2588 
 210   0.0000       6.370300       173.3447 
 211   0.0000       6.451131       175.5442 
 212   0.0000       6.467432       175.9878 
 213   0.0000       6.480793       176.3513 
 214   0.0000       6.499282       176.8545 
 215   0.0000       6.550157       178.2388 
 216   0.0000       6.643473       180.7781 
 217   0.0000       6.672916       181.5793 
 218   0.0000       6.680407       181.7831 
 219   0.0000       6.724671       182.9876 
 220   0.0000       6.736975       183.3224 
 221   0.0000       6.750044       183.6780 
 222   0.0000       6.824215       185.6963 
 223   0.0000       6.833349       185.9449 
 224   0.0000       6.849321       186.3795 
 225   0.0000       6.852347       186.4618 
 226   0.0000       6.861610       186.7139 
 227   0.0000       6.886548       187.3925 
 228   0.0000       6.891538       187.5283 
 229   0.0000       6.897042       187.6780 
 230   0.0000       6.906393       187.9325 
 231   0.0000       6.925193       188.4441 
 232   0.0000       6.927186       188.4983 
 233   0.0000       6.956142       189.2863 
 234   0.0000       6.961204       189.4240 
 235   0.0000       6.973523       189.7592 
 236   0.0000       6.996775       190.3919 
 237   0.0000       7.013306       190.8417 
 238   0.0000       7.027013       191.2147 
 239   0.0000       7.058536       192.0725 
 240   0.0000       7.318166       199.1374 
 241   0.0000       7.370989       200.5748 
 242   0.0000       7.392649       201.1642 
 243   0.0000       7.413171       201.7226 
 244   0.0000       7.441112       202.4830 
 245   0.0000       7.448588       202.6864 
 246   0.0000       7.472557       203.3386 
 247   0.0000       7.493910       203.9197 
 248   0.0000       7.555401       205.5929 
 249   0.0000       7.562963       205.7987 
 250   0.0000       7.585178       206.4032 
 251   0.0000       7.640443       207.9070 
 252   0.0000      44.873895      1221.0808 
 253   0.0000      44.896680      1221.7008 
 254   0.0000      44.923443      1222.4290 
 255   0.0000      44.966077      1223.5892 
 256   0.0000      44.984379      1224.0872 
 257   0.0000      45.025390      1225.2032 

                    ********************************
                    * MULLIKEN POPULATION ANALYSIS *
                    ********************************

-----------------------
MULLIKEN ATOMIC CHARGES
-----------------------
   0 O :   -0.770014
   1 H :    0.348364
   2 H :    0.402713
   3 O :   -0.740202
   4 H :    0.377735
   5 H :    0.378079
   6 O :   -0.726132
   7 H :    0.343909
   8 H :    0.372559
   9 O :   -0.734672
  10 H :    0.344875
  11 H :    0.386702
  12 O :   -0.766069
  13 H :    0.381272
  14 H :    0.366359
  15 O :   -0.714712
  16 H :    0.365412
  17 H :    0.383823
Sum of atomic charges:    0.0000000

--------------------------------
MULLIKEN REDUCED ORBITAL CHARGES
--------------------------------
  0 O s       :     3.807025  s :     3.807025
      pz      :     1.729730  p :     4.938495
      px      :     1.423659
      py      :     1.785105
      dz2     :     0.003972  d :     0.023063
      dxz     :     0.004738
      dyz     :     0.005295
      dx2y2   :     0.002327
      dxy     :     0.006731
      f0      :     0.000089  f :     0.001431
      f+1     :     0.000332
      f-1     :     0.000177
      f+2     :     0.000062
      f-2     :     0.000356
      f+3     :     0.000083
      f-3     :     0.000333
  1 H s       :     0.605900  s :     0.605900
      pz      :     0.017062  p :     0.045736
      px      :     0.013749
      py      :     0.014926
  2 H s       :     0.541168  s :     0.541168
      pz      :     0.010663  p :     0.056119
      px      :     0.032171
      py      :     0.013285
  3 O s       :     3.807874  s :     3.807874
      pz      :     1.733561  p :     4.906789
      px      :     1.794403
      py      :     1.378825
      dz2     :     0.004027  d :     0.024062
      dxz     :     0.005486
      dyz     :     0.004477
      dx2y2   :     0.002565
      dxy     :     0.007508
      f0      :     0.000085  f :     0.001477
      f+1     :     0.000179
      f-1     :     0.000335
      f+2     :     0.000063
      f-2     :     0.000348
      f+3     :     0.000374
      f-3     :     0.000093
  4 H s       :     0.577383  s :     0.577383
      pz      :     0.016965  p :     0.044882
      px      :     0.014584
      py      :     0.013333
  5 H s       :     0.581246  s :     0.581246
      pz      :     0.010552  p :     0.040674
      px      :     0.012160
      py      :     0.017962
  6 O s       :     3.809269  s :     3.809269
      pz      :     1.499450  p :     4.889864
      px      :     1.568500
      py      :     1.821913
      dz2     :     0.011984  d :     0.025505
      dxz     :     0.001238
      dyz     :     0.002972
      dx2y2   :     0.002100
      dxy     :     0.007212
      f0      :     0.000272  f :     0.001494
      f+1     :     0.000381
      f-1     :     0.000170
      f+2     :     0.000057
      f-2     :     0.000056
      f+3     :     0.000066
      f-3     :     0.000492
  7 H s       :     0.611390  s :     0.611390
      pz      :     0.018826  p :     0.044701
      px      :     0.012205
      py      :     0.013671
  8 H s       :     0.577163  s :     0.577163
      pz      :     0.010105  p :     0.050278
      px      :     0.023582
      py      :     0.016591
  9 O s       :     3.810002  s :     3.810002
      pz      :     1.584472  p :     4.898954
      px      :     1.875398
      py      :     1.439083
      dz2     :     0.010435  d :     0.024243
      dxz     :     0.002527
      dyz     :     0.002613
      dx2y2   :     0.003168
      dxy     :     0.005500
      f0      :     0.000182  f :     0.001473
      f+1     :     0.000125
      f-1     :     0.000431
      f+2     :     0.000079
      f-2     :     0.000037
      f+3     :     0.000490
      f-3     :     0.000129
 10 H s       :     0.611809  s :     0.611809
      pz      :     0.009863  p :     0.043316
      px      :     0.015258
      py      :     0.018196
 11 H s       :     0.564054  s :     0.564054
      pz      :     0.024336  p :     0.049244
      px      :     0.013513
      py      :     0.011394
 12 O s       :     3.805263  s :     3.805263
      pz      :     1.549431  p :     4.934944
      px      :     1.820974
      py      :     1.564539
      dz2     :     0.011319  d :     0.024427
      dxz     :     0.002828
      dyz     :     0.001204
      dx2y2   :     0.002015
      dxy     :     0.007061
      f0      :     0.000252  f :     0.001435
      f+1     :     0.000160
      f-1     :     0.000371
      f+2     :     0.000056
      f-2     :     0.000054
      f+3     :     0.000479
      f-3     :     0.000063
 13 H s       :     0.570304  s :     0.570304
      pz      :     0.024051  p :     0.048424
      px      :     0.012885
      py      :     0.011488
 14 H s       :     0.582992  s :     0.582992
      pz      :     0.010226  p :     0.050649
      px      :     0.016683
      py      :     0.023740
 15 O s       :     3.800394  s :     3.800394
      pz      :     1.524228  p :     4.886969
      px      :     1.793241
      py      :     1.569500
      dz2     :     0.012576  d :     0.025900
      dxz     :     0.002478
      dyz     :     0.001256
      dx2y2   :     0.002437
      dxy     :     0.007153
      f0      :     0.000251  f :     0.001450
      f+1     :     0.000163
      f-1     :     0.000395
      f+2     :     0.000051
      f-2     :     0.000057
      f+3     :     0.000481
      f-3     :     0.000052
 16 H s       :     0.590917  s :     0.590917
      pz      :     0.019437  p :     0.043671
      px      :     0.012562
      py      :     0.011672
 17 H s       :     0.573185  s :     0.573185
      pz      :     0.009965  p :     0.042992
      px      :     0.014326
      py      :     0.018701


                     *******************************
                     * LOEWDIN POPULATION ANALYSIS *
                     *******************************

----------------------
LOEWDIN ATOMIC CHARGES
----------------------
   0 O :   -0.347775
   1 H :    0.154328
   2 H :    0.154345
   3 O :   -0.296103
   4 H :    0.169439
   5 H :    0.191807
   6 O :   -0.347409
   7 H :    0.162481
   8 H :    0.151269
   9 O :   -0.329703
  10 H :    0.168954
  11 H :    0.155664
  12 O :   -0.364202
  13 H :    0.153402
  14 H :    0.146683
  15 O :   -0.279428
  16 H :    0.173981
  17 H :    0.182268

-------------------------------
LOEWDIN REDUCED ORBITAL CHARGES
-------------------------------
  0 O s       :     3.461502  s :     3.461502
      pz      :     1.709635  p :     4.855049
      px      :     1.397790
      py      :     1.747624
      dz2     :     0.004370  d :     0.029241
      dxz     :     0.006955
      dyz     :     0.005423
      dx2y2   :     0.003730
      dxy     :     0.008764
      f0      :     0.000074  f :     0.001984
      f+1     :     0.000441
      f-1     :     0.000265
      f+2     :     0.000032
      f-2     :     0.000620
      f+3     :     0.000083
      f-3     :     0.000469
  1 H s       :     0.680773  s :     0.680773
      pz      :     0.065798  p :     0.164900
      px      :     0.045871
      py      :     0.053230
  2 H s       :     0.650790  s :     0.650790
      pz      :     0.033496  p :     0.194865
      px      :     0.113829
      py      :     0.047540
  3 O s       :     3.462936  s :     3.462936
      pz      :     1.688243  p :     4.799485
      px      :     1.747875
      py      :     1.363367
      dz2     :     0.005512  d :     0.031612
      dxz     :     0.005324
      dyz     :     0.006602
      dx2y2   :     0.004288
      dxy     :     0.009885
      f0      :     0.000091  f :     0.002070
      f+1     :     0.000270
      f-1     :     0.000450
      f+2     :     0.000033
      f-2     :     0.000594
      f+3     :     0.000541
      f-3     :     0.000091
  4 H s       :     0.666372  s :     0.666372
      pz      :     0.066807  p :     0.164189
      px      :     0.052756
      py      :     0.044626
  5 H s       :     0.659374  s :     0.659374
      pz      :     0.033401  p :     0.148818
      px      :     0.043521
      py      :     0.071897
  6 O s       :     3.466942  s :     3.466942
      pz      :     1.507701  p :     4.846436
      px      :     1.544792
      py      :     1.793943
      dz2     :     0.016250  d :     0.031894
      dxz     :     0.002123
      dyz     :     0.002426
      dx2y2   :     0.002118
      dxy     :     0.008976
      f0      :     0.000495  f :     0.002137
      f+1     :     0.000582
      f-1     :     0.000319
      f+2     :     0.000026
      f-2     :     0.000049
      f+3     :     0.000002
      f-3     :     0.000663
  7 H s       :     0.679341  s :     0.679341
      pz      :     0.079749  p :     0.158178
      px      :     0.036176
      py      :     0.042253
  8 H s       :     0.676672  s :     0.676672
      pz      :     0.029847  p :     0.172059
      px      :     0.084372
      py      :     0.057841
  9 O s       :     3.465655  s :     3.465655
      pz      :     1.552396  p :     4.830152
      px      :     1.834418
      py      :     1.443338
      dz2     :     0.014713  d :     0.031819
      dxz     :     0.001662
      dyz     :     0.003866
      dx2y2   :     0.004469
      dxy     :     0.007108
      f0      :     0.000359  f :     0.002077
      f+1     :     0.000195
      f-1     :     0.000713
      f+2     :     0.000044
      f-2     :     0.000041
      f+3     :     0.000648
      f-3     :     0.000076
 10 H s       :     0.677325  s :     0.677325
      pz      :     0.030581  p :     0.153721
      px      :     0.049250
      py      :     0.073891
 11 H s       :     0.673244  s :     0.673244
      pz      :     0.092671  p :     0.171092
      px      :     0.042900
      py      :     0.035521
 12 O s       :     3.460287  s :     3.460287
      pz      :     1.533802  p :     4.872183
      px      :     1.792863
      py      :     1.545518
      dz2     :     0.014711  d :     0.029715
      dxz     :     0.002197
      dyz     :     0.001921
      dx2y2   :     0.002078
      dxy     :     0.008809
      f0      :     0.000445  f :     0.002017
      f+1     :     0.000305
      f-1     :     0.000543
      f+2     :     0.000023
      f-2     :     0.000047
      f+3     :     0.000652
      f-3     :     0.000002
 13 H s       :     0.675788  s :     0.675788
      pz      :     0.091859  p :     0.170810
      px      :     0.042131
      py      :     0.036820
 14 H s       :     0.678730  s :     0.678730
      pz      :     0.031153  p :     0.174587
      px      :     0.058083
      py      :     0.085352
 15 O s       :     3.458578  s :     3.458578
      pz      :     1.517328  p :     4.785455
      px      :     1.729692
      py      :     1.538435
      dz2     :     0.016726  d :     0.033214
      dxz     :     0.001990
      dyz     :     0.002028
      dx2y2   :     0.003563
      dxy     :     0.008907
      f0      :     0.000459  f :     0.002181
      f+1     :     0.000346
      f-1     :     0.000587
      f+2     :     0.000022
      f-2     :     0.000049
      f+3     :     0.000692
      f-3     :     0.000027
 16 H s       :     0.667481  s :     0.667481
      pz      :     0.081175  p :     0.158537
      px      :     0.041643
      py      :     0.035719
 17 H s       :     0.659527  s :     0.659527
      pz      :     0.029487  p :     0.158205
      px      :     0.054947
      py      :     0.073771


                      *****************************
                      * MAYER POPULATION ANALYSIS *
                      *****************************

  NA   - Mulliken gross atomic population
  ZA   - Total nuclear charge
  QA   - Mulliken gross atomic charge
  VA   - Mayer's total valence
  BVA  - Mayer's bonded valence
  FA   - Mayer's free valence

  ATOM       NA         ZA         QA         VA         BVA        FA
  0 O      8.7700     8.0000    -0.7700     1.6961     1.6961    -0.0000
  1 H      0.6516     1.0000     0.3484     0.8953     0.8953     0.0000
  2 H      0.5973     1.0000     0.4027     0.8702     0.8702    -0.0000
  3 O      8.7402     8.0000    -0.7402     1.7572     1.7572     0.0000
  4 H      0.6223     1.0000     0.3777     0.8731     0.8731    -0.0000
  5 H      0.6219     1.0000     0.3781     0.8717     0.8717     0.0000
  6 O      8.7261     8.0000    -0.7261     1.7507     1.7507     0.0000
  7 H      0.6561     1.0000     0.3439     0.8968     0.8968     0.0000
  8 H      0.6274     1.0000     0.3726     0.8883     0.8883     0.0000
  9 O      8.7347     8.0000    -0.7347     1.7487     1.7487    -0.0000
 10 H      0.6551     1.0000     0.3449     0.8984     0.8984    -0.0000
 11 H      0.6133     1.0000     0.3867     0.8768     0.8768    -0.0000
 12 O      8.7661     8.0000    -0.7661     1.7160     1.7160    -0.0000
 13 H      0.6187     1.0000     0.3813     0.8786     0.8786    -0.0000
 14 H      0.6336     1.0000     0.3664     0.9005     0.9005     0.0000
 15 O      8.7147     8.0000    -0.7147     1.7701     1.7701    -0.0000
 16 H      0.6346     1.0000     0.3654     0.8797     0.8797     0.0000
 17 H      0.6162     1.0000     0.3838     0.8710     0.8710    -0.0000

  Mayer bond orders larger than 0.100000
B(  0-O ,  1-H ) :   0.8870 B(  0-O ,  2-H ) :   0.8022 B(  3-O ,  4-H ) :   0.8641 
B(  3-O ,  5-H ) :   0.8598 B(  6-O ,  7-H ) :   0.8913 B(  6-O ,  8-H ) :   0.8614 
B(  9-O , 10-H ) :   0.8854 B(  9-O , 11-H ) :   0.8479 B( 12-O , 13-H ) :   0.8582 
B( 12-O , 14-H ) :   0.8570 B( 15-O , 16-H ) :   0.8743 B( 15-O , 17-H ) :   0.8575 


-------
TIMINGS
-------

Total SCF time: 0 days 0 hours 0 min 14 sec 

Total time                  ....      14.685 sec
Sum of individual times     ....      14.044 sec  ( 95.6%)

Fock matrix formation       ....      12.863 sec  ( 87.6%)
Diagonalization             ....       0.290 sec  (  2.0%)
Density matrix formation    ....       0.068 sec  (  0.5%)
Population analysis         ....       0.115 sec  (  0.8%)
Initial guess               ....       0.263 sec  (  1.8%)
Orbital Transformation      ....       0.000 sec  (  0.0%)
Orbital Orthonormalization  ....       0.000 sec  (  0.0%)
DIIS solution               ....       0.130 sec  (  0.9%)
SOSCF solution              ....       0.211 sec  (  1.4%)


           ************************************************************
           *        Program running with 6 parallel MPI-processes     *
           *              working on a common directory               *
           ************************************************************

------------------------------------------------------------------------------
                                ORCA  MP2 
------------------------------------------------------------------------------

Freezing NCore=12 chemical core electrons
MP2 will be done in the AO integral direct mode
The Q1-step will be done using symmetric double matrices
Dimension of the basis                    ...  258
Memory devoted for MP2                    ... 8000 MB   
Memory needed for all in one shot         ...  264 MB
Number of MOs that can be treated together...  120      
MP2 density construction                  ... relaxed
The MP2 gradient is requested => amplitudes will be stored on disk
Total number of MOs              ...   24
Number of MOs treated per batch  ...    4 
Number of batches necessary      ...    1 
OPERATORS   0/  0 PASS   0
-----------------------------------------------
 MP2 CORRELATION ENERGY   :     -1.547169129 Eh
-----------------------------------------------


---------------------
MP2 DENSITY FORMATION
---------------------

Completing the external part of the density      ... done
Storing the unrelaxed density                    ... done

Calculating G(D)                                 ... done
Completing the Lagrangian                        ... done
Solving the Z-vector equations                   ... 

------------------------------------------------------------------------------
                           ORCA CP-SCF CALCULATION
------------------------------------------------------------------------------

Input orbitals are from        ... 12h2o.su.etal.mol0,2,3,5,9,11-orca.engrad-mp2.def2tzvp.frozencore.gbw
Input Perturbation             ... 12h2o.su.etal.mol0,2,3,5,9,11-orca.engrad-mp2.def2tzvp.frozencore.pin.tmp
Wavefunction output            ... 12h2o.su.etal.mol0,2,3,5,9,11-orca.engrad-mp2.def2tzvp.frozencore.pout.tmp
Perturbation mode              ... Real perturbation (singlet)
Solver                         ... POPLE
Max. number of iterations      ... 128
Convergence tolerance          ... 1.000e-08
Integral handling              ... Direct
Number of perturbations        ... 1
Number of operators            ... 1
Orbital ranges used for CP-SCF:
 Operator 0:  Orbitals   0... 29  to  30...257
Variables per vector in CP-SCF ... 6840
Number of vectors sought       ... 1
     CP-SCF ITERATION   0: 
     CP-SCF ITERATION   1:      0.000722923432
     CP-SCF ITERATION   2:      0.000016825038
     CP-SCF ITERATION   3:      0.000000449872
     CP-SCF ITERATION   4:      0.000000050658
     CP-SCF ITERATION   5:      0.000000005017
                                                 ... done
Finalizing the relaxed density                   ... done
Transforming P to the AO basis                   ... done
Storing the relaxed density                      ... done

------------------------------------
ENERGY WEIGHTED DENSITY FINALIZATION
------------------------------------

Gathering the parts of the W-matrix              ...                                                      done
Forming the Z-density                            ... done
Transforming Z to the AO basis                   ... done
Calculating G(Z)                                 ... done
Finalizing the W-matrix                          ...                                                      done
Transforming W to the AO basis and storing       ... done

                *********************************************
                * UNRELAXED MP2 DENSITY POPULATION ANALYSIS *
                *********************************************

------------------------------------------------------------------------------
                           ORCA POPULATION ANALYSIS
------------------------------------------------------------------------------
Input electron density              ... 12h2o.su.etal.mol0,2,3,5,9,11-orca.engrad-mp2.def2tzvp.frozencore.pmp2ur
BaseName (.gbw .S,...)              ... 12h2o.su.etal.mol0,2,3,5,9,11-orca.engrad-mp2.def2tzvp.frozencore

                    ********************************
                    * MULLIKEN POPULATION ANALYSIS *
                    ********************************

-----------------------
MULLIKEN ATOMIC CHARGES
-----------------------
   0 O :   -0.763945
   1 H :    0.346065
   2 H :    0.398233
   3 O :   -0.734555
   4 H :    0.375503
   5 H :    0.375232
   6 O :   -0.720989
   7 H :    0.341478
   8 H :    0.369461
   9 O :   -0.729185
  10 H :    0.342109
  11 H :    0.383870
  12 O :   -0.760264
  13 H :    0.378370
  14 H :    0.362867
  15 O :   -0.708535
  16 H :    0.363048
  17 H :    0.381236
Sum of atomic charges:    0.0000000

--------------------------------
MULLIKEN REDUCED ORBITAL CHARGES
--------------------------------
  0 O s       :     3.802068  s :     3.802068
      pz      :     1.719111  p :     4.907346
      px      :     1.415045
      py      :     1.773190
      dz2     :     0.009481  d :     0.050518
      dxz     :     0.010142
      dyz     :     0.010743
      dx2y2   :     0.007955
      dxy     :     0.012196
      f0      :     0.000458  f :     0.004013
      f+1     :     0.000697
      f-1     :     0.000542
      f+2     :     0.000433
      f-2     :     0.000722
      f+3     :     0.000459
      f-3     :     0.000701
  1 H s       :     0.606544  s :     0.606544
      pz      :     0.017547  p :     0.047390
      px      :     0.014195
      py      :     0.015648
  2 H s       :     0.543993  s :     0.543993
      pz      :     0.011488  p :     0.057775
      px      :     0.032280
      py      :     0.014007
  3 O s       :     3.803023  s :     3.803023
      pz      :     1.722534  p :     4.876198
      px      :     1.782633
      py      :     1.371031
      dz2     :     0.009579  d :     0.051289
      dxz     :     0.010978
      dyz     :     0.009874
      dx2y2   :     0.008038
      dxy     :     0.012821
      f0      :     0.000458  f :     0.004045
      f+1     :     0.000547
      f-1     :     0.000697
      f+2     :     0.000432
      f-2     :     0.000713
      f+3     :     0.000734
      f-3     :     0.000465
  4 H s       :     0.578113  s :     0.578113
      pz      :     0.017418  p :     0.046383
      px      :     0.015264
      py      :     0.013702
  5 H s       :     0.582587  s :     0.582587
      pz      :     0.011373  p :     0.042182
      px      :     0.012907
      py      :     0.017902
  6 O s       :     3.804435  s :     3.804435
      pz      :     1.490567  p :     4.860370
      px      :     1.559302
      py      :     1.810501
      dz2     :     0.016998  d :     0.052130
      dxz     :     0.006621
      dyz     :     0.008397
      dx2y2   :     0.007635
      dxy     :     0.012479
      f0      :     0.000647  f :     0.004054
      f+1     :     0.000746
      f-1     :     0.000540
      f+2     :     0.000416
      f-2     :     0.000421
      f+3     :     0.000436
      f-3     :     0.000848
  7 H s       :     0.612147  s :     0.612147
      pz      :     0.018915  p :     0.046375
      px      :     0.012921
      py      :     0.014539
  8 H s       :     0.578640  s :     0.578640
      pz      :     0.010892  p :     0.051900
      px      :     0.023794
      py      :     0.017214
  9 O s       :     3.805142  s :     3.805142
      pz      :     1.574594  p :     4.868680
      px      :     1.863598
      py      :     1.430488
      dz2     :     0.015784  d :     0.051324
      dxz     :     0.008130
      dyz     :     0.007999
      dx2y2   :     0.008573
      dxy     :     0.010837
      f0      :     0.000568  f :     0.004039
      f+1     :     0.000499
      f-1     :     0.000799
      f+2     :     0.000441
      f-2     :     0.000402
      f+3     :     0.000839
      f-3     :     0.000491
 10 H s       :     0.612929  s :     0.612929
      pz      :     0.010700  p :     0.044962
      px      :     0.016031
      py      :     0.018231
 11 H s       :     0.565357  s :     0.565357
      pz      :     0.024456  p :     0.050773
      px      :     0.014355
      py      :     0.011963
 12 O s       :     3.800442  s :     3.800442
      pz      :     1.539990  p :     4.904359
      px      :     1.809359
      py      :     1.555010
      dz2     :     0.016505  d :     0.051452
      dxz     :     0.008331
      dyz     :     0.006666
      dx2y2   :     0.007585
      dxy     :     0.012365
      f0      :     0.000633  f :     0.004011
      f+1     :     0.000533
      f-1     :     0.000740
      f+2     :     0.000417
      f-2     :     0.000421
      f+3     :     0.000835
      f-3     :     0.000432
 13 H s       :     0.571627  s :     0.571627
      pz      :     0.024114  p :     0.050004
      px      :     0.013724
      py      :     0.012166
 14 H s       :     0.584859  s :     0.584859
      pz      :     0.011033  p :     0.052274
      px      :     0.017309
      py      :     0.023932
 15 O s       :     3.795231  s :     3.795231
      pz      :     1.515133  p :     4.856356
      px      :     1.780980
      py      :     1.560243
      dz2     :     0.017643  d :     0.052915
      dxz     :     0.008023
      dyz     :     0.006628
      dx2y2   :     0.008059
      dxy     :     0.012562
      f0      :     0.000630  f :     0.004033
      f+1     :     0.000538
      f-1     :     0.000760
      f+2     :     0.000413
      f-2     :     0.000423
      f+3     :     0.000841
      f-3     :     0.000428
 16 H s       :     0.591717  s :     0.591717
      pz      :     0.019518  p :     0.045235
      px      :     0.013380
      py      :     0.012338
 17 H s       :     0.574295  s :     0.574295
      pz      :     0.010702  p :     0.044469
      px      :     0.014932
      py      :     0.018835


                     *******************************
                     * LOEWDIN POPULATION ANALYSIS *
                     *******************************

----------------------
LOEWDIN ATOMIC CHARGES
----------------------
   0 O :   -0.344445
   1 H :    0.153035
   2 H :    0.151801
   3 O :   -0.291773
   4 H :    0.168302
   5 H :    0.190020
   6 O :   -0.344746
   7 H :    0.161051
   8 H :    0.149215
   9 O :   -0.326112
  10 H :    0.167154
  11 H :    0.153709
  12 O :   -0.361390
  13 H :    0.151515
  14 H :    0.144446
  15 O :   -0.275274
  16 H :    0.172643
  17 H :    0.180849

-------------------------------
LOEWDIN REDUCED ORBITAL CHARGES
-------------------------------
  0 O s       :     3.457843  s :     3.457843
      pz      :     1.699040  p :     4.824057
      px      :     1.389411
      py      :     1.735605
      dz2     :     0.009997  d :     0.057783
      dxz     :     0.012584
      dyz     :     0.011189
      dx2y2   :     0.009442
      dxy     :     0.014570
      f0      :     0.000453  f :     0.004763
      f+1     :     0.000854
      f-1     :     0.000651
      f+2     :     0.000410
      f-2     :     0.001030
      f+3     :     0.000474
      f-3     :     0.000891
  1 H s       :     0.678865  s :     0.678865
      pz      :     0.067048  p :     0.168099
      px      :     0.046813
      py      :     0.054238
  2 H s       :     0.650895  s :     0.650895
      pz      :     0.034324  p :     0.197304
      px      :     0.114564
      py      :     0.048415
  3 O s       :     3.459165  s :     3.459165
      pz      :     1.676795  p :     4.767858
      px      :     1.735860
      py      :     1.355203
      dz2     :     0.011195  d :     0.059917
      dxz     :     0.011100
      dyz     :     0.012205
      dx2y2   :     0.009861
      dxy     :     0.015556
      f0      :     0.000475  f :     0.004833
      f+1     :     0.000657
      f-1     :     0.000860
      f+2     :     0.000409
      f-2     :     0.001002
      f+3     :     0.000954
      f-3     :     0.000476
  4 H s       :     0.664632  s :     0.664632
      pz      :     0.067952  p :     0.167066
      px      :     0.053708
      py      :     0.045405
  5 H s       :     0.658153  s :     0.658153
      pz      :     0.034231  p :     0.151827
      px      :     0.044499
      py      :     0.073098
  6 O s       :     3.463224  s :     3.463224
      pz      :     1.498509  p :     4.817019
      px      :     1.535513
      py      :     1.782997
      dz2     :     0.021977  d :     0.059612
      dxz     :     0.007440
      dyz     :     0.007794
      dx2y2   :     0.007622
      dxy     :     0.014779
      f0      :     0.000911  f :     0.004890
      f+1     :     0.001001
      f-1     :     0.000712
      f+2     :     0.000389
      f-2     :     0.000421
      f+3     :     0.000377
      f-3     :     0.001078
  7 H s       :     0.677531  s :     0.677531
      pz      :     0.081385  p :     0.161418
      px      :     0.036956
      py      :     0.043077
  8 H s       :     0.675753  s :     0.675753
      pz      :     0.030607  p :     0.175032
      px      :     0.085613
      py      :     0.058813
  9 O s       :     3.461876  s :     3.461876
      pz      :     1.541969  p :     4.799359
      px      :     1.823027
      py      :     1.434363
      dz2     :     0.020654  d :     0.060037
      dxz     :     0.007198
      dyz     :     0.009308
      dx2y2   :     0.010095
      dxy     :     0.012783
      f0      :     0.000776  f :     0.004840
      f+1     :     0.000586
      f-1     :     0.001150
      f+2     :     0.000414
      f-2     :     0.000413
      f+3     :     0.001053
      f-3     :     0.000448
 10 H s       :     0.675810  s :     0.675810
      pz      :     0.031437  p :     0.157036
      px      :     0.050225
      py      :     0.075375
 11 H s       :     0.672324  s :     0.672324
      pz      :     0.094016  p :     0.173967
      px      :     0.043691
      py      :     0.036260
 12 O s       :     3.456655  s :     3.456655
      pz      :     1.524295  p :     4.842084
      px      :     1.781754
      py      :     1.536035
      dz2     :     0.020576  d :     0.057863
      dxz     :     0.007644
      dyz     :     0.007338
      dx2y2   :     0.007631
      dxy     :     0.014674
      f0      :     0.000866  f :     0.004788
      f+1     :     0.000701
      f-1     :     0.000967
      f+2     :     0.000388
      f-2     :     0.000421
      f+3     :     0.001068
      f-3     :     0.000376
 13 H s       :     0.674728  s :     0.674728
      pz      :     0.093223  p :     0.173757
      px      :     0.042938
      py      :     0.037596
 14 H s       :     0.677981  s :     0.677981
      pz      :     0.031935  p :     0.177573
      px      :     0.059048
      py      :     0.086590
 15 O s       :     3.454717  s :     3.454717
      pz      :     1.507971  p :     4.754372
      px      :     1.717360
      py      :     1.529040
      dz2     :     0.022487  d :     0.061227
      dxz     :     0.007462
      dyz     :     0.007342
      dx2y2   :     0.009155
      dxy     :     0.014781
      f0      :     0.000879  f :     0.004959
      f+1     :     0.000744
      f-1     :     0.001006
      f+2     :     0.000389
      f-2     :     0.000422
      f+3     :     0.001112
      f-3     :     0.000407
 16 H s       :     0.665782  s :     0.665782
      pz      :     0.082673  p :     0.161575
      px      :     0.042447
      py      :     0.036455
 17 H s       :     0.658105  s :     0.658105
      pz      :     0.030192  p :     0.161046
      px      :     0.055910
      py      :     0.074944


                      *****************************
                      * MAYER POPULATION ANALYSIS *
                      *****************************

  NA   - Mulliken gross atomic population
  ZA   - Total nuclear charge
  QA   - Mulliken gross atomic charge
  VA   - Mayer's total valence
  BVA  - Mayer's bonded valence
  FA   - Mayer's free valence

  ATOM       NA         ZA         QA         VA         BVA        FA
  0 O      8.7639     8.0000    -0.7639     2.0117     1.6181     0.3936
  1 H      0.6539     1.0000     0.3461     0.9011     0.8542     0.0469
  2 H      0.6018     1.0000     0.3982     0.8776     0.8321     0.0455
  3 O      8.7346     8.0000    -0.7346     2.0690     1.6774     0.3916
  4 H      0.6245     1.0000     0.3755     0.8785     0.8342     0.0442
  5 H      0.6248     1.0000     0.3752     0.8778     0.8305     0.0473
  6 O      8.7210     8.0000    -0.7210     2.0575     1.6705     0.3870
  7 H      0.6585     1.0000     0.3415     0.9029     0.8551     0.0477
  8 H      0.6305     1.0000     0.3695     0.8947     0.8493     0.0454
  9 O      8.7292     8.0000    -0.7292     2.0598     1.6679     0.3918
 10 H      0.6579     1.0000     0.3421     0.9049     0.8555     0.0494
 11 H      0.6161     1.0000     0.3839     0.8827     0.8385     0.0442
 12 O      8.7603     8.0000    -0.7603     2.0293     1.6382     0.3912
 13 H      0.6216     1.0000     0.3784     0.8846     0.8399     0.0447
 14 H      0.6371     1.0000     0.3629     0.9074     0.8608     0.0467
 15 O      8.7085     8.0000    -0.7085     2.0765     1.6907     0.3858
 16 H      0.6370     1.0000     0.3630     0.8854     0.8395     0.0458
 17 H      0.6188     1.0000     0.3812     0.8768     0.8320     0.0447

  Mayer bond orders larger than 0.100000
B(  0-O ,  1-H ) :   0.8466 B(  0-O ,  2-H ) :   0.7659 B(  3-O ,  4-H ) :   0.8260 
B(  3-O ,  5-H ) :   0.8192 B(  6-O ,  7-H ) :   0.8502 B(  6-O ,  8-H ) :   0.8230 
B(  9-O , 10-H ) :   0.8432 B(  9-O , 11-H ) :   0.8104 B( 12-O , 13-H ) :   0.8201 
B( 12-O , 14-H ) :   0.8185 B( 15-O , 16-H ) :   0.8345 B( 15-O , 17-H ) :   0.8193 



                *******************************************
                * RELAXED MP2 DENSITY POPULATION ANALYSIS *
                *******************************************

------------------------------------------------------------------------------
                           ORCA POPULATION ANALYSIS
------------------------------------------------------------------------------
Input electron density              ... 12h2o.su.etal.mol0,2,3,5,9,11-orca.engrad-mp2.def2tzvp.frozencore.pmp2re
BaseName (.gbw .S,...)              ... 12h2o.su.etal.mol0,2,3,5,9,11-orca.engrad-mp2.def2tzvp.frozencore

                    ********************************
                    * MULLIKEN POPULATION ANALYSIS *
                    ********************************

-----------------------
MULLIKEN ATOMIC CHARGES
-----------------------
   0 O :   -0.738903
   1 H :    0.339535
   2 H :    0.377185
   3 O :   -0.712806
   4 H :    0.368146
   5 H :    0.368236
   6 O :   -0.704462
   7 H :    0.334996
   8 H :    0.354542
   9 O :   -0.707930
  10 H :    0.334402
  11 H :    0.369016
  12 O :   -0.737630
  13 H :    0.365760
  14 H :    0.345332
  15 O :   -0.686091
  16 H :    0.357584
  17 H :    0.373087
Sum of atomic charges:    0.0000000

--------------------------------
MULLIKEN REDUCED ORBITAL CHARGES
--------------------------------
  0 O s       :     3.803825  s :     3.803825
      pz      :     1.713825  p :     4.882436
      px      :     1.409595
      py      :     1.759016
      dz2     :     0.009288  d :     0.048696
      dxz     :     0.009585
      dyz     :     0.010447
      dx2y2   :     0.007836
      dxy     :     0.011540
      f0      :     0.000456  f :     0.003946
      f+1     :     0.000681
      f-1     :     0.000534
      f+2     :     0.000432
      f-2     :     0.000703
      f+3     :     0.000457
      f-3     :     0.000683
  1 H s       :     0.612293  s :     0.612293
      pz      :     0.017632  p :     0.048172
      px      :     0.014203
      py      :     0.016337
  2 H s       :     0.564790  s :     0.564790
      pz      :     0.012223  p :     0.058025
      px      :     0.031290
      py      :     0.014512
  3 O s       :     3.806800  s :     3.806800
      pz      :     1.713531  p :     4.852884
      px      :     1.771486
      py      :     1.367866
      dz2     :     0.009354  d :     0.049151
      dxz     :     0.010723
      dyz     :     0.009293
      dx2y2   :     0.007792
      dxy     :     0.011989
      f0      :     0.000456  f :     0.003972
      f+1     :     0.000538
      f-1     :     0.000678
      f+2     :     0.000432
      f-2     :     0.000692
      f+3     :     0.000714
      f-3     :     0.000463
  4 H s       :     0.584805  s :     0.584805
      pz      :     0.017531  p :     0.047049
      px      :     0.015902
      py      :     0.013616
  5 H s       :     0.589034  s :     0.589034
      pz      :     0.012193  p :     0.042731
      px      :     0.013603
      py      :     0.016935
  6 O s       :     3.805760  s :     3.805760
      pz      :     1.483549  p :     4.844724
      px      :     1.557274
      py      :     1.803901
      dz2     :     0.015653  d :     0.049995
      dxz     :     0.006562
      dyz     :     0.008351
      dx2y2   :     0.007597
      dxy     :     0.011831
      f0      :     0.000629  f :     0.003982
      f+1     :     0.000724
      f-1     :     0.000530
      f+2     :     0.000416
      f-2     :     0.000420
      f+3     :     0.000437
      f-3     :     0.000826
  7 H s       :     0.617883  s :     0.617883
      pz      :     0.018161  p :     0.047121
      px      :     0.013490
      py      :     0.015469
  8 H s       :     0.592968  s :     0.592968
      pz      :     0.011563  p :     0.052490
      px      :     0.023267
      py      :     0.017660
  9 O s       :     3.807365  s :     3.807365
      pz      :     1.566360  p :     4.847478
      px      :     1.858778
      py      :     1.422340
      dz2     :     0.014702  d :     0.049118
      dxz     :     0.008164
      dyz     :     0.007722
      dx2y2   :     0.008256
      dxy     :     0.010275
      f0      :     0.000556  f :     0.003968
      f+1     :     0.000493
      f-1     :     0.000769
      f+2     :     0.000441
      f-2     :     0.000401
      f+3     :     0.000818
      f-3     :     0.000490
 10 H s       :     0.619809  s :     0.619809
      pz      :     0.011534  p :     0.045789
      px      :     0.016823
      py      :     0.017432
 11 H s       :     0.579605  s :     0.579605
      pz      :     0.023745  p :     0.051379
      px      :     0.015290
      py      :     0.012344
 12 O s       :     3.797969  s :     3.797969
      pz      :     1.535355  p :     4.886218
      px      :     1.801426
      py      :     1.549438
      dz2     :     0.015329  d :     0.049501
      dxz     :     0.008292
      dyz     :     0.006626
      dx2y2   :     0.007536
      dxy     :     0.011718
      f0      :     0.000617  f :     0.003941
      f+1     :     0.000523
      f-1     :     0.000719
      f+2     :     0.000417
      f-2     :     0.000420
      f+3     :     0.000813
      f-3     :     0.000433
 13 H s       :     0.583767  s :     0.583767
      pz      :     0.023278  p :     0.050473
      px      :     0.014566
      py      :     0.012629
 14 H s       :     0.601756  s :     0.601756
      pz      :     0.011727  p :     0.052911
      px      :     0.017824
      py      :     0.023360
 15 O s       :     3.797319  s :     3.797319
      pz      :     1.510525  p :     4.833990
      px      :     1.766256
      py      :     1.557209
      dz2     :     0.016316  d :     0.050826
      dxz     :     0.008005
      dyz     :     0.006569
      dx2y2   :     0.008021
      dxy     :     0.011915
      f0      :     0.000612  f :     0.003957
      f+1     :     0.000528
      f-1     :     0.000738
      f+2     :     0.000414
      f-2     :     0.000421
      f+3     :     0.000817
      f-3     :     0.000427
 16 H s       :     0.596592  s :     0.596592
      pz      :     0.018781  p :     0.045824
      px      :     0.014208
      py      :     0.012834
 17 H s       :     0.581932  s :     0.581932
      pz      :     0.011319  p :     0.044981
      px      :     0.015373
      py      :     0.018290


                     *******************************
                     * LOEWDIN POPULATION ANALYSIS *
                     *******************************

----------------------
LOEWDIN ATOMIC CHARGES
----------------------
   0 O :   -0.341629
   1 H :    0.154923
   2 H :    0.144604
   3 O :   -0.286437
   4 H :    0.169759
   5 H :    0.191044
   6 O :   -0.346680
   7 H :    0.162580
   8 H :    0.145085
   9 O :   -0.324498
  10 H :    0.168267
  11 H :    0.149894
  12 O :   -0.360986
  13 H :    0.148527
  14 H :    0.139888
  15 O :   -0.270288
  16 H :    0.174482
  17 H :    0.181467

-------------------------------
LOEWDIN REDUCED ORBITAL CHARGES
-------------------------------
  0 O s       :     3.459338  s :     3.459338
      pz      :     1.698656  p :     4.820339
      px      :     1.393331
      py      :     1.728352
      dz2     :     0.009969  d :     0.057152
      dxz     :     0.012231
      dyz     :     0.011122
      dx2y2   :     0.009470
      dxy     :     0.014360
      f0      :     0.000456  f :     0.004800
      f+1     :     0.000866
      f-1     :     0.000652
      f+2     :     0.000410
      f-2     :     0.001032
      f+3     :     0.000479
      f-3     :     0.000906
  1 H s       :     0.676903  s :     0.676903
      pz      :     0.067033  p :     0.168175
      px      :     0.046429
      py      :     0.054713
  2 H s       :     0.657861  s :     0.657861
      pz      :     0.034974  p :     0.197535
      px      :     0.113653
      py      :     0.048908
  3 O s       :     3.461010  s :     3.461010
      pz      :     1.671908  p :     4.761668
      px      :     1.729402
      py      :     1.360358
      dz2     :     0.011154  d :     0.058907
      dxz     :     0.011098
      dyz     :     0.011859
      dx2y2   :     0.009664
      dxy     :     0.015132
      f0      :     0.000478  f :     0.004853
      f+1     :     0.000658
      f-1     :     0.000866
      f+2     :     0.000409
      f-2     :     0.001003
      f+3     :     0.000960
      f-3     :     0.000479
  4 H s       :     0.663491  s :     0.663491
      pz      :     0.067926  p :     0.166750
      px      :     0.054215
      py      :     0.044609
  5 H s       :     0.657199  s :     0.657199
      pz      :     0.034916  p :     0.151757
      px      :     0.045169
      py      :     0.071672
  6 O s       :     3.464608  s :     3.464608
      pz      :     1.500250  p :     4.818707
      px      :     1.537363
      py      :     1.781094
      dz2     :     0.021245  d :     0.058454
      dxz     :     0.007296
      dyz     :     0.007806
      dx2y2   :     0.007592
      dxy     :     0.014515
      f0      :     0.000911  f :     0.004911
      f+1     :     0.001010
      f-1     :     0.000710
      f+2     :     0.000391
      f-2     :     0.000421
      f+3     :     0.000377
      f-3     :     0.001090
  7 H s       :     0.675795  s :     0.675795
      pz      :     0.080556  p :     0.161626
      px      :     0.037168
      py      :     0.043901
  8 H s       :     0.679308  s :     0.679308
      pz      :     0.031003  p :     0.175607
      px      :     0.085168
      py      :     0.059436
  9 O s       :     3.463304  s :     3.463304
      pz      :     1.539855  p :     4.797330
      px      :     1.820661
      py      :     1.436814
      dz2     :     0.020261  d :     0.059002
      dxz     :     0.007279
      dyz     :     0.009108
      dx2y2   :     0.009873
      dxy     :     0.012480
      f0      :     0.000780  f :     0.004862
      f+1     :     0.000586
      f-1     :     0.001159
      f+2     :     0.000416
      f-2     :     0.000412
      f+3     :     0.001059
      f-3     :     0.000451
 10 H s       :     0.674372  s :     0.674372
      pz      :     0.031986  p :     0.157362
      px      :     0.050945
      py      :     0.074431
 11 H s       :     0.675813  s :     0.675813
      pz      :     0.093416  p :     0.174293
      px      :     0.044683
      py      :     0.036194
 12 O s       :     3.457300  s :     3.457300
      pz      :     1.525337  p :     4.841937
      px      :     1.779218
      py      :     1.537383
      dz2     :     0.020044  d :     0.056937
      dxz     :     0.007662
      dyz     :     0.007221
      dx2y2   :     0.007599
      dxy     :     0.014411
      f0      :     0.000870  f :     0.004812
      f+1     :     0.000700
      f-1     :     0.000976
      f+2     :     0.000390
      f-2     :     0.000421
      f+3     :     0.001078
      f-3     :     0.000376
 13 H s       :     0.677409  s :     0.677409
      pz      :     0.092352  p :     0.174064
      px      :     0.043705
      py      :     0.038007
 14 H s       :     0.681763  s :     0.681763
      pz      :     0.032422  p :     0.178349
      px      :     0.059655
      py      :     0.086272
 15 O s       :     3.456045  s :     3.456045
      pz      :     1.510200  p :     4.749055
      px      :     1.707729
      py      :     1.531126
      dz2     :     0.021789  d :     0.060213
      dxz     :     0.007497
      dyz     :     0.007202
      dx2y2   :     0.009218
      dxy     :     0.014508
      f0      :     0.000878  f :     0.004975
      f+1     :     0.000745
      f-1     :     0.001012
      f+2     :     0.000390
      f-2     :     0.000422
      f+3     :     0.001120
      f-3     :     0.000409
 16 H s       :     0.664007  s :     0.664007
      pz      :     0.081779  p :     0.161511
      px      :     0.043110
      py      :     0.036621
 17 H s       :     0.657760  s :     0.657760
      pz      :     0.030468  p :     0.160773
      px      :     0.056257
      py      :     0.074047


                      *****************************
                      * MAYER POPULATION ANALYSIS *
                      *****************************

  NA   - Mulliken gross atomic population
  ZA   - Total nuclear charge
  QA   - Mulliken gross atomic charge
  VA   - Mayer's total valence
  BVA  - Mayer's bonded valence
  FA   - Mayer's free valence

  ATOM       NA         ZA         QA         VA         BVA        FA
  0 O      8.7389     8.0000    -0.7389     2.0377     1.6498     0.3879
  1 H      0.6605     1.0000     0.3395     0.9055     0.8586     0.0469
  2 H      0.6228     1.0000     0.3772     0.9027     0.8579     0.0448
  3 O      8.7128     8.0000    -0.7128     2.1067     1.7214     0.3853
  4 H      0.6319     1.0000     0.3681     0.8844     0.8402     0.0442
  5 H      0.6318     1.0000     0.3682     0.8849     0.8377     0.0472
  6 O      8.7045     8.0000    -0.7045     2.0666     1.6844     0.3822
  7 H      0.6650     1.0000     0.3350     0.9078     0.8601     0.0477
  8 H      0.6455     1.0000     0.3545     0.9156     0.8705     0.0451
  9 O      8.7079     8.0000    -0.7079     2.0861     1.7001     0.3860
 10 H      0.6656     1.0000     0.3344     0.9123     0.8631     0.0493
 11 H      0.6310     1.0000     0.3690     0.9020     0.8582     0.0438
 12 O      8.7376     8.0000    -0.7376     2.0477     1.6618     0.3859
 13 H      0.6342     1.0000     0.3658     0.9009     0.8563     0.0446
 14 H      0.6547     1.0000     0.3453     0.9320     0.8859     0.0461
 15 O      8.6861     8.0000    -0.6861     2.1047     1.7245     0.3802
 16 H      0.6424     1.0000     0.3576     0.8891     0.8432     0.0459
 17 H      0.6269     1.0000     0.3731     0.8856     0.8411     0.0445

  Mayer bond orders larger than 0.100000
B(  0-O ,  1-H ) :   0.8495 B(  0-O ,  2-H ) :   0.7666 B(  3-O ,  4-H ) :   0.8297 
B(  3-O ,  5-H ) :   0.8226 B(  6-O ,  7-H ) :   0.8539 B(  6-O ,  8-H ) :   0.8275 
B(  9-O , 10-H ) :   0.8458 B(  9-O , 11-H ) :   0.8151 B( 12-O , 13-H ) :   0.8255 
B( 12-O , 14-H ) :   0.8215 B( 15-O , 16-H ) :   0.8377 B( 15-O , 17-H ) :   0.8230 



----------------------------------
MP2 DERIVATIVE INTEGRAL GENERATION
----------------------------------


Input Wavefunction Amplitudes       ... 12h2o.su.etal.mol0,2,3,5,9,11-orca.engrad-mp2.def2tzvp.frozencore.mp2tsaa.tmp
Input Correlated Electron Density   ... 12h2o.su.etal.mol0,2,3,5,9,11-orca.engrad-mp2.def2tzvp.frozencore.pmp2re
Input Energy Weighted Density       ... 12h2o.su.etal.mol0,2,3,5,9,11-orca.engrad-mp2.def2tzvp.frozencore.wmp2.tmp
Input SCF Electron Density          ... 12h2o.su.etal.mol0,2,3,5,9,11-orca.engrad-mp2.def2tzvp.frozencore.scfp

One-Electron Terms    ...
                        ... One-Electron Terms done
Prescreening matrices              ... done

Batch handling in the gradient evaluation:
Memory available                      ... 8000.0 MB
Memory per occupied orbital in Q2     ...   12.2 MB
Memory per occupied orbital in Q3     ...    0.1 MB
Total memory requirement per |i>      ...   12.3 MB
Max. Number of orbitals possible      ...    651
Number of orbitals treated per batch  ...     24
Number of batches to be done          ...      1
Batch   0: i=    6 ...    29

---------------------------------------
MP2 TOTAL ENERGY:     -457.916957286 Eh
---------------------------------------

The final MP2 gradient
  0:   0.00852087  -0.00319592   0.00113528
  1:   0.00058214  -0.00035608  -0.00011723
  2:  -0.01537683   0.00442791  -0.00162202
  3:  -0.00985372  -0.02583551   0.00077647
  4:  -0.00251004   0.00010675   0.00311107
  5:   0.00898992   0.02622243   0.00055931
  6:  -0.00249106   0.00312713  -0.00801892
  7:  -0.00301553  -0.00094176   0.00912122
  8:   0.00727059  -0.00191121  -0.00224998
  9:  -0.00926483  -0.01634209   0.00547706
 10:   0.00720087   0.01693978  -0.00305029
 11:   0.00238686  -0.00211141  -0.00410840
 12:  -0.00212537  -0.00254474   0.00134476
 13:   0.00311292  -0.00185018  -0.00494505
 14:   0.00097354   0.00426326   0.00135608
 15:   0.00990545   0.00425356   0.00937867
 16:   0.00026489   0.00056952  -0.00707535
 17:  -0.00457068  -0.00482142  -0.00107268

-----------------------------------
NORM OF THE MP2 GRADIENT:  0.057075
-----------------------------------

-------------------------   --------------------
FINAL SINGLE POINT ENERGY      -457.916957286335
-------------------------   --------------------


                            ***************************************
                            *     ORCA property calculations      *
                            ***************************************

                                    ---------------------
                                    Active property flags
                                    ---------------------
   (+) Dipole Moment


------------------------------------------------------------------------------
                       ORCA ELECTRIC PROPERTIES CALCULATION
------------------------------------------------------------------------------

Dipole Moment Calculation                       ... on
Quadrupole Moment Calculation                   ... off
Polarizability Calculation                      ... off
GBWName                                         ... 12h2o.su.etal.mol0,2,3,5,9,11-orca.engrad-mp2.def2tzvp.frozencore.gbw
Electron density file                           ... 12h2o.su.etal.mol0,2,3,5,9,11-orca.engrad-mp2.def2tzvp.frozencore.scfp
The origin for moment calculation is the CENTER OF MASS  = ( 0.610146, -1.036667  0.897884)

-------------
DIPOLE MOMENT
-------------
                                X             Y             Z
Electronic contribution:     -0.26306      -0.00614      -0.09950
Nuclear contribution   :      1.27908       0.87687      -1.46039
                        -----------------------------------------
Total Dipole Moment    :      1.01602       0.87073      -1.55988
                        -----------------------------------------
Magnitude (a.u.)       :      2.05516
Magnitude (Debye)      :      5.22381



--------------------
Rotational spectrum 
--------------------
 
Rotational constants in cm-1:     0.060097     0.019476     0.016813 
Rotational constants in MHz :  1801.663241   583.881632   504.026733 

 Dipole components along the rotational axes: 
x,y,z [a.u.] :    -1.021577     0.096295    -1.780677 
x,y,z [Debye]:    -2.596642     0.244762    -4.526120 

 

                         *** MP2 UNRELAXED DENSITY ***

------------------------------------------------------------------------------
                       ORCA ELECTRIC PROPERTIES CALCULATION
------------------------------------------------------------------------------

Dipole Moment Calculation                       ... on
Quadrupole Moment Calculation                   ... off
Polarizability Calculation                      ... off
GBWName                                         ... 12h2o.su.etal.mol0,2,3,5,9,11-orca.engrad-mp2.def2tzvp.frozencore.gbw
Electron density file                           ... 12h2o.su.etal.mol0,2,3,5,9,11-orca.engrad-mp2.def2tzvp.frozencore.pmp2ur
The origin for moment calculation is the CENTER OF MASS  = ( 0.610146, -1.036667  0.897884)

-------------
DIPOLE MOMENT
-------------
                                X             Y             Z
Electronic contribution:     -0.27736      -0.01434      -0.08668
Nuclear contribution   :      1.27908       0.87687      -1.46039
                        -----------------------------------------
Total Dipole Moment    :      1.00173       0.86253      -1.54707
                        -----------------------------------------
Magnitude (a.u.)       :      2.03490
Magnitude (Debye)      :      5.17231



--------------------
Rotational spectrum 
--------------------
 
Rotational constants in cm-1:     0.060097     0.019476     0.016813 
Rotational constants in MHz :  1801.663241   583.881632   504.026733 

 Dipole components along the rotational axes: 
x,y,z [a.u.] :    -1.014402     0.098965    -1.761255 
x,y,z [Debye]:    -2.578406     0.251550    -4.476754 

 

                           *** MP2 RELAXED DENSITY ***

------------------------------------------------------------------------------
                       ORCA ELECTRIC PROPERTIES CALCULATION
------------------------------------------------------------------------------

Dipole Moment Calculation                       ... on
Quadrupole Moment Calculation                   ... off
Polarizability Calculation                      ... off
GBWName                                         ... 12h2o.su.etal.mol0,2,3,5,9,11-orca.engrad-mp2.def2tzvp.frozencore.gbw
Electron density file                           ... 12h2o.su.etal.mol0,2,3,5,9,11-orca.engrad-mp2.def2tzvp.frozencore.pmp2re
The origin for moment calculation is the CENTER OF MASS  = ( 0.610146, -1.036667  0.897884)

-------------
DIPOLE MOMENT
-------------
                                X             Y             Z
Electronic contribution:     -0.29691      -0.00621      -0.07149
Nuclear contribution   :      1.27908       0.87687      -1.46039
                        -----------------------------------------
Total Dipole Moment    :      0.98217       0.87066      -1.53187
                        -----------------------------------------
Magnitude (a.u.)       :      2.01726
Magnitude (Debye)      :      5.12747



--------------------
Rotational spectrum 
--------------------
 
Rotational constants in cm-1:     0.060097     0.019476     0.016813 
Rotational constants in MHz :  1801.663241   583.881632   504.026733 

 Dipole components along the rotational axes: 
x,y,z [a.u.] :    -1.000435     0.116406    -1.747836 
x,y,z [Debye]:    -2.542903     0.295882    -4.442645 

 

Timings for individual modules:

Sum of individual times         ...       75.358 sec (=   1.256 min)
GTO integral calculation        ...        3.894 sec (=   0.065 min)   5.2 %
SCF iterations                  ...       17.773 sec (=   0.296 min)  23.6 %
MP2 module                      ...       53.691 sec (=   0.895 min)  71.2 %
                             ****ORCA TERMINATED NORMALLY****
TOTAL RUN TIME: 0 days 0 hours 1 minutes 19 seconds 19 msec
