13
Energy:   -248.60483328
O    1.25790815   2.00238315   3.34420454
H    1.47395973   2.93410770   3.38219053
H    1.51173739   1.66200033   4.20207521
O    1.32040181   0.12392719  -1.17908970
H    0.75417485  -0.40140776  -1.74445866
H    2.11390164   0.26245153  -1.69619789
O   -2.01692337  -0.63230572   0.49174914
H   -2.13897130  -1.17463283  -0.28749246
H   -2.88755088  -0.57926653   0.88599074
O   -0.50270549  -1.39962194  -2.52476996
H   -0.95206421  -1.05833070  -3.29796391
H   -0.28741832  -2.30417749  -2.75206388
K    0.36266324   0.57904734   1.24498112
