13
Energy:   -233.76764669
O   -0.72559690   2.07509447  -2.18436029
H   -1.63083095   2.18607925  -2.47498983
H   -0.31662479   2.92588236  -2.34289620
O   -1.75564869  -1.59349434   3.48132804
H   -2.69568388  -1.56407330   3.30328281
H   -1.68022896  -2.10083375   4.28950527
O    0.34101500  -0.38390296  -1.50608234
H   -0.00900840   0.47646742  -1.73733602
H    0.34784359  -0.86978331  -2.33076743
O    2.42400841  -0.17170117   0.33097424
H    3.29427857   0.19843348   0.18311607
H    2.00600503  -0.15341829  -0.52993850
K    0.27694034  -1.11034642   1.63744637
