13
Energy:   -245.86126063
O    0.94870409  -2.14351809  -0.11903178
H    0.17901295  -2.59664284  -0.46324880
H    1.66382759  -2.77092416  -0.22482332
O    1.22095590   1.81837884   2.87412625
H    0.68001607   2.39853409   3.40988351
H    2.07879927   1.83027248   3.29862023
O   -0.37929769   0.94018248  -2.13658154
H   -0.71450946   1.72803289  -2.56454959
H    0.20167703   0.54327333  -2.78555253
O   -1.81156562  -0.70827524  -0.42968327
H   -1.53691075  -0.26527285  -1.23251914
H   -2.73749671  -0.90647454  -0.56968511
K    0.24631908   0.20681427   0.94745400
