61
Energy:   -589.44101340
C    4.42663401  -2.13659811   1.49667662
H    4.13613608  -2.66275164   2.38193003
H    4.56682299  -1.10113116   1.72701187
H    5.34178613  -2.54585647   1.12264014
C    3.32582963  -2.28060288   0.42939393
N    2.50623074  -2.38782098  -0.36524655
C    0.70728835   3.95733696   1.04352736
H    1.64578833   3.46458913   0.89752210
H    0.46944497   3.96974040   2.08668400
H    0.77151964   4.96177755   0.68038480
C   -0.39358039   3.20302886   0.27495251
N   -1.21322721   2.64141220  -0.29728641
C    2.28944144   2.22432551   4.46355849
H    3.18389922   2.32775807   5.04161313
H    1.58498150   1.62429405   5.00077123
H    1.86873880   3.19112688   4.28134022
C    2.62148450   1.54758427   3.12066285
N    2.86870564   1.04371965   2.12081600
C   -1.14925972  -3.99112743  -0.38362932
H   -1.59856753  -3.90272971  -1.35069112
H   -1.06508184  -5.02539120  -0.12264725
H   -0.17583819  -3.54721436  -0.40068185
C   -2.02474648  -3.26868911   0.65714241
N   -2.67658617  -2.73080094   1.43204428
C   -5.45676676  -1.49018998  -0.36917516
H   -6.26201065  -0.79931813  -0.23068858
H   -5.28335742  -2.02317196   0.54228439
H   -5.71024988  -2.18260633  -1.14454927
C   -4.18256884  -0.72087010  -0.76435433
N   -3.23387057  -0.14807647  -1.05858318
C   -3.20434730   1.02218525   2.37480652
H   -3.15556371  -0.03117916   2.19330237
H   -3.38431042   1.53497116   1.45308912
H   -3.99990747   1.22964509   3.05960103
C   -1.87053252   1.50162798   2.97702976
N   -0.87744680   1.85859487   3.42541233
C    1.71051555  -2.69454671  -3.70755689
H    1.42733074  -3.24048940  -4.58314419
H    2.12481649  -3.36744567  -2.98612720
H    2.44060040  -1.95687299  -3.96777353
C    0.47102772  -2.00202332  -3.11116669
N   -0.45182731  -1.48640818  -2.66712708
C    0.51691053  -1.43120582   2.84866947
H    0.27039052  -0.75855064   3.64344181
H    1.57157782  -1.61169377   2.84837834
H   -0.00310669  -2.35566161   2.98960441
C    0.10221789  -0.80903231   1.50236708
N   -0.20653963  -0.34579585   0.49998375
C   -2.67490501   3.25213926  -5.53136898
H   -3.27245738   4.02372530  -5.09263635
H   -3.27825530   2.66657461  -6.19317074
H   -1.86909061   3.69344977  -6.07982799
C   -2.10627223   2.34924866  -4.42094324
N   -1.68289928   1.67700557  -3.59418080
C    3.92979488   0.84438769  -1.32709467
H    4.09147306   0.99315717  -0.27989459
H    4.51283135   1.54961569  -1.88173062
H    4.22195116  -0.14935500  -1.59545872
C    2.43747319   1.04551670  -1.64977574
N    1.32637185   1.19526639  -1.89002647
Na  -1.00684182   0.59140266  -1.57010487
