
                                 *****************
                                 * O   R   C   A *
                                 *****************

           --- An Ab Initio, DFT and Semiempirical electronic structure package ---

                  #######################################################
                  #                        -***-                        #
                  #          Department of theory and spectroscopy      #
                  #               Directorship: Frank Neese             #
                  #        Max Planck Institute fuer Kohlenforschung    #
                  #                Kaiser Wilhelm Platz 1               #
                  #                 D-45470 Muelheim/Ruhr               #
                  #                      Germany                        #
                  #                                                     #
                  #                  All rights reserved                #
                  #                        -***-                        #
                  #######################################################


                         Program Version 4.2.0 -  RELEASE  -


 With contributions from (in alphabetic order):
   Daniel Aravena         : Magnetic Suceptibility
   Michael Atanasov       : Ab Initio Ligand Field Theory (pilot matlab implementation)
   Alexander A. Auer      : GIAO ZORA, VPT2
   Ute Becker             : Parallelization
   Giovanni Bistoni       : ED, misc. LED, open-shell LED, HFLED
   Martin Brehm           : Molecular dynamics
   Dmytro Bykov           : SCF Hessian
   Vijay G. Chilkuri      : MRCI spin determinant printing, contributions to CSF-ICE
   Dipayan Datta          : RHF DLPNO-CCSD density
   Achintya Kumar Dutta   : EOM-CC, STEOM-CC
   Dmitry Ganyushin       : Spin-Orbit,Spin-Spin,Magnetic field MRCI
   Miquel Garcia          : C-PCM Hessian, Gaussian charge scheme
   Yang Guo               : DLPNO-NEVPT2, CIM, IAO-localization
   Andreas Hansen         : Spin unrestricted coupled pair/coupled cluster methods
   Benjamin Helmich-Paris : CASSCF linear response (MC-RPA)
   Lee Huntington         : MR-EOM, pCC
   Robert Izsak           : Overlap fitted RIJCOSX, COSX-SCS-MP3, EOM
   Christian Kollmar      : KDIIS, OOCD, Brueckner-CCSD(T), CCSD density
   Simone Kossmann        : Meta GGA functionals, TD-DFT gradient, OOMP2, MP2 Hessian
   Martin Krupicka        : AUTO-CI
   Lucas Lang             : DCDCAS
   Dagmar Lenk            : GEPOL surface, SMD
   Dimitrios Liakos       : Extrapolation schemes; Compound Job, initial MDCI parallelization
   Dimitrios Manganas     : Further ROCIS development; embedding schemes
   Dimitrios Pantazis     : SARC Basis sets
   Taras Petrenko         : DFT Hessian,TD-DFT gradient, ASA, ECA, R-Raman, ABS, FL, XAS/XES, NRVS
   Peter Pinski           : DLPNO-MP2, DLPNO-MP2 Gradient
   Christoph Reimann      : Effective Core Potentials
   Marius Retegan         : Local ZFS, SOC
   Christoph Riplinger    : Optimizer, TS searches, QM/MM, DLPNO-CCSD(T), (RO)-DLPNO pert. Triples
   Tobias Risthaus        : Range-separated hybrids, TD-DFT gradient, RPA, STAB
   Michael Roemelt        : Original ROCIS implementation
   Masaaki Saitow         : Open-shell DLPNO-CCSD energy and density
   Barbara Sandhoefer     : DKH picture change effects
   Avijit Sen             : IP-ROCIS
   Kantharuban Sivalingam : CASSCF convergence, NEVPT2, FIC-MRCI
   Bernardo de Souza      : ESD, SOC TD-DFT
   Georgi Stoychev        : AutoAux, RI-MP2 NMR
   Willem Van den Heuvel  : Paramagnetic NMR
   Boris Wezisla          : Elementary symmetry handling
   Frank Wennmohs         : Technical directorship


 We gratefully acknowledge several colleagues who have allowed us to
 interface, adapt or use parts of their codes:
   Stefan Grimme, W. Hujo, H. Kruse,             : VdW corrections, initial TS optimization,
                  C. Bannwarth                     DFT functionals, gCP, sTDA/sTD-DF
   Ed Valeev, F. Pavosevic, A. Kumar             : LibInt (2-el integral package), F12 methods
   Garnet Chan, S. Sharma, J. Yang, R. Olivares  : DMRG
   Ulf Ekstrom                                   : XCFun DFT Library
   Mihaly Kallay                                 : mrcc  (arbitrary order and MRCC methods)
   Andreas Klamt, Michael Diedenhofen            : otool_cosmo (COSMO solvation model)
   Jiri Pittner, Ondrej Demel                    : Mk-CCSD
   Frank Weinhold                                : gennbo (NPA and NBO analysis)
   Christopher J. Cramer and Donald G. Truhlar   : smd solvation model
   Lars Goerigk                                  : TD-DFT with DH, B97 family of functionals
   V. Asgeirsson, H. Jonsson                     : NEB implementation
   FAccTs GmbH                                   : IRC, NEB, NEB-TS, Multilevel, MM, QM/MM, CI optimization
   S Lehtola, MJT Oliveira, MAL Marques          : LibXC Library


 Your calculation uses the libint2 library for the computation of 2-el integrals
 For citations please refer to: http://libint.valeyev.net

 Your ORCA version has been built with support for libXC version: 4.2.3
 For citations please refer to: https://tddft.org/programs/libxc/

 This ORCA versions uses:
   CBLAS   interface :  Fast vector & matrix operations
   LAPACKE interface :  Fast linear algebra routines
   SCALAPACK package :  Parallel linear algebra routines


----- Orbital basis set information -----
Your calculation utilizes the basis: def2-TZVP
   F. Weigend and R. Ahlrichs, Phys. Chem. Chem. Phys. 7, 3297 (2005).

================================================================================
                                        WARNINGS
                       Please study these warnings very carefully!
================================================================================


WARNING: The frozen-core approximation for MP2-gradient calculations is turned on by default.

INFO   : the flag for use of LIBINT has been found!

================================================================================
                                       INPUT FILE
================================================================================
NAME = 12h2o.su.etal.mol1,3,4-orca.engrad-mp2.def2tzvp.frozencore.inp
|  1> # 12h2o.su.etal.mol1,3,4
|  2> ! MP2 def2-TZVP EnGrad TightSCF
|  3> 
|  4> %pal
|  5>     nprocs 6
|  6> end
|  7> 
|  8> %maxcore 8000
|  9> 
| 10> %scf
| 11>     ConvForced true
| 12> end
| 13> 
| 14> *xyz 0 1
| 15> O  -1.794470000  -0.923410000   2.768350000
| 16> H  -2.338250000  -1.359750000   3.430940000
| 17> H  -0.879480000  -1.303000000   2.865760000
| 18> O  -1.752130000  -0.741530000  -2.896280000
| 19> H  -2.036450000  -0.920500000  -1.984040000
| 20> H  -0.921210000  -1.242140000  -2.984230000
| 21> O  -0.885520000   1.737840000   0.052730000
| 22> H  -1.032320000   2.090180000  -0.841890000
| 23> H  -1.284090000   0.839590000   0.017130000
| 24> *
| 25> 
| 26>                          ****END OF INPUT****
================================================================================

                     *******************************
                     * Energy+Gradient Calculation *
                     *******************************

---------------------------------
CARTESIAN COORDINATES (ANGSTROEM)
---------------------------------
  O     -1.794470   -0.923410    2.768350
  H     -2.338250   -1.359750    3.430940
  H     -0.879480   -1.303000    2.865760
  O     -1.752130   -0.741530   -2.896280
  H     -2.036450   -0.920500   -1.984040
  H     -0.921210   -1.242140   -2.984230
  O     -0.885520    1.737840    0.052730
  H     -1.032320    2.090180   -0.841890
  H     -1.284090    0.839590    0.017130

----------------------------
CARTESIAN COORDINATES (A.U.)
----------------------------
  NO LB      ZA    FRAG     MASS         X           Y           Z
   0 O     8.0000    0    15.999   -3.391057   -1.744992    5.231423
   1 H     1.0000    0     1.008   -4.418652   -2.569555    6.483537
   2 H     1.0000    0     1.008   -1.661976   -2.462313    5.415502
   3 O     8.0000    0    15.999   -3.311046   -1.401289   -5.473176
   4 H     1.0000    0     1.008   -3.848333   -1.739493   -3.749292
   5 H     1.0000    0     1.008   -1.740835   -2.347304   -5.639377
   6 O     8.0000    0    15.999   -1.673390    3.284042    0.099645
   7 H     1.0000    0     1.008   -1.950802    3.949868   -1.590942
   8 H     1.0000    0     1.008   -2.426578    1.586595    0.032371

--------------------------------
INTERNAL COORDINATES (ANGSTROEM)
--------------------------------
 O      0   0   0     0.000000000000     0.00000000     0.00000000
 H      1   0   0     0.961828878803     0.00000000     0.00000000
 H      1   2   0     0.995381322057   106.21731035     0.00000000
 O      1   2   3     5.667707300743   135.01509642   116.29625730
 H      4   1   2     0.972136791249    18.92045113     9.26599691
 H      4   1   2     0.974050112161    94.59568686   248.81379742
 O      5   4   1     3.541164138161   107.84672602    33.14664954
 H      7   5   4     0.972645187106    72.17296994    29.09453504
 H      7   5   4     0.983350632989    33.04029707   190.88793319

---------------------------
INTERNAL COORDINATES (A.U.)
---------------------------
 O      0   0   0     0.000000000000     0.00000000     0.00000000
 H      1   0   0     1.817593168635     0.00000000     0.00000000
 H      1   2   0     1.880998097508   106.21731035     0.00000000
 O      1   2   3    10.710414605631   135.01509642   116.29625730
 H      4   1   2     1.837072300170    18.92045113     9.26599691
 H      4   1   2     1.840687952699    94.59568686   248.81379742
 O      5   4   1     6.691830416388   107.84672602    33.14664954
 H      7   5   4     1.838033029106    72.17296994    29.09453504
 H      7   5   4     1.858263389967    33.04029707   190.88793319

---------------------
BASIS SET INFORMATION
---------------------
There are 2 groups of distinct atoms

 Group   1 Type O   : 11s6p2d1f contracted to 5s3p2d1f pattern {62111/411/11/1}
 Group   2 Type H   : 5s1p contracted to 3s1p pattern {311/1}

Atom   0O    basis set group =>   1
Atom   1H    basis set group =>   2
Atom   2H    basis set group =>   2
Atom   3O    basis set group =>   1
Atom   4H    basis set group =>   2
Atom   5H    basis set group =>   2
Atom   6O    basis set group =>   1
Atom   7H    basis set group =>   2
Atom   8H    basis set group =>   2


           ************************************************************
           *        Program running with 6 parallel MPI-processes     *
           *              working on a common directory               *
           ************************************************************
------------------------------------------------------------------------------
                           ORCA GTO INTEGRAL CALCULATION
------------------------------------------------------------------------------

                         BASIS SET STATISTICS AND STARTUP INFO

 # of primitive gaussian shells          ...   96
 # of primitive gaussian functions       ...  186
 # of contracted shells                  ...   57
 # of contracted basis functions         ...  129
 Highest angular momentum                ...    3
 Maximum contraction depth               ...    6
 Integral package used                   ... LIBINT
 Integral threshhold            Thresh   ...  2.500e-11
 Primitive cut-off              TCut     ...  2.500e-12


------------------------------ INTEGRAL EVALUATION ----------------------------


 * One electron integrals 
 Pre-screening matrix                    ... done
 Shell pair data                         ... done (   0.000 sec)



           ************************************************************
           *        Program running with 6 parallel MPI-processes     *
           *              working on a common directory               *
           ************************************************************
-------------------------------------------------------------------------------
                                 ORCA SCF
-------------------------------------------------------------------------------

------------
SCF SETTINGS
------------
Hamiltonian:
 Ab initio Hamiltonian  Method          .... Hartree-Fock(GTOs)


General Settings:
 Integral files         IntName         .... 12h2o.su.etal.mol1,3,4-orca.engrad-mp2.def2tzvp.frozencore
 Hartree-Fock type      HFTyp           .... RHF
 Total Charge           Charge          ....    0
 Multiplicity           Mult            ....    1
 Number of Electrons    NEL             ....   30
 Basis Dimension        Dim             ....  129
 Nuclear Repulsion      ENuc            ....     63.4412696076 Eh

Convergence Acceleration:
 DIIS                   CNVDIIS         .... on
   Start iteration      DIISMaxIt       ....    12
   Startup error        DIISStart       ....  0.200000
   # of expansion vecs  DIISMaxEq       ....     5
   Bias factor          DIISBfac        ....   1.050
   Max. coefficient     DIISMaxC        ....  10.000
 Newton-Raphson         CNVNR           .... off
 SOSCF                  CNVSOSCF        .... on
   Start iteration      SOSCFMaxIt      ....   150
   Startup grad/error   SOSCFStart      ....  0.003300
 Level Shifting         CNVShift        .... on
   Level shift para.    LevelShift      ....    0.2500
   Turn off err/grad.   ShiftErr        ....    0.0010
 Zerner damping         CNVZerner       .... off
 Static damping         CNVDamp         .... on
   Fraction old density DampFac         ....    0.7000
   Max. Damping (<1)    DampMax         ....    0.9800
   Min. Damping (>=0)   DampMin         ....    0.0000
   Turn off err/grad.   DampErr         ....    0.1000
 Fernandez-Rico         CNVRico         .... off

SCF Procedure:
 Maximum # iterations   MaxIter         ....   125
 SCF integral mode      SCFMode         .... Direct
   Integral package                     .... LIBINT
 Reset frequency        DirectResetFreq ....    20
 Integral Threshold     Thresh          ....  2.500e-11 Eh
 Primitive CutOff       TCut            ....  2.500e-12 Eh

Convergence Tolerance:
 Convergence Check Mode ConvCheckMode   .... Total+1el-Energy
 Convergence forced     ConvForced      .... 1
 Energy Change          TolE            ....  1.000e-08 Eh
 1-El. energy change                    ....  1.000e-05 Eh
 Orbital Gradient       TolG            ....  1.000e-05
 Orbital Rotation angle TolX            ....  1.000e-05
 DIIS Error             TolErr          ....  5.000e-07


Diagonalization of the overlap matrix:
Smallest eigenvalue                        ... 8.300e-03
Time for diagonalization                   ...    0.003 sec
Threshold for overlap eigenvalues          ... 1.000e-08
Number of eigenvalues below threshold      ... 0
Time for construction of square roots      ...    0.001 sec
Total time needed                          ...    0.004 sec

-------------------
DFT GRID GENERATION
-------------------

General Integration Accuracy     IntAcc      ...  4.340
Radial Grid Type                 RadialGrid  ... Gauss-Chebyshev
Angular Grid (max. acc.)         AngularGrid ... Lebedev-110
Angular grid pruning method      GridPruning ... 3 (G Style)
Weight generation scheme         WeightScheme... Becke
Basis function cutoff            BFCut       ...    1.0000e-11
Integration weight cutoff        WCut        ...    1.0000e-14
Grids for H and He will be reduced by one unit

# of grid points (after initial pruning)     ...   9912 (   0.0 sec)
# of grid points (after weights+screening)   ...   9721 (   0.0 sec)
nearest neighbour list constructed           ...    0.0 sec
Grid point re-assignment to atoms done       ...    0.0 sec
Grid point division into batches done        ...    0.0 sec
Reduced shell lists constructed in    0.0 sec

Total number of grid points                  ...     9721
Total number of batches                      ...      157
Average number of points per batch           ...       61
Average number of grid points per atom       ...     1080
Average number of shells per batch           ...    29.86 (52.38%)
Average number of basis functions per batch  ...    61.29 (47.51%)
Average number of large shells per batch     ...    22.89 (76.67%)
Average number of large basis fcns per batch ...    47.61 (77.68%)
Maximum spatial batch extension              ...  14.53, 20.63, 17.28 au
Average spatial batch extension              ...   0.85,  0.90,  0.86 au

Time for grid setup =    0.034 sec

------------------------------
INITIAL GUESS: MODEL POTENTIAL
------------------------------
Loading Hartree-Fock densities                     ... done
Calculating cut-offs                               ... done
Setting up the integral package                    ... done
Initializing the effective Hamiltonian             ... done
Starting the Coulomb interaction                   ... done (   0.0 sec)
Reading the grid                                   ... done
Mapping shells                                     ... done
Starting the XC term evaluation                    ... done (   0.0 sec)
Transforming the Hamiltonian                       ... done (   0.0 sec)
Diagonalizing the Hamiltonian                      ... done (   0.0 sec)
Back transforming the eigenvectors                 ... done (   0.0 sec)
Now organizing SCF variables                       ... done
                      ------------------
                      INITIAL GUESS DONE (   0.1 sec)
                      ------------------
--------------
SCF ITERATIONS
--------------
ITER       Energy         Delta-E        Max-DP      RMS-DP      [F,P]     Damp
               ***  Starting incremental Fock matrix formation  ***
  0   -227.8695025554   0.000000000000 0.04271974  0.00142305  0.3445689 0.7000
  1   -227.9903321873  -0.120829631867 0.02808008  0.00097502  0.2158783 0.7000
                               ***Turning on DIIS***
  2   -228.0529965068  -0.062664319498 0.01630744  0.00052787  0.1638572 0.7000
  3   -228.5799448468  -0.526948339961 0.00753613  0.00022314  0.1218816 0.7000
  4   -228.4690352730   0.110909573807 0.01661431  0.00050787  0.0862176 0.0000
  5   -228.1973366767   0.271698596215 0.00183593  0.00008234  0.0053094 0.0000
                      *** Initiating the SOSCF procedure ***
                           *** Shutting down DIIS ***
                      *** Re-Reading the Fockian *** 
                      *** Removing any level shift *** 
ITER      Energy       Delta-E        Grad      Rot      Max-DP    RMS-DP
  6   -228.17815490   0.0191817722  0.001015  0.001015  0.001016  0.000047
               *** Restarting incremental Fock matrix formation ***
  7   -228.17233125   0.0058236524  0.000329  0.000466  0.000295  0.000020
  8   -228.17233518  -0.0000039247  0.000202  0.000353  0.000422  0.000017
  9   -228.17233609  -0.0000009147  0.000064  0.000051  0.000072  0.000003
 10   -228.17233617  -0.0000000777  0.000008  0.000007  0.000007  0.000000
                  ***Gradient check signals convergence***
              ***Rediagonalizing the Fockian in SOSCF/NRSCF***

               *****************************************************
               *                     SUCCESS                       *
               *           SCF CONVERGED AFTER  11 CYCLES          *
               *****************************************************


----------------
TOTAL SCF ENERGY
----------------

Total Energy       :         -228.17233617 Eh           -6208.88492 eV

Components:
Nuclear Repulsion  :           63.44126961 Eh            1726.32471 eV
Electronic Energy  :         -291.61360578 Eh           -7935.20963 eV
One Electron Energy:         -441.03274261 Eh          -12001.11105 eV
Two Electron Energy:          149.41913683 Eh            4065.90142 eV

Virial components:
Potential Energy   :         -455.95686592 Eh          -12407.21709 eV
Kinetic Energy     :          227.78452975 Eh            6198.33217 eV
Virial Ratio       :            2.00170251


---------------
SCF CONVERGENCE
---------------

  Last Energy change         ...   -1.4765e-09  Tolerance :   1.0000e-08
  Last MAX-Density change    ...    3.4731e-06  Tolerance :   1.0000e-07
  Last RMS-Density change    ...    1.6643e-07  Tolerance :   5.0000e-09
  Last Orbital Gradient      ...    2.2372e-06  Tolerance :   1.0000e-05
  Last Orbital Rotation      ...    3.1258e-06  Tolerance :   1.0000e-05

             **** THE GBW FILE WAS UPDATED (12h2o.su.etal.mol1,3,4-orca.engrad-mp2.def2tzvp.frozencore.gbw) ****
             **** DENSITY FILE WAS UPDATED (12h2o.su.etal.mol1,3,4-orca.engrad-mp2.def2tzvp.frozencore.scfp) ****
             **** ENERGY FILE WAS UPDATED (12h2o.su.etal.mol1,3,4-orca.engrad-mp2.def2tzvp.frozencore.en.tmp) ****
             **** THE GBW FILE WAS UPDATED (12h2o.su.etal.mol1,3,4-orca.engrad-mp2.def2tzvp.frozencore.gbw) ****
             **** DENSITY FILE WAS UPDATED (12h2o.su.etal.mol1,3,4-orca.engrad-mp2.def2tzvp.frozencore.scfp) ****
----------------
ORBITAL ENERGIES
----------------

  NO   OCC          E(Eh)            E(eV) 
   0   2.0000     -20.572109      -559.7956 
   1   2.0000     -20.569744      -559.7312 
   2   2.0000     -20.552341      -559.2576 
   3   2.0000      -1.351153       -36.7667 
   4   2.0000      -1.344981       -36.5988 
   5   2.0000      -1.328197       -36.1421 
   6   2.0000      -0.713993       -19.4287 
   7   2.0000      -0.713401       -19.4126 
   8   2.0000      -0.690160       -18.7802 
   9   2.0000      -0.588464       -16.0129 
  10   2.0000      -0.581259       -15.8169 
  11   2.0000      -0.567693       -15.4477 
  12   2.0000      -0.515708       -14.0331 
  13   2.0000      -0.512903       -13.9568 
  14   2.0000      -0.495146       -13.4736 
  15   0.0000       0.098491         2.6801 
  16   0.0000       0.123989         3.3739 
  17   0.0000       0.166493         4.5305 
  18   0.0000       0.186921         5.0864 
  19   0.0000       0.191537         5.2120 
  20   0.0000       0.257101         6.9961 
  21   0.0000       0.488988        13.3060 
  22   0.0000       0.510387        13.8883 
  23   0.0000       0.527294        14.3484 
  24   0.0000       0.535796        14.5798 
  25   0.0000       0.559987        15.2380 
  26   0.0000       0.587983        15.9998 
  27   0.0000       0.589648        16.0451 
  28   0.0000       0.610407        16.6100 
  29   0.0000       0.621660        16.9162 
  30   0.0000       0.636015        17.3069 
  31   0.0000       0.681404        18.5419 
  32   0.0000       0.694673        18.9030 
  33   0.0000       0.754889        20.5416 
  34   0.0000       0.757136        20.6027 
  35   0.0000       0.765427        20.8283 
  36   0.0000       0.774357        21.0713 
  37   0.0000       0.808428        21.9984 
  38   0.0000       0.881341        23.9825 
  39   0.0000       1.397168        38.0189 
  40   0.0000       1.417547        38.5734 
  41   0.0000       1.421280        38.6750 
  42   0.0000       1.425785        38.7976 
  43   0.0000       1.443419        39.2774 
  44   0.0000       1.450191        39.4617 
  45   0.0000       1.540744        41.9258 
  46   0.0000       1.548312        42.1317 
  47   0.0000       1.556722        42.3606 
  48   0.0000       1.778955        48.4078 
  49   0.0000       1.780445        48.4484 
  50   0.0000       1.836660        49.9781 
  51   0.0000       1.889302        51.4105 
  52   0.0000       1.895046        51.5668 
  53   0.0000       1.936700        52.7003 
  54   0.0000       1.997256        54.3481 
  55   0.0000       2.013489        54.7898 
  56   0.0000       2.033899        55.3452 
  57   0.0000       2.285725        62.1978 
  58   0.0000       2.291457        62.3537 
  59   0.0000       2.317451        63.0610 
  60   0.0000       2.327018        63.3214 
  61   0.0000       2.343488        63.7696 
  62   0.0000       2.354459        64.0681 
  63   0.0000       2.373369        64.5827 
  64   0.0000       2.383490        64.8581 
  65   0.0000       2.387863        64.9770 
  66   0.0000       2.565555        69.8123 
  67   0.0000       2.573693        70.0338 
  68   0.0000       2.613782        71.1246 
  69   0.0000       2.667041        72.5739 
  70   0.0000       2.683838        73.0309 
  71   0.0000       2.706100        73.6367 
  72   0.0000       2.898407        78.8697 
  73   0.0000       2.938778        79.9682 
  74   0.0000       2.939929        79.9995 
  75   0.0000       2.948779        80.2404 
  76   0.0000       2.963423        80.6388 
  77   0.0000       3.004220        81.7490 
  78   0.0000       3.019533        82.1657 
  79   0.0000       3.021580        82.2214 
  80   0.0000       3.047312        82.9216 
  81   0.0000       3.140663        85.4618 
  82   0.0000       3.149313        85.6972 
  83   0.0000       3.204054        87.1867 
  84   0.0000       3.973953       108.1367 
  85   0.0000       4.007027       109.0368 
  86   0.0000       4.036195       109.8304 
  87   0.0000       4.290463       116.7494 
  88   0.0000       4.301959       117.0623 
  89   0.0000       4.314693       117.4088 
  90   0.0000       5.538659       150.7146 
  91   0.0000       5.544330       150.8689 
  92   0.0000       5.559655       151.2859 
  93   0.0000       5.634858       153.3323 
  94   0.0000       5.642825       153.5491 
  95   0.0000       5.662919       154.0959 
  96   0.0000       5.806660       158.0073 
  97   0.0000       5.812253       158.1595 
  98   0.0000       5.827317       158.5693 
  99   0.0000       5.842416       158.9802 
 100   0.0000       5.843965       159.0224 
 101   0.0000       5.859310       159.4399 
 102   0.0000       5.884954       160.1378 
 103   0.0000       5.898807       160.5147 
 104   0.0000       5.911792       160.8680 
 105   0.0000       6.424229       174.8122 
 106   0.0000       6.475158       176.1980 
 107   0.0000       6.482729       176.4040 
 108   0.0000       6.683186       181.8587 
 109   0.0000       6.691970       182.0978 
 110   0.0000       6.694242       182.1596 
 111   0.0000       6.815411       185.4567 
 112   0.0000       6.819635       185.5717 
 113   0.0000       6.839405       186.1097 
 114   0.0000       6.876444       187.1175 
 115   0.0000       6.882677       187.2872 
 116   0.0000       6.895389       187.6331 
 117   0.0000       6.917300       188.2293 
 118   0.0000       6.935585       188.7269 
 119   0.0000       6.957735       189.3296 
 120   0.0000       7.348033       199.9502 
 121   0.0000       7.363747       200.3777 
 122   0.0000       7.368099       200.4962 
 123   0.0000       7.479069       203.5158 
 124   0.0000       7.495478       203.9623 
 125   0.0000       7.523116       204.7144 
 126   0.0000      44.806521      1219.2474 
 127   0.0000      44.817208      1219.5382 
 128   0.0000      44.892403      1221.5844 

                    ********************************
                    * MULLIKEN POPULATION ANALYSIS *
                    ********************************

-----------------------
MULLIKEN ATOMIC CHARGES
-----------------------
   0 O :   -0.701693
   1 H :    0.349846
   2 H :    0.353115
   3 O :   -0.690116
   4 H :    0.341444
   5 H :    0.349776
   6 O :   -0.692266
   7 H :    0.347166
   8 H :    0.342727
Sum of atomic charges:   -0.0000000

--------------------------------
MULLIKEN REDUCED ORBITAL CHARGES
--------------------------------
  0 O s       :     3.813307  s :     3.813307
      pz      :     1.721715  p :     4.861353
      px      :     1.345375
      py      :     1.794263
      dz2     :     0.004320  d :     0.025481
      dxz     :     0.004724
      dyz     :     0.005952
      dx2y2   :     0.002537
      dxy     :     0.007947
      f0      :     0.000091  f :     0.001553
      f+1     :     0.000345
      f-1     :     0.000193
      f+2     :     0.000071
      f-2     :     0.000361
      f+3     :     0.000098
      f-3     :     0.000394
  1 H s       :     0.604329  s :     0.604329
      pz      :     0.017126  p :     0.045824
      px      :     0.013619
      py      :     0.015080
  2 H s       :     0.604608  s :     0.604608
      pz      :     0.011367  p :     0.042277
      px      :     0.017723
      py      :     0.013187
  3 O s       :     3.814883  s :     3.814883
      pz      :     1.498666  p :     4.847164
      px      :     1.531725
      py      :     1.816773
      dz2     :     0.012305  d :     0.026529
      dxz     :     0.001264
      dyz     :     0.003130
      dx2y2   :     0.002169
      dxy     :     0.007662
      f0      :     0.000270  f :     0.001540
      f+1     :     0.000385
      f-1     :     0.000176
      f+2     :     0.000056
      f-2     :     0.000057
      f+3     :     0.000070
      f-3     :     0.000526
  4 H s       :     0.613448  s :     0.613448
      pz      :     0.018819  p :     0.045108
      px      :     0.012422
      py      :     0.013868
  5 H s       :     0.605651  s :     0.605651
      pz      :     0.010576  p :     0.044573
      px      :     0.018300
      py      :     0.015697
  6 O s       :     3.816468  s :     3.816468
      pz      :     1.529614  p :     4.847857
      px      :     1.873679
      py      :     1.444564
      dz2     :     0.011973  d :     0.026426
      dxz     :     0.002738
      dyz     :     0.003004
      dx2y2   :     0.003268
      dxy     :     0.005443
      f0      :     0.000182  f :     0.001515
      f+1     :     0.000131
      f-1     :     0.000458
      f+2     :     0.000079
      f-2     :     0.000043
      f+3     :     0.000492
      f-3     :     0.000130
  7 H s       :     0.608081  s :     0.608081
      pz      :     0.018600  p :     0.044753
      px      :     0.014166
      py      :     0.011987
  8 H s       :     0.613592  s :     0.613592
      pz      :     0.010268  p :     0.043681
      px      :     0.015119
      py      :     0.018294


                     *******************************
                     * LOEWDIN POPULATION ANALYSIS *
                     *******************************

----------------------
LOEWDIN ATOMIC CHARGES
----------------------
   0 O :   -0.338515
   1 H :    0.158590
   2 H :    0.181402
   3 O :   -0.328796
   4 H :    0.161702
   5 H :    0.168233
   6 O :   -0.335212
   7 H :    0.164724
   8 H :    0.167872

-------------------------------
LOEWDIN REDUCED ORBITAL CHARGES
-------------------------------
  0 O s       :     3.475814  s :     3.475814
      pz      :     1.707385  p :     4.827850
      px      :     1.348976
      py      :     1.771489
      dz2     :     0.004992  d :     0.032708
      dxz     :     0.007129
      dyz     :     0.006001
      dx2y2   :     0.004016
      dxy     :     0.010570
      f0      :     0.000077  f :     0.002142
      f+1     :     0.000467
      f-1     :     0.000278
      f+2     :     0.000036
      f-2     :     0.000622
      f+3     :     0.000094
      f-3     :     0.000569
  1 H s       :     0.678640  s :     0.678640
      pz      :     0.066043  p :     0.162770
      px      :     0.043903
      py      :     0.052825
  2 H s       :     0.671388  s :     0.671388
      pz      :     0.033456  p :     0.147210
      px      :     0.070136
      py      :     0.043618
  3 O s       :     3.474203  s :     3.474203
      pz      :     1.506646  p :     4.818425
      px      :     1.524574
      py      :     1.787206
      dz2     :     0.016936  d :     0.033935
      dxz     :     0.002123
      dyz     :     0.002561
      dx2y2   :     0.002346
      dxy     :     0.009969
      f0      :     0.000495  f :     0.002232
      f+1     :     0.000598
      f-1     :     0.000331
      f+2     :     0.000026
      f-2     :     0.000047
      f+3     :     0.000003
      f-3     :     0.000730
  4 H s       :     0.680642  s :     0.680642
      pz      :     0.080056  p :     0.157656
      px      :     0.035350
      py      :     0.042250
  5 H s       :     0.675268  s :     0.675268
      pz      :     0.029671  p :     0.156499
      px      :     0.072013
      py      :     0.054815
  6 O s       :     3.478619  s :     3.478619
      pz      :     1.540421  p :     4.820697
      px      :     1.834913
      py      :     1.445362
      dz2     :     0.015850  d :     0.033710
      dxz     :     0.001843
      dyz     :     0.004357
      dx2y2   :     0.004560
      dxy     :     0.007099
      f0      :     0.000384  f :     0.002187
      f+1     :     0.000208
      f-1     :     0.000773
      f+2     :     0.000050
      f-2     :     0.000045
      f+3     :     0.000651
      f-3     :     0.000076
  7 H s       :     0.677731  s :     0.677731
      pz      :     0.079552  p :     0.157546
      px      :     0.043041
      py      :     0.034952
  8 H s       :     0.679702  s :     0.679702
      pz      :     0.029285  p :     0.152426
      px      :     0.049329
      py      :     0.073811


                      *****************************
                      * MAYER POPULATION ANALYSIS *
                      *****************************

  NA   - Mulliken gross atomic population
  ZA   - Total nuclear charge
  QA   - Mulliken gross atomic charge
  VA   - Mayer's total valence
  BVA  - Mayer's bonded valence
  FA   - Mayer's free valence

  ATOM       NA         ZA         QA         VA         BVA        FA
  0 O      8.7017     8.0000    -0.7017     1.7714     1.7714    -0.0000
  1 H      0.6502     1.0000     0.3498     0.8924     0.8924     0.0000
  2 H      0.6469     1.0000     0.3531     0.8876     0.8876     0.0000
  3 O      8.6901     8.0000    -0.6901     1.7843     1.7843    -0.0000
  4 H      0.6586     1.0000     0.3414     0.8999     0.8999    -0.0000
  5 H      0.6502     1.0000     0.3498     0.8916     0.8916    -0.0000
  6 O      8.6923     8.0000    -0.6923     1.7801     1.7801     0.0000
  7 H      0.6528     1.0000     0.3472     0.8938     0.8938     0.0000
  8 H      0.6573     1.0000     0.3427     0.9013     0.9013    -0.0000

  Mayer bond orders larger than 0.100000
B(  0-O ,  1-H ) :   0.8869 B(  0-O ,  2-H ) :   0.8822 B(  3-O ,  4-H ) :   0.8914 
B(  3-O ,  5-H ) :   0.8869 B(  6-O ,  7-H ) :   0.8883 B(  6-O ,  8-H ) :   0.8891 


-------
TIMINGS
-------

Total SCF time: 0 days 0 hours 0 min 2 sec 

Total time                  ....       2.264 sec
Sum of individual times     ....       2.091 sec  ( 92.4%)

Fock matrix formation       ....       1.917 sec  ( 84.7%)
Diagonalization             ....       0.017 sec  (  0.7%)
Density matrix formation    ....       0.003 sec  (  0.1%)
Population analysis         ....       0.003 sec  (  0.1%)
Initial guess               ....       0.106 sec  (  4.7%)
Orbital Transformation      ....       0.000 sec  (  0.0%)
Orbital Orthonormalization  ....       0.000 sec  (  0.0%)
DIIS solution               ....       0.006 sec  (  0.3%)
SOSCF solution              ....       0.006 sec  (  0.2%)


           ************************************************************
           *        Program running with 6 parallel MPI-processes     *
           *              working on a common directory               *
           ************************************************************

------------------------------------------------------------------------------
                                ORCA  MP2 
------------------------------------------------------------------------------

Freezing NCore=6 chemical core electrons
MP2 will be done in the AO integral direct mode
The Q1-step will be done using symmetric double matrices
Dimension of the basis                    ...  129
Memory devoted for MP2                    ... 8000 MB   
Memory needed for all in one shot         ...   18 MB
Number of MOs that can be treated together...  968      
MP2 density construction                  ... relaxed
The MP2 gradient is requested => amplitudes will be stored on disk
Total number of MOs              ...   12
Number of MOs treated per batch  ...    2 
Number of batches necessary      ...    1 
OPERATORS   0/  0 PASS   0
-----------------------------------------------
 MP2 CORRELATION ENERGY   :     -0.767414018 Eh
-----------------------------------------------


---------------------
MP2 DENSITY FORMATION
---------------------

Completing the external part of the density      ... done
Storing the unrelaxed density                    ... done

Calculating G(D)                                 ... done
Completing the Lagrangian                        ... done
Solving the Z-vector equations                   ... 

------------------------------------------------------------------------------
                           ORCA CP-SCF CALCULATION
------------------------------------------------------------------------------

Input orbitals are from        ... 12h2o.su.etal.mol1,3,4-orca.engrad-mp2.def2tzvp.frozencore.gbw
Input Perturbation             ... 12h2o.su.etal.mol1,3,4-orca.engrad-mp2.def2tzvp.frozencore.pin.tmp
Wavefunction output            ... 12h2o.su.etal.mol1,3,4-orca.engrad-mp2.def2tzvp.frozencore.pout.tmp
Perturbation mode              ... Real perturbation (singlet)
Solver                         ... POPLE
Max. number of iterations      ... 128
Convergence tolerance          ... 1.000e-08
Integral handling              ... Direct
Number of perturbations        ... 1
Number of operators            ... 1
Orbital ranges used for CP-SCF:
 Operator 0:  Orbitals   0... 14  to  15...128
Variables per vector in CP-SCF ... 1710
Number of vectors sought       ... 1
     CP-SCF ITERATION   0: 
     CP-SCF ITERATION   1:      0.000340414720
     CP-SCF ITERATION   2:      0.000006535153
     CP-SCF ITERATION   3:      0.000000181479
     CP-SCF ITERATION   4:      0.000000003361
                                                 ... done
Finalizing the relaxed density                   ... done
Transforming P to the AO basis                   ... done
Storing the relaxed density                      ... done

------------------------------------
ENERGY WEIGHTED DENSITY FINALIZATION
------------------------------------

Gathering the parts of the W-matrix              ...                                                      done
Forming the Z-density                            ... done
Transforming Z to the AO basis                   ... done
Calculating G(Z)                                 ... done
Finalizing the W-matrix                          ...                                                      done
Transforming W to the AO basis and storing       ... done

                *********************************************
                * UNRELAXED MP2 DENSITY POPULATION ANALYSIS *
                *********************************************

------------------------------------------------------------------------------
                           ORCA POPULATION ANALYSIS
------------------------------------------------------------------------------
Input electron density              ... 12h2o.su.etal.mol1,3,4-orca.engrad-mp2.def2tzvp.frozencore.pmp2ur
BaseName (.gbw .S,...)              ... 12h2o.su.etal.mol1,3,4-orca.engrad-mp2.def2tzvp.frozencore

                    ********************************
                    * MULLIKEN POPULATION ANALYSIS *
                    ********************************

-----------------------
MULLIKEN ATOMIC CHARGES
-----------------------
   0 O :   -0.696963
   1 H :    0.347724
   2 H :    0.350546
   3 O :   -0.685239
   4 H :    0.338978
   5 H :    0.347426
   6 O :   -0.687327
   7 H :    0.344789
   8 H :    0.340066
Sum of atomic charges:   -0.0000000

--------------------------------
MULLIKEN REDUCED ORBITAL CHARGES
--------------------------------
  0 O s       :     3.808512  s :     3.808512
      pz      :     1.711306  p :     4.832538
      px      :     1.338080
      py      :     1.783152
      dz2     :     0.009668  d :     0.051823
      dxz     :     0.009962
      dyz     :     0.011231
      dx2y2   :     0.007845
      dxy     :     0.013116
      f0      :     0.000458  f :     0.004090
      f+1     :     0.000703
      f-1     :     0.000556
      f+2     :     0.000436
      f-2     :     0.000722
      f+3     :     0.000465
      f-3     :     0.000750
  1 H s       :     0.604828  s :     0.604828
      pz      :     0.017618  p :     0.047448
      px      :     0.014014
      py      :     0.015816
  2 H s       :     0.605573  s :     0.605573
      pz      :     0.012221  p :     0.043881
      px      :     0.017683
      py      :     0.013977
  3 O s       :     3.810072  s :     3.810072
      pz      :     1.489881  p :     4.818291
      px      :     1.522873
      py      :     1.805537
      dz2     :     0.017250  d :     0.052792
      dxz     :     0.006569
      dyz     :     0.008520
      dx2y2   :     0.007606
      dxy     :     0.012846
      f0      :     0.000644  f :     0.004085
      f+1     :     0.000748
      f-1     :     0.000546
      f+2     :     0.000413
      f-2     :     0.000419
      f+3     :     0.000437
      f-3     :     0.000878
  4 H s       :     0.614251  s :     0.614251
      pz      :     0.018913  p :     0.046771
      px      :     0.013118
      py      :     0.014740
  5 H s       :     0.606367  s :     0.606367
      pz      :     0.011358  p :     0.046207
      px      :     0.018476
      py      :     0.016373
  6 O s       :     3.811576  s :     3.811576
      pz      :     1.520408  p :     4.819006
      px      :     1.862187
      py      :     1.436411
      dz2     :     0.016937  d :     0.052690
      dxz     :     0.008160
      dyz     :     0.008232
      dx2y2   :     0.008619
      dxy     :     0.010742
      f0      :     0.000560  f :     0.004055
      f+1     :     0.000500
      f-1     :     0.000819
      f+2     :     0.000438
      f-2     :     0.000405
      f+3     :     0.000841
      f-3     :     0.000492
  7 H s       :     0.608825  s :     0.608825
      pz      :     0.018734  p :     0.046386
      px      :     0.015042
      py      :     0.012610
  8 H s       :     0.614595  s :     0.614595
      pz      :     0.011112  p :     0.045339
      px      :     0.015888
      py      :     0.018339


                     *******************************
                     * LOEWDIN POPULATION ANALYSIS *
                     *******************************

----------------------
LOEWDIN ATOMIC CHARGES
----------------------
   0 O :   -0.335738
   1 H :    0.157499
   2 H :    0.179795
   3 O :   -0.325920
   4 H :    0.160241
   5 H :    0.166899
   6 O :   -0.332278
   7 H :    0.163339
   8 H :    0.166162

-------------------------------
LOEWDIN REDUCED ORBITAL CHARGES
-------------------------------
  0 O s       :     3.472053  s :     3.472053
      pz      :     1.697001  p :     4.798730
      px      :     1.341131
      py      :     1.760598
      dz2     :     0.010420  d :     0.060083
      dxz     :     0.012583
      dyz     :     0.011558
      dx2y2   :     0.009434
      dxy     :     0.016088
      f0      :     0.000454  f :     0.004871
      f+1     :     0.000872
      f-1     :     0.000660
      f+2     :     0.000408
      f-2     :     0.001027
      f+3     :     0.000474
      f-3     :     0.000977
  1 H s       :     0.676648  s :     0.676648
      pz      :     0.067274  p :     0.165853
      px      :     0.044745
      py      :     0.053833
  2 H s       :     0.669807  s :     0.669807
      pz      :     0.034292  p :     0.150397
      px      :     0.071472
      py      :     0.044634
  3 O s       :     3.470437  s :     3.470437
      pz      :     1.497474  p :     4.789236
      px      :     1.515486
      py      :     1.776275
      dz2     :     0.022596  d :     0.061278
      dxz     :     0.007363
      dyz     :     0.007890
      dx2y2   :     0.007767
      dxy     :     0.015661
      f0      :     0.000910  f :     0.004969
      f+1     :     0.001015
      f-1     :     0.000724
      f+2     :     0.000388
      f-2     :     0.000417
      f+3     :     0.000375
      f-3     :     0.001140
  4 H s       :     0.678865  s :     0.678865
      pz      :     0.081713  p :     0.160894
      px      :     0.036096
      py      :     0.043085
  5 H s       :     0.673444  s :     0.673444
      pz      :     0.030403  p :     0.159657
      px      :     0.073389
      py      :     0.055865
  6 O s       :     3.474772  s :     3.474772
      pz      :     1.530911  p :     4.791513
      px      :     1.823833
      py      :     1.436768
      dz2     :     0.021464  d :     0.061074
      dxz     :     0.007196
      dyz     :     0.009600
      dx2y2   :     0.010110
      dxy     :     0.012703
      f0      :     0.000792  f :     0.004919
      f+1     :     0.000593
      f-1     :     0.001201
      f+2     :     0.000417
      f-2     :     0.000413
      f+3     :     0.001055
      f-3     :     0.000449
  7 H s       :     0.675939  s :     0.675939
      pz      :     0.081173  p :     0.160722
      px      :     0.043843
      py      :     0.035706
  8 H s       :     0.678152  s :     0.678152
      pz      :     0.030092  p :     0.155687
      px      :     0.050302
      py      :     0.075293


                      *****************************
                      * MAYER POPULATION ANALYSIS *
                      *****************************

  NA   - Mulliken gross atomic population
  ZA   - Total nuclear charge
  QA   - Mulliken gross atomic charge
  VA   - Mayer's total valence
  BVA  - Mayer's bonded valence
  FA   - Mayer's free valence

  ATOM       NA         ZA         QA         VA         BVA        FA
  0 O      8.6970     8.0000    -0.6970     2.0760     1.6894     0.3866
  1 H      0.6523     1.0000     0.3477     0.8981     0.8521     0.0460
  2 H      0.6495     1.0000     0.3505     0.8935     0.8451     0.0484
  3 O      8.6852     8.0000    -0.6852     2.0867     1.7019     0.3848
  4 H      0.6610     1.0000     0.3390     0.9062     0.8582     0.0480
  5 H      0.6526     1.0000     0.3474     0.8974     0.8503     0.0471
  6 O      8.6873     8.0000    -0.6873     2.0832     1.6969     0.3864
  7 H      0.6552     1.0000     0.3448     0.8998     0.8524     0.0474
  8 H      0.6599     1.0000     0.3401     0.9077     0.8588     0.0489

  Mayer bond orders larger than 0.100000
B(  0-O ,  1-H ) :   0.8471 B(  0-O ,  2-H ) :   0.8401 B(  3-O ,  4-H ) :   0.8501 
B(  3-O ,  5-H ) :   0.8460 B(  6-O ,  7-H ) :   0.8473 B(  6-O ,  8-H ) :   0.8471 



                *******************************************
                * RELAXED MP2 DENSITY POPULATION ANALYSIS *
                *******************************************

------------------------------------------------------------------------------
                           ORCA POPULATION ANALYSIS
------------------------------------------------------------------------------
Input electron density              ... 12h2o.su.etal.mol1,3,4-orca.engrad-mp2.def2tzvp.frozencore.pmp2re
BaseName (.gbw .S,...)              ... 12h2o.su.etal.mol1,3,4-orca.engrad-mp2.def2tzvp.frozencore

                    ********************************
                    * MULLIKEN POPULATION ANALYSIS *
                    ********************************

-----------------------
MULLIKEN ATOMIC CHARGES
-----------------------
   0 O :   -0.683735
   1 H :    0.341225
   2 H :    0.344605
   3 O :   -0.671208
   4 H :    0.332176
   5 H :    0.340990
   6 O :   -0.673610
   7 H :    0.337908
   8 H :    0.331649
Sum of atomic charges:   -0.0000000

--------------------------------
MULLIKEN REDUCED ORBITAL CHARGES
--------------------------------
  0 O s       :     3.813401  s :     3.813401
      pz      :     1.705172  p :     4.816811
      px      :     1.334718
      py      :     1.776920
      dz2     :     0.009373  d :     0.049506
      dxz     :     0.009381
      dyz     :     0.010938
      dx2y2   :     0.007589
      dxy     :     0.012225
      f0      :     0.000456  f :     0.004017
      f+1     :     0.000684
      f-1     :     0.000547
      f+2     :     0.000436
      f-2     :     0.000701
      f+3     :     0.000464
      f-3     :     0.000729
  1 H s       :     0.610618  s :     0.610618
      pz      :     0.017719  p :     0.048157
      px      :     0.013956
      py      :     0.016481
  2 H s       :     0.610847  s :     0.610847
      pz      :     0.013117  p :     0.044549
      px      :     0.016681
      py      :     0.014751
  3 O s       :     3.815254  s :     3.815254
      pz      :     1.483774  p :     4.801505
      px      :     1.517875
      py      :     1.799856
      dz2     :     0.015840  d :     0.050440
      dxz     :     0.006502
      dyz     :     0.008486
      dx2y2   :     0.007525
      dxy     :     0.012087
      f0      :     0.000625  f :     0.004009
      f+1     :     0.000725
      f-1     :     0.000535
      f+2     :     0.000414
      f-2     :     0.000418
      f+3     :     0.000438
      f-3     :     0.000853
  4 H s       :     0.620242  s :     0.620242
      pz      :     0.018129  p :     0.047582
      px      :     0.013714
      py      :     0.015739
  5 H s       :     0.612075  s :     0.612075
      pz      :     0.012042  p :     0.046935
      px      :     0.017969
      py      :     0.016925
  6 O s       :     3.816512  s :     3.816512
      pz      :     1.512729  p :     4.802810
      px      :     1.858096
      py      :     1.431985
      dz2     :     0.015659  d :     0.050307
      dxz     :     0.008197
      dyz     :     0.007958
      dx2y2   :     0.008305
      dxy     :     0.010189
      f0      :     0.000545  f :     0.003981
      f+1     :     0.000494
      f-1     :     0.000788
      f+2     :     0.000439
      f-2     :     0.000403
      f+3     :     0.000820
      f-3     :     0.000492
  7 H s       :     0.614991  s :     0.614991
      pz      :     0.018042  p :     0.047101
      px      :     0.016041
      py      :     0.013019
  8 H s       :     0.622259  s :     0.622259
      pz      :     0.011887  p :     0.046092
      px      :     0.016656
      py      :     0.017549


                     *******************************
                     * LOEWDIN POPULATION ANALYSIS *
                     *******************************

----------------------
LOEWDIN ATOMIC CHARGES
----------------------
   0 O :   -0.338882
   1 H :    0.159185
   2 H :    0.181659
   3 O :   -0.328462
   4 H :    0.161531
   5 H :    0.168626
   6 O :   -0.335193
   7 H :    0.164662
   8 H :    0.166874

-------------------------------
LOEWDIN REDUCED ORBITAL CHARGES
-------------------------------
  0 O s       :     3.474151  s :     3.474151
      pz      :     1.696241  p :     4.801143
      px      :     1.346227
      py      :     1.758675
      dz2     :     0.010228  d :     0.058697
      dxz     :     0.012191
      dyz     :     0.011495
      dx2y2   :     0.009201
      dxy     :     0.015582
      f0      :     0.000456  f :     0.004891
      f+1     :     0.000879
      f-1     :     0.000660
      f+2     :     0.000408
      f-2     :     0.001026
      f+3     :     0.000477
      f-3     :     0.000984
  1 H s       :     0.674974  s :     0.674974
      pz      :     0.067351  p :     0.165841
      px      :     0.043973
      py      :     0.054517
  2 H s       :     0.667799  s :     0.667799
      pz      :     0.035048  p :     0.150542
      px      :     0.070043
      py      :     0.045450
  3 O s       :     3.472748  s :     3.472748
      pz      :     1.499238  p :     4.790842
      px      :     1.517470
      py      :     1.774134
      dz2     :     0.021780  d :     0.059887
      dxz     :     0.007212
      dyz     :     0.007916
      dx2y2   :     0.007694
      dxy     :     0.015285
      f0      :     0.000910  f :     0.004985
      f+1     :     0.001023
      f-1     :     0.000722
      f+2     :     0.000390
      f-2     :     0.000417
      f+3     :     0.000375
      f-3     :     0.001148
  4 H s       :     0.677261  s :     0.677261
      pz      :     0.080949  p :     0.161208
      px      :     0.036223
      py      :     0.044036
  5 H s       :     0.671655  s :     0.671655
      pz      :     0.030671  p :     0.159720
      px      :     0.072658
      py      :     0.056391
  6 O s       :     3.476929  s :     3.476929
      pz      :     1.531637  p :     4.793655
      px      :     1.821932
      py      :     1.440086
      dz2     :     0.020748  d :     0.059672
      dxz     :     0.007264
      dyz     :     0.009343
      dx2y2   :     0.009898
      dxy     :     0.012419
      f0      :     0.000789  f :     0.004937
      f+1     :     0.000592
      f-1     :     0.001211
      f+2     :     0.000420
      f-2     :     0.000411
      f+3     :     0.001063
      f-3     :     0.000451
  7 H s       :     0.674493  s :     0.674493
      pz      :     0.080508  p :     0.160845
      px      :     0.044797
      py      :     0.035540
  8 H s       :     0.677160  s :     0.677160
      pz      :     0.030582  p :     0.155966
      px      :     0.051110
      py      :     0.074274


                      *****************************
                      * MAYER POPULATION ANALYSIS *
                      *****************************

  NA   - Mulliken gross atomic population
  ZA   - Total nuclear charge
  QA   - Mulliken gross atomic charge
  VA   - Mayer's total valence
  BVA  - Mayer's bonded valence
  FA   - Mayer's free valence

  ATOM       NA         ZA         QA         VA         BVA        FA
  0 O      8.6837     8.0000    -0.6837     2.0813     1.6996     0.3818
  1 H      0.6588     1.0000     0.3412     0.9027     0.8567     0.0460
  2 H      0.6554     1.0000     0.3446     0.8979     0.8493     0.0486
  3 O      8.6712     8.0000    -0.6712     2.0934     1.7137     0.3798
  4 H      0.6678     1.0000     0.3322     0.9120     0.8640     0.0480
  5 H      0.6590     1.0000     0.3410     0.9021     0.8549     0.0472
  6 O      8.6736     8.0000    -0.6736     2.0881     1.7066     0.3815
  7 H      0.6621     1.0000     0.3379     0.9054     0.8579     0.0475
  8 H      0.6684     1.0000     0.3316     0.9164     0.8677     0.0487

  Mayer bond orders larger than 0.100000
B(  0-O ,  1-H ) :   0.8515 B(  0-O ,  2-H ) :   0.8442 B(  3-O ,  4-H ) :   0.8541 
B(  3-O ,  5-H ) :   0.8505 B(  6-O ,  7-H ) :   0.8517 B(  6-O ,  8-H ) :   0.8513 



----------------------------------
MP2 DERIVATIVE INTEGRAL GENERATION
----------------------------------


Input Wavefunction Amplitudes       ... 12h2o.su.etal.mol1,3,4-orca.engrad-mp2.def2tzvp.frozencore.mp2tsaa.tmp
Input Correlated Electron Density   ... 12h2o.su.etal.mol1,3,4-orca.engrad-mp2.def2tzvp.frozencore.pmp2re
Input Energy Weighted Density       ... 12h2o.su.etal.mol1,3,4-orca.engrad-mp2.def2tzvp.frozencore.wmp2.tmp
Input SCF Electron Density          ... 12h2o.su.etal.mol1,3,4-orca.engrad-mp2.def2tzvp.frozencore.scfp

One-Electron Terms    ...
                        ... One-Electron Terms done
Prescreening matrices              ... done

Batch handling in the gradient evaluation:
Memory available                      ... 8000.0 MB
Memory per occupied orbital in Q2     ...    1.5 MB
Memory per occupied orbital in Q3     ...    0.0 MB
Total memory requirement per |i>      ...    1.6 MB
Max. Number of orbitals possible      ...   5089
Number of orbitals treated per batch  ...     12
Number of batches to be done          ...      1
Batch   0: i=    3 ...    14

---------------------------------------
MP2 TOTAL ENERGY:     -228.939750188 Eh
---------------------------------------

The final MP2 gradient
  0:  -0.02708019   0.00910428   0.00255483
  1:  -0.00241961   0.00160538  -0.00129541
  2:   0.02935309  -0.01064314  -0.00012563
  3:  -0.00717782   0.00605757  -0.00903724
  4:  -0.00163886  -0.00041805   0.00894938
  5:   0.00901734  -0.00562845  -0.00056260
  6:   0.00845920   0.01477330   0.01023703
  7:  -0.00130505   0.00365859  -0.00787062
  8:  -0.00720809  -0.01850946  -0.00284975

-----------------------------------
NORM OF THE MP2 GRADIENT:  0.055211
-----------------------------------

-------------------------   --------------------
FINAL SINGLE POINT ENERGY      -228.939750188280
-------------------------   --------------------


                            ***************************************
                            *     ORCA property calculations      *
                            ***************************************

                                    ---------------------
                                    Active property flags
                                    ---------------------
   (+) Dipole Moment


------------------------------------------------------------------------------
                       ORCA ELECTRIC PROPERTIES CALCULATION
------------------------------------------------------------------------------

Dipole Moment Calculation                       ... on
Quadrupole Moment Calculation                   ... off
Polarizability Calculation                      ... off
GBWName                                         ... 12h2o.su.etal.mol1,3,4-orca.engrad-mp2.def2tzvp.frozencore.gbw
Electron density file                           ... 12h2o.su.etal.mol1,3,4-orca.engrad-mp2.def2tzvp.frozencore.scfp
The origin for moment calculation is the CENTER OF MASS  = (-2.778704, -0.026031 -0.024316)

-------------
DIPOLE MOMENT
-------------
                                X             Y             Z
Electronic contribution:     -0.05086       0.23197      -0.06282
Nuclear contribution   :      0.31000      -1.69920       0.54442
                        -----------------------------------------
Total Dipole Moment    :      0.25915      -1.46722       0.48160
                        -----------------------------------------
Magnitude (a.u.)       :      1.56584
Magnitude (Debye)      :      3.98004



--------------------
Rotational spectrum 
--------------------
 
Rotational constants in cm-1:     0.183793     0.057482     0.044269 
Rotational constants in MHz :  5509.976392  1723.279242  1327.147617 

 Dipole components along the rotational axes: 
x,y,z [a.u.] :     0.547912    -1.290745    -0.696859 
x,y,z [Debye]:     1.392681    -3.280813    -1.771275 

 

                         *** MP2 UNRELAXED DENSITY ***

------------------------------------------------------------------------------
                       ORCA ELECTRIC PROPERTIES CALCULATION
------------------------------------------------------------------------------

Dipole Moment Calculation                       ... on
Quadrupole Moment Calculation                   ... off
Polarizability Calculation                      ... off
GBWName                                         ... 12h2o.su.etal.mol1,3,4-orca.engrad-mp2.def2tzvp.frozencore.gbw
Electron density file                           ... 12h2o.su.etal.mol1,3,4-orca.engrad-mp2.def2tzvp.frozencore.pmp2ur
The origin for moment calculation is the CENTER OF MASS  = (-2.778704, -0.026031 -0.024316)

-------------
DIPOLE MOMENT
-------------
                                X             Y             Z
Electronic contribution:     -0.05438       0.24896      -0.06810
Nuclear contribution   :      0.31000      -1.69920       0.54442
                        -----------------------------------------
Total Dipole Moment    :      0.25562      -1.45024       0.47632
                        -----------------------------------------
Magnitude (a.u.)       :      1.54772
Magnitude (Debye)      :      3.93398



--------------------
Rotational spectrum 
--------------------
 
Rotational constants in cm-1:     0.183793     0.057482     0.044269 
Rotational constants in MHz :  5509.976392  1723.279242  1327.147617 

 Dipole components along the rotational axes: 
x,y,z [a.u.] :     0.541873    -1.275950    -0.688295 
x,y,z [Debye]:     1.377331    -3.243207    -1.749506 

 

                           *** MP2 RELAXED DENSITY ***

------------------------------------------------------------------------------
                       ORCA ELECTRIC PROPERTIES CALCULATION
------------------------------------------------------------------------------

Dipole Moment Calculation                       ... on
Quadrupole Moment Calculation                   ... off
Polarizability Calculation                      ... off
GBWName                                         ... 12h2o.su.etal.mol1,3,4-orca.engrad-mp2.def2tzvp.frozencore.gbw
Electron density file                           ... 12h2o.su.etal.mol1,3,4-orca.engrad-mp2.def2tzvp.frozencore.pmp2re
The origin for moment calculation is the CENTER OF MASS  = (-2.778704, -0.026031 -0.024316)

-------------
DIPOLE MOMENT
-------------
                                X             Y             Z
Electronic contribution:     -0.05709       0.26510      -0.07399
Nuclear contribution   :      0.31000      -1.69920       0.54442
                        -----------------------------------------
Total Dipole Moment    :      0.25291      -1.43410       0.47044
                        -----------------------------------------
Magnitude (a.u.)       :      1.53033
Magnitude (Debye)      :      3.88980



--------------------
Rotational spectrum 
--------------------
 
Rotational constants in cm-1:     0.183793     0.057482     0.044269 
Rotational constants in MHz :  5509.976392  1723.279242  1327.147617 

 Dipole components along the rotational axes: 
x,y,z [a.u.] :     0.535254    -1.261742    -0.680760 
x,y,z [Debye]:     1.360507    -3.207092    -1.730355 

 

Timings for individual modules:

Sum of individual times         ...        8.449 sec (=   0.141 min)
GTO integral calculation        ...        0.996 sec (=   0.017 min)  11.8 %
SCF iterations                  ...        3.124 sec (=   0.052 min)  37.0 %
MP2 module                      ...        4.329 sec (=   0.072 min)  51.2 %
                             ****ORCA TERMINATED NORMALLY****
TOTAL RUN TIME: 0 days 0 hours 0 minutes 9 seconds 428 msec
