
                                 *****************
                                 * O   R   C   A *
                                 *****************

           --- An Ab Initio, DFT and Semiempirical electronic structure package ---

                  #######################################################
                  #                        -***-                        #
                  #  Department of molecular theory and spectroscopy    #
                  #              Directorship: Frank Neese              #
                  # Max Planck Institute for Chemical Energy Conversion #
                  #                  D-45470 Muelheim/Ruhr              #
                  #                       Germany                       #
                  #                                                     #
                  #                  All rights reserved                #
                  #                        -***-                        #
                  #######################################################


                         Program Version 3.0.3 - RELEASE   -


 With contributions from (in alphabetic order):
   Ute Becker             : Parallelization
   Dmytro Bykov           : SCF Hessian
   Dmitry Ganyushin       : Spin-Orbit,Spin-Spin,Magnetic field MRCI
   Andreas Hansen         : Spin unrestricted coupled pair/coupled cluster methods
   Dimitrios Liakos       : Extrapolation schemes; parallel MDCI
   Robert Izsak           : Overlap fitted RIJCOSX, COSX-SCS-MP3
   Christian Kollmar      : KDIIS, OOCD, Brueckner-CCSD(T), CCSD density
   Simone Kossmann        : Meta GGA functionals, TD-DFT gradient, OOMP2, MP2 Hessian
   Taras Petrenko         : DFT Hessian,TD-DFT gradient, ASA and ECA modules, normal mode analysis, Resonance Raman, ABS, FL, XAS/XES, NRVS
   Christoph Reimann      : Effective Core Potentials
   Michael Roemelt        : Restricted open shell CIS
   Christoph Riplinger    : Improved optimizer, TS searches, QM/MM, DLPNO-CCSD
   Barbara Sandhoefer     : DKH picture change effects
   Igor Schapiro          : Molecular dynamics
   Kantharuban Sivalingam : CASSCF convergence, NEVPT2
   Boris Wezisla          : Elementary symmetry handling
   Frank Wennmohs         : Technical directorship


 We gratefully acknowledge several colleagues who have allowed us to
 interface, adapt or use parts of their codes:
   Stefan Grimme, W. Hujo, H. Kruse, T. Risthaus : VdW corrections, initial TS optimization,
                                                   DFT functionals, gCP
   Ed Valeev                                     : LibInt (2-el integral package), F12 methods
   Garnet Chan, S. Sharma, R. Olivares           : DMRG
   Ulf Ekstrom                                   : XCFun DFT Library
   Mihaly Kallay                                 : mrcc  (arbitrary order and MRCC methods)
   Andreas Klamt, Michael Diedenhofen            : otool_cosmo (COSMO solvation model)
   Frank Weinhold                                : gennbo (NPA and NBO analysis)
   Christopher J. Cramer and Donald G. Truhlar   : smd solvation model


 Your calculation uses the libint2 library for the computation of 2-el integrals
 For citations please refer to: http://libint.valeyev.net

 This ORCA versions uses:
   CBLAS   interface :  Fast vector & matrix operations
   LAPACKE interface :  Fast linear algebra routines
   SCALAPACK package :  Parallel linear algebra routines


Your calculation utilizes the basis: Ahlrichs-VDZ
Cite in your paper:
H - Kr: A. Schaefer, H. Horn and R. Ahlrichs, J. Chem. Phys. 97, 2571 (1992).

Your calculation utilizes the basis: Ahlrichs SVPalls1+f
Cite in your paper:
Rb - Xe: A. Schaefer, C. Huber and R. Ahlrichs, J. Chem. Phys. 100, 5829 (1994).

Your calculation utilizes the atom-pairwise dispersion correction
with the Becke-Johnson damping scheme (D3BJ)
Cite in your paper:
S.Grimme, S.Ehrlich, L.Goerigk, J Comput Chem, (2011), 32, 1456–1465 
S.Grimme, J.Antony, S.Ehrlich and H.Krieg, J.Chem.Phys., 132, (2010), 154104 
   

================================================================================
                                        WARNINGS
                       Please study these warnings very carefully!
================================================================================
Now building the actual basis set

WARNING: Geometry Optimization
  ===> : Switching off AutoStart
         For restart on a previous wavefunction, please use MOREAD


INFO   : the flag for use of LIBINT has been found!

================================================================================
                                       INPUT FILE
================================================================================
NAME = 4_B3LYP_SMD_4_h2o_rst.inp
|  1> ! B3LYP Def2-SVP def2-SVP/J RIJCOSX TightSCF Grid4 D3BJ COSMO OPT
|  2> 
|  3> %pal nprocs 12 end
|  4> 
|  5> %scf
|  6>         maxiter 800
|  7> end
|  8> 
|  9> %cosmo
| 10>         SMD true
| 11>         solvent "WATER"
| 12> end
| 13> 
| 14> * xyz  0  1
| 15>   O     -0.180384    0.762615   -1.642601
| 16>   H      0.247167   -0.078166   -1.479749
| 17>   H     -0.796274    0.584951   -2.353479
| 18>   O     -0.605612    1.714052    0.854336
| 19>   H     -0.547640    1.306417   -0.009785
| 20>   H     -0.515656    2.651653    0.683910
| 21>   O      0.929260   -1.634735   -0.959238
| 22>   H      1.871177   -1.804965   -0.952443
| 23>   H      0.665463   -1.708324   -0.042053
| 24>   O     -0.112940   -0.857326    1.807599
| 25>   H     -0.314458    0.015397    1.469996
| 26>   H     -0.656660   -0.943162    2.590691
| 27> **                         ****END OF INPUT****
================================================================================

                       *****************************
                       * Geometry Optimization Run *
                       *****************************

Geometry optimization settings:
Update method            Update   .... BFGS
Choice of coordinates    CoordSys .... Redundant Internals
Initial Hessian          InHess   .... Almoef's Model

Convergence Tolerances:
Energy Change            TolE     ....  5.0000e-06 Eh
Max. Gradient            TolMAXG  ....  3.0000e-04 Eh/bohr
RMS Gradient             TolRMSG  ....  1.0000e-04 Eh/bohr
Max. Displacement        TolMAXD  ....  4.0000e-03 bohr
RMS Displacement         TolRMSD  ....  2.0000e-03 bohr

------------------------------------------------------------------------------
                        ORCA OPTIMIZATION COORDINATE SETUP
------------------------------------------------------------------------------

The optimization will be done in new redundant internal coordinates
Making redundant internal coordinates   ...  (new redundants) done
Evaluating the initial hessian          ...  (Almloef) done
Evaluating the coordinates              ...  done
Calculating the B-matrix                .... done
Calculating the G-matrix                .... done
Diagonalizing the G-matrix              .... done
The first mode is                       ....   66
The number of degrees of freedom        ....   30

    -----------------------------------------------------------------
                    Redundant Internal Coordinates


    -----------------------------------------------------------------
         Definition                    Initial Value    Approx d2E/dq
    -----------------------------------------------------------------
      1. B(H   1,O   0)                  0.9572         0.525331   
      2. B(H   2,O   0)                  0.9572         0.525331   
      3. B(H   4,H   1)                  2.1702         0.001304   
      4. B(H   4,O   0)                  1.7597         0.027544   
      5. B(H   4,O   3)                  0.9572         0.525332   
      6. B(H   5,O   3)                  0.9572         0.525331   
      7. B(O   6,H   1)                  1.7774         0.025816   
      8. B(H   7,O   6)                  0.9572         0.525332   
      9. B(H   8,O   6)                  0.9572         0.525331   
     10. B(H   8,H   1)                  2.2134         0.001112   
     11. B(O   9,H   8)                  2.1798         0.005887   
     12. B(H  10,H   4)                  1.9776         0.002645   
     13. B(H  10,O   9)                  0.9572         0.525333   
     14. B(H  10,O   3)                  1.8301         0.021271   
     15. B(H  11,O   9)                  0.9572         0.525332   
     16. A(H   2,O   0,H   4)          127.7467         0.209023   
     17. A(H   1,O   0,H   2)          104.5200         0.322920   
     18. A(H   1,O   0,H   4)          101.9346         0.209023   
     19. A(O   0,H   1,H   8)          147.3330         0.135960   
     20. A(H   4,H   1,H   8)           95.6893         0.098773   
     21. A(O   0,H   1,O   6)          172.0911         0.207275   
     22. A(O   6,H   1,H   8)           24.8077         0.112744   
     23. A(O   0,H   1,H   4)           52.5000         0.137681   
     24. A(H   4,H   1,O   6)          120.0617         0.113614   
     25. A(H   4,O   3,H   5)          104.5200         0.322920   
     26. A(H   5,O   3,H  10)          162.5770         0.202204   
     27. A(H   4,O   3,H  10)           84.1908         0.202204   
     28. A(H   1,H   4,H  10)           92.7027         0.100890   
     29. A(O   0,H   4,O   3)          169.0783         0.209023   
     30. A(O   0,H   4,H  10)          117.9018         0.118316   
     31. A(O   3,H   4,H  10)           67.0232         0.146135   
     32. A(O   0,H   4,H   1)           25.5653         0.113978   
     33. A(H   1,H   4,O   3)          154.8735         0.137681   
     34. A(H   1,O   6,H   8)          104.0150         0.207275   
     35. A(H   7,O   6,H   8)          104.5200         0.322920   
     36. A(H   1,O   6,H   7)          122.3752         0.207275   
     37. A(H   1,H   8,O   9)          101.3118         0.105993   
     38. A(O   6,H   8,O   9)          151.8224         0.173644   
     39. A(H   1,H   8,O   6)           51.1773         0.135960   
     40. A(H   8,O   9,H  11)          149.5477         0.173644   
     41. A(H   8,O   9,H  10)           97.5765         0.173644   
     42. A(H  10,O   9,H  11)          104.5200         0.322921   
     43. A(O   3,H  10,H   4)           28.7859         0.116650   
     44. A(H   4,H  10,O   9)          152.1227         0.146135   
     45. D(O   6,H   1,O   0,H   2)   -113.6963         0.429904   
     46. D(O   6,H   1,O   0,H   4)     20.8177         0.429904   
     47. D(H   4,H   1,O   0,H   2)   -134.5139         0.429904   
     48. D(H   8,H   1,O   0,H   4)     15.1499         0.429904   
     49. D(H   8,H   1,O   0,H   2)   -119.3640         0.429904   
     50. D(O   3,H   4,O   0,H   2)   -136.9262         0.001998   
     51. D(O   3,H   4,H   1,O   6)     28.9080         0.001520   
     52. D(O   0,H   4,H   1,O   6)   -176.7609         0.001520   
     53. D(O   0,H   4,O   3,H  10)   -119.0386         0.429907   
     54. D(O   3,H   4,H   1,H   8)     33.8187         0.001520   
     55. D(H  10,H   4,O   0,H   2)    108.6913         0.001998   
     56. D(O   3,H   4,O   0,H   1)    103.8832         0.001998   
     57. D(H   1,H   4,O   3,H  10)    -38.4244         0.429907   
     58. D(O   0,H   4,H   1,H   8)   -171.8503         0.001520   
     59. D(H  10,H   4,H   1,H   8)     -1.1279         0.001520   
     60. D(H  10,H   4,H   1,O   0)    170.7224         0.001520   
     61. D(H  10,H   4,O   0,H   1)    -10.4992         0.001998   
     62. D(O   0,H   4,O   3,H   5)     45.6139         0.429907   
     63. D(H  10,H   4,H   1,O   6)     -6.0386         0.001520   
     64. D(H   1,H   4,O   3,H   5)    126.2281         0.429907   
     65. D(O   3,H   4,H   1,O   0)   -154.3311         0.001520   
     66. D(H  10,H   4,O   3,H   5)    164.6525         0.429907   
     67. D(H   1,H   4,O   0,H   2)    119.1905         0.001998   
     68. D(H   8,O   6,H   1,H   4)     11.7135         0.001935   
     69. D(H   8,O   6,H   1,O   0)     -7.2991         0.001935   
     70. D(H   7,O   6,H   1,H   8)   -117.6600         0.001935   
     71. D(H   7,O   6,H   1,H   4)   -105.9465         0.001935   
     72. D(H   7,O   6,H   1,O   0)   -124.9591         0.001935   
     73. D(O   9,H   8,H   1,O   0)     -8.6945         0.001514   
     74. D(O   6,H   8,H   1,H   4)   -169.8295         0.001514   
     75. D(O   6,H   8,H   1,O   0)    178.1440         0.001514   
     76. D(O   9,H   8,O   6,H   1)    -14.3155         0.393870   
     77. D(O   9,H   8,O   6,H   7)    115.0855         0.393870   
     78. D(H   1,H   8,O   6,H   7)    129.4010         0.393870   
     79. D(O   9,H   8,H   1,O   6)    173.1615         0.001514   
     80. D(O   9,H   8,H   1,H   4)      3.3320         0.001514   
     81. D(H  11,O   9,H   8,H   1)    130.2321         0.001520   
     82. D(H  10,O   9,H   8,H   1)     -6.2603         0.001520   
     83. D(H  10,O   9,H   8,O   6)      5.0694         0.001520   
     84. D(H   8,O   9,O   3,H   5)   -103.1410         0.001501   
     85. D(H   8,O   9,O   3,H   4)     17.4342         0.001501   
     86. D(H  11,O   9,H   8,O   6)    141.5618         0.001520   
     87. D(H  11,O   9,O   3,H   5)     97.1689         0.001501   
     88. D(H  11,O   9,O   3,H   4)   -142.2558         0.001501   
     89. D(H   4,H  10,O   9,H   8)     11.2900         0.393873   
     90. D(H   4,H  10,O   9,H  11)   -147.5832         0.393873   
     91. D(O   3,H  10,H   4,H   1)    164.6814         0.001576   
     92. D(O   3,H  10,H   4,O   0)    169.1966         0.001576   
     93. D(O   9,H  10,H   4,H   1)     -8.7794         0.001576   
     94. D(O   9,H  10,H   4,O   0)     -4.2642         0.001576   
     95. D(O   9,H  10,H   4,O   3)   -173.4608         0.001576   
     96. D(H   4,H  10,O   3,H   5)   -121.1623         0.001767   
    -----------------------------------------------------------------

Number of atoms                         .... 12
Number of degrees of freedom            .... 96

         *************************************************************
         *                GEOMETRY OPTIMIZATION CYCLE   1            *
         *************************************************************
---------------------------------
CARTESIAN COORDINATES (ANGSTROEM)
---------------------------------
  O     -0.180384    0.762615   -1.642601
  H      0.247167   -0.078166   -1.479749
  H     -0.796274    0.584951   -2.353479
  O     -0.605612    1.714052    0.854336
  H     -0.547640    1.306417   -0.009785
  H     -0.515656    2.651653    0.683910
  O      0.929260   -1.634735   -0.959238
  H      1.871177   -1.804965   -0.952443
  H      0.665463   -1.708324   -0.042053
  O     -0.112940   -0.857326    1.807599
  H     -0.314458    0.015397    1.469996
  H     -0.656660   -0.943162    2.590691

----------------------------
CARTESIAN COORDINATES (A.U.)
----------------------------
  NO LB      ZA    FRAG    MASS        X           Y           Z
   0 O     8.0000    0    15.999         -0.340876358941251          1.441133495620355         -3.104066037305182
   1 H     1.0000    0     1.008          0.467077939342914         -0.147712332984089         -2.796320356943838
   2 H     1.0000    0     1.008         -1.504739787562011          1.105397191763370         -4.447430771934854
   3 O     8.0000    0    15.999         -1.144440823416317          3.239088859299989          1.614461066349747
   4 H     1.0000    0     1.008         -1.034889619980634          2.468770346699000         -0.018490970220419
   5 H     1.0000    0     1.008         -0.974448619313297          5.010897972190689          1.292402600250083
   6 O     8.0000    0    15.999          1.756046907207662         -3.089201451535757         -1.812697117250354
   7 H     1.0000    0     1.008          3.536012078092366         -3.410889531313172         -1.799856428170359
   8 H     1.0000    0     1.008          1.257542822257638         -3.228264508004888         -0.079468653109790
   9 O     8.0000    0    15.999         -0.213425669565066         -1.620111347490171          3.415867069949921
  10 H     1.0000    0     1.008         -0.594239500620609          0.029096113283986          2.777889857959704
  11 H     1.0000    0     1.008         -1.240907563100729         -1.782317879921435          4.895696487614582

--------------------------------
INTERNAL COORDINATES (ANGSTROEM)
--------------------------------
 O      0   0   0   0.000000     0.000     0.000
 H      1   0   0   0.957201     0.000     0.000
 H      1   2   0   0.957200   104.520     0.000
 O      1   2   3   2.705688   102.830   138.340
 H      4   1   2   0.957200     7.078   283.062
 H      4   1   2   0.957200    99.518   147.608
 O      2   1   3   1.777383   172.091   246.304
 H      7   2   1   0.957200   122.375   235.041
 H      7   2   1   0.957200   104.015   352.701
 O      9   7   2   2.179753   151.822   345.684
 H     10   9   7   0.957199    97.577     5.069
 H     10   9   7   0.957200   149.548   141.562

---------------------------
INTERNAL COORDINATES (A.U.)
---------------------------
 O      0   0   0   0.000000     0.000     0.000
 H      1   0   0   1.808847     0.000     0.000
 H      1   2   0   1.808847   104.520     0.000
 O      1   2   3   5.113009   102.830   138.340
 H      4   1   2   1.808846     7.078   283.062
 H      4   1   2   1.808847    99.518   147.608
 O      2   1   3   3.358767   172.091   246.304
 H      7   2   1   1.808846   122.375   235.041
 H      7   2   1   1.808847   104.015   352.701
 O      9   7   2   4.119135   151.822   345.684
 H     10   9   7   1.808845    97.577     5.069
 H     10   9   7   1.808846   149.548   141.562

---------------------
BASIS SET INFORMATION
---------------------
There are 2 groups of distinct atoms

 Group   1 Type O   : 7s4p1d contracted to 3s2p1d pattern {511/31/1}
 Group   2 Type H   : 4s1p contracted to 2s1p pattern {31/1}

Atom   0O    basis set group =>   1
Atom   1H    basis set group =>   2
Atom   2H    basis set group =>   2
Atom   3O    basis set group =>   1
Atom   4H    basis set group =>   2
Atom   5H    basis set group =>   2
Atom   6O    basis set group =>   1
Atom   7H    basis set group =>   2
Atom   8H    basis set group =>   2
Atom   9O    basis set group =>   1
Atom  10H    basis set group =>   2
Atom  11H    basis set group =>   2
-------------------------------
AUXILIARY BASIS SET INFORMATION
-------------------------------
There are 2 groups of distinct atoms

 Group   1 Type O   : 12s5p4d2f1g contracted to 6s4p3d1f1g pattern {711111/2111/211/2/1}
 Group   2 Type H   : 5s2p1d contracted to 3s1p1d pattern {311/2/1}

Atom   0O    basis set group =>   1
Atom   1H    basis set group =>   2
Atom   2H    basis set group =>   2
Atom   3O    basis set group =>   1
Atom   4H    basis set group =>   2
Atom   5H    basis set group =>   2
Atom   6O    basis set group =>   1
Atom   7H    basis set group =>   2
Atom   8H    basis set group =>   2
Atom   9O    basis set group =>   1
Atom  10H    basis set group =>   2
Atom  11H    basis set group =>   2
smp-n114.crc.pitt.edu.38703hfi_wait_for_device: The /dev/hfi1_0 device failed to appear after 15.0 seconds: Connection timed out
smp-n114.crc.pitt.edu.38705hfi_wait_for_device: The /dev/hfi1_0 device failed to appear after 15.0 seconds: Connection timed out
smp-n114.crc.pitt.edu.38704hfi_wait_for_device: The /dev/hfi1_0 device failed to appear after 15.0 seconds: Connection timed out
smp-n114.crc.pitt.edu.38706hfi_wait_for_device: The /dev/hfi1_0 device failed to appear after 15.0 seconds: Connection timed out
smp-n114.crc.pitt.edu.38707hfi_wait_for_device: The /dev/hfi1_0 device failed to appear after 15.0 seconds: Connection timed out
smp-n114.crc.pitt.edu.38709hfi_wait_for_device: The /dev/hfi1_0 device failed to appear after 15.0 seconds: Connection timed out
smp-n114.crc.pitt.edu.38708hfi_wait_for_device: The /dev/hfi1_0 device failed to appear after 15.0 seconds: Connection timed out
smp-n114.crc.pitt.edu.38711hfi_wait_for_device: The /dev/hfi1_0 device failed to appear after 15.0 seconds: Connection timed out
smp-n114.crc.pitt.edu.38710hfi_wait_for_device: The /dev/hfi1_0 device failed to appear after 15.0 seconds: Connection timed out
smp-n114.crc.pitt.edu.38713hfi_wait_for_device: The /dev/hfi1_0 device failed to appear after 15.0 seconds: Connection timed out
smp-n114.crc.pitt.edu.38716hfi_wait_for_device: The /dev/hfi1_0 device failed to appear after 15.0 seconds: Connection timed out
smp-n114.crc.pitt.edu.38712hfi_wait_for_device: The /dev/hfi1_0 device failed to appear after 15.0 seconds: Connection timed out


           ************************************************************
           *        Program running with 12 parallel MPI-processes    *
           *              working on a common directory               *
           ************************************************************
------------------------------------------------------------------------------
                           ORCA GTO INTEGRAL CALCULATION
                           -- RI-GTO INTEGRALS CHOSEN --
------------------------------------------------------------------------------

                         BASIS SET STATISTICS AND STARTUP INFO

Gaussian basis set:
 # of primitive gaussian shells          ...   88
 # of primitive gaussian functions       ...  152
 # of contracted shells                  ...   48
 # of contracted basis functions         ...   96
 Highest angular momentum                ...    2
 Maximum contraction depth               ...    5
Auxiliary gaussian basis set:
 # of primitive gaussian shells          ...  160
 # of primitive gaussian functions       ...  408
 # of contracted shells                  ...  100
 # of contracted aux-basis functions     ...  284
 Highest angular momentum                ...    4
 Maximum contraction depth               ...    7
Ratio of auxiliary to basis functions    ...  2.96
Integral package used                  ... LIBINT
 One Electron integrals                  ... done
 Ordering auxiliary basis shells         ... done
 Integral threshhold             Thresh  ...  2.500e-11
 Primitive cut-off               TCut    ...  2.500e-12
 Pre-screening matrix                    ... done
 Shell pair data                         ... 
 Ordering of the shell pairs             ... done (   0.000 sec) 1121 of 1176 pairs
 Determination of significant pairs      ... done (   0.000 sec)
 Creation of shell pair data             ... done (   0.000 sec)
 Storage of shell pair data              ... done (   0.000 sec)
 Shell pair data done in (   0.001 sec)
 Computing two index integrals           ... done
 Cholesky decomposition of the V-matrix  ... done


Timings:
 Total evaluation time                   ...   0.104 sec (  0.002 min)
 One electron matrix time                ...   0.006 sec (  0.000 min) =  5.6%
 Schwartz matrix evaluation time         ...   0.077 sec (  0.001 min) = 73.6%
 Two index repulsion integral time       ...   0.005 sec (  0.000 min) =  5.1%
 Cholesky decomposition of V             ...   0.001 sec (  0.000 min) =  1.3%
 Three index repulsion integral time     ...   0.000 sec (  0.000 min) =  0.0%

           ************************************************************
           *              Shut down parallel processing               *
           ************************************************************
smp-n114.crc.pitt.edu.38729hfi_wait_for_device: The /dev/hfi1_0 device failed to appear after 15.0 seconds: Connection timed out
smp-n114.crc.pitt.edu.38733hfi_wait_for_device: The /dev/hfi1_0 device failed to appear after 15.0 seconds: Connection timed out
smp-n114.crc.pitt.edu.38731hfi_wait_for_device: The /dev/hfi1_0 device failed to appear after 15.0 seconds: Connection timed out
smp-n114.crc.pitt.edu.38732hfi_wait_for_device: The /dev/hfi1_0 device failed to appear after 15.0 seconds: Connection timed out
smp-n114.crc.pitt.edu.38734hfi_wait_for_device: The /dev/hfi1_0 device failed to appear after 15.0 seconds: Connection timed out
smp-n114.crc.pitt.edu.38737hfi_wait_for_device: The /dev/hfi1_0 device failed to appear after 15.0 seconds: Connection timed out
smp-n114.crc.pitt.edu.38738hfi_wait_for_device: The /dev/hfi1_0 device failed to appear after 15.0 seconds: Connection timed out
smp-n114.crc.pitt.edu.38730hfi_wait_for_device: The /dev/hfi1_0 device failed to appear after 15.0 seconds: Connection timed out
smp-n114.crc.pitt.edu.38736hfi_wait_for_device: The /dev/hfi1_0 device failed to appear after 15.0 seconds: Connection timed out
smp-n114.crc.pitt.edu.38735hfi_wait_for_device: The /dev/hfi1_0 device failed to appear after 15.0 seconds: Connection timed out
smp-n114.crc.pitt.edu.38739hfi_wait_for_device: The /dev/hfi1_0 device failed to appear after 15.0 seconds: Connection timed out
smp-n114.crc.pitt.edu.38741hfi_wait_for_device: The /dev/hfi1_0 device failed to appear after 15.0 seconds: Connection timed out


           ************************************************************
           *        Program running with 12 parallel MPI-processes    *
           *              working on a common directory               *
           ************************************************************
-------------------------------------------------------------------------------
                                 ORCA SCF
-------------------------------------------------------------------------------

------------
SCF SETTINGS
------------
Hamiltonian:
 Density Functional     Method          .... DFT(GTOs)
 Exchange Functional    Exchange        .... B88
   X-Alpha parameter    XAlpha          ....  0.666667
   Becke's b parameter  XBeta           ....  0.004200
 Correlation Functional Correlation     .... LYP
 LDA part of GGA corr.  LDAOpt          .... VWN-5
 Gradients option       PostSCFGGA      .... off
 Hybrid DFT is turned on
   Fraction HF Exchange ScalHFX         ....  0.200000
   Scaling of DF-GGA-X  ScalDFX         ....  0.720000
   Scaling of DF-GGA-C  ScalDFC         ....  0.810000
   Scaling of DF-LDA-C  ScalLDAC        ....  1.000000
   Perturbative correction              ....  0.000000
   NL short-range parameter             ....  4.800000
 RI-approximation to the Coulomb term is turned on
   Number of auxiliary basis functions  .... 284
   RIJ-COSX (HFX calculated with COS-X)).... on


General Settings:
 Integral files         IntName         .... 4_B3LYP_SMD_4_h2o_rst
 Hartree-Fock type      HFTyp           .... RHF
 Total Charge           Charge          ....    0
 Multiplicity           Mult            ....    1
 Number of Electrons    NEL             ....   40
 Basis Dimension        Dim             ....   96
 Nuclear Repulsion      ENuc            ....    139.2120832803 Eh

Convergence Acceleration:
 DIIS                   CNVDIIS         .... on
   Start iteration      DIISMaxIt       ....    12
   Startup error        DIISStart       ....  0.200000
   # of expansion vecs  DIISMaxEq       ....     5
   Bias factor          DIISBfac        ....   1.050
   Max. coefficient     DIISMaxC        ....  10.000
 Newton-Raphson         CNVNR           .... off
 SOSCF                  CNVSOSCF        .... on
   Start iteration      SOSCFMaxIt      ....   150
   Startup grad/error   SOSCFStart      ....  0.003300
 Level Shifting         CNVShift        .... on
   Level shift para.    LevelShift      ....    0.2500
   Turn off err/grad.   ShiftErr        ....    0.0010
 Zerner damping         CNVZerner       .... off
 Static damping         CNVDamp         .... on
   Fraction old density DampFac         ....    0.7000
   Max. Damping (<1)    DampMax         ....    0.9800
   Min. Damping (>=0)   DampMin         ....    0.0000
   Turn off err/grad.   DampErr         ....    0.1000
 Fernandez-Rico         CNVRico         .... off

SCF Procedure:
 Maximum # iterations   MaxIter         ....   800
 SCF integral mode      SCFMode         .... Direct
   Integral package                     .... LIBINT
 Reset frequeny         DirectResetFreq ....    20
 Integral Threshold     Thresh          ....  2.500e-11 Eh
 Primitive CutOff       TCut            ....  2.500e-12 Eh

Convergence Tolerance:
 Convergence Check Mode ConvCheckMode   .... Total+1el-Energy
 Energy Change          TolE            ....  1.000e-08 Eh
 1-El. energy change                    ....  1.000e-05 Eh
 Orbital Gradient       TolG            ....  1.000e-05
 Orbital Rotation angle TolX            ....  1.000e-05
 DIIS Error             TolErr          ....  5.000e-07


Diagonalization of the overlap matrix:
Smallest eigenvalue                        ... 2.069e-02
Time for diagonalization                   ...    0.002 sec
Threshold for overlap eigenvalues          ... 1.000e-08
Number of eigenvalues below threshold      ... 0
Time for construction of square roots      ...    0.000 sec
Total time needed                          ...    0.002 sec

-------------------
DFT GRID GENERATION
-------------------

General Integration Accuracy     IntAcc      ...  4.670
Radial Grid Type                 RadialGrid  ... Gauss-Chebyshev
Angular Grid (max. acc.)         AngularGrid ... Lebedev-302
Angular grid pruning method      GridPruning ... 3 (G Style)
Weight generation scheme         WeightScheme... Becke
Basis function cutoff            BFCut       ...    1.0000e-11
Integration weight cutoff        WCut        ...    1.0000e-14
Grids for H and He will be reduced by one unit

# of grid points (after initial pruning)     ...  52000 (   0.0 sec)
# of grid points (after weights+screening)   ...  49249 (   0.0 sec)
nearest neighbour list constructed           ...    0.0 sec
Grid point re-assignment to atoms done       ...    0.0 sec
Grid point division into batches done        ...    0.2 sec
Reduced shell lists constructed in    0.2 sec

Total number of grid points                  ...    49249
Total number of batches                      ...      776
Average number of points per batch           ...       63
Average number of grid points per atom       ...     4104
Average number of shells per batch           ...    35.24 (73.42%)
Average number of basis functions per batch  ...    67.03 (69.82%)
Average number of large shells per batch     ...    25.32 (71.84%)
Average number of large basis fcns per batch ...    44.80 (66.84%)
Maximum spatial batch extension              ...  12.23, 11.23, 11.02 au
Average spatial batch extension              ...   0.15,  0.14,  0.15 au

Time for grid setup =    0.222 sec

------------------------------
INITIAL GUESS: MODEL POTENTIAL
------------------------------
Loading Hartree-Fock densities                     ... done
Calculating cut-offs                               ... done
Setting up the integral package                    ... done
Initializing the effective Hamiltonian             ... done
Starting the Coulomb interaction                   ... done (   0.0 sec)
Reading the grid                                   ... done
Mapping shells                                     ... done
Starting the XC term evaluation                    ... done (   0.0 sec)
  promolecular density results
     # of electrons  =     39.996140801
     EX              =    -35.174178403
     EC              =     -1.364614058
     EX+EC           =    -36.538792461
Transforming the Hamiltonian                       ... done (   0.0 sec)
Diagonalizing the Hamiltonian                      ... done (   0.0 sec)
Back transforming the eigenvectors                 ... done (   0.0 sec)
Now organizing SCF variables                       ... done
                      ------------------
                      INITIAL GUESS DONE (   0.3 sec)
                      ------------------
--------------------
COSX GRID GENERATION
--------------------

General Integration Accuracy     IntAcc      ...  3.340
Radial Grid Type                 RadialGrid  ... Gauss-Chebyshev
Angular Grid (max. acc.)         AngularGrid ... Lebedev-50
Angular grid pruning method      GridPruning ... 3 (G Style)
Weight generation scheme         WeightScheme... Becke
Basis function cutoff            BFCut       ...    1.0000e-11
Integration weight cutoff        WCut        ...    1.0000e-14
Grids for H and He will be reduced by one unit

# of grid points (after initial pruning)     ...   4880 (   0.0 sec)
# of grid points (after weights+screening)   ...   4666 (   0.0 sec)
nearest neighbour list constructed           ...    0.0 sec
Grid point re-assignment to atoms done       ...    0.0 sec
Grid point division into batches done        ...    0.0 sec
Reduced shell lists constructed in    0.0 sec

Total number of grid points                  ...     4666
Total number of batches                      ...       80
Average number of points per batch           ...       58
Average number of grid points per atom       ...      389
Average number of shells per batch           ...    35.12 (73.18%)
Average number of basis functions per batch  ...    68.38 (71.22%)
Average number of large shells per batch     ...    25.75 (73.31%)
Average number of large basis fcns per batch ...    46.25 (67.64%)
Maximum spatial batch extension              ...  11.72, 10.64, 10.00 au
Average spatial batch extension              ...   0.30,  0.27,  0.26 au

Overlap Fitting                  UseSFitting ... on
Constructing numerical overlap ... done (      0.0 sec)
Inverting numerical overlap    ... done (      0.0 sec)
Obtaining analytic overlap     ... done (      0.0 sec)
Final contraction and storage  ... done (      0.0 sec)


General Integration Accuracy     IntAcc      ...  3.670
Radial Grid Type                 RadialGrid  ... Gauss-Chebyshev
Angular Grid (max. acc.)         AngularGrid ... Lebedev-50
Angular grid pruning method      GridPruning ... 3 (G Style)
Weight generation scheme         WeightScheme... Becke
Basis function cutoff            BFCut       ...    1.0000e-11
Integration weight cutoff        WCut        ...    1.0000e-14
Grids for H and He will be reduced by one unit

# of grid points (after initial pruning)     ...   6408 (   0.0 sec)
# of grid points (after weights+screening)   ...   6111 (   0.0 sec)
nearest neighbour list constructed           ...    0.0 sec
Grid point re-assignment to atoms done       ...    0.0 sec
Grid point division into batches done        ...    0.0 sec
Reduced shell lists constructed in    0.0 sec

Total number of grid points                  ...     6111
Total number of batches                      ...      102
Average number of points per batch           ...       59
Average number of grid points per atom       ...      509
Average number of shells per batch           ...    35.70 (74.38%)
Average number of basis functions per batch  ...    69.50 (72.40%)
Average number of large shells per batch     ...    26.50 (74.23%)
Average number of large basis fcns per batch ...    47.90 (68.92%)
Maximum spatial batch extension              ...  12.52, 11.48, 10.60 au
Average spatial batch extension              ...   0.27,  0.25,  0.24 au

Overlap Fitting                  UseSFitting ... on
Constructing numerical overlap ... done (      0.0 sec)
Inverting numerical overlap    ... done (      0.0 sec)
Obtaining analytic overlap     ... done (      0.0 sec)
Final contraction and storage  ... done (      0.0 sec)


General Integration Accuracy     IntAcc      ...  4.010
Radial Grid Type                 RadialGrid  ... Gauss-Chebyshev
Angular Grid (max. acc.)         AngularGrid ... Lebedev-110
Angular grid pruning method      GridPruning ... 3 (G Style)
Weight generation scheme         WeightScheme... Becke
Basis function cutoff            BFCut       ...    1.0000e-11
Integration weight cutoff        WCut        ...    1.0000e-14
Grids for H and He will be reduced by one unit

# of grid points (after initial pruning)     ...  11032 (   0.0 sec)
# of grid points (after weights+screening)   ...  10554 (   0.0 sec)
nearest neighbour list constructed           ...    0.0 sec
Grid point re-assignment to atoms done       ...    0.0 sec
Grid point division into batches done        ...    0.0 sec
Reduced shell lists constructed in    0.0 sec

Total number of grid points                  ...    10554
Total number of batches                      ...      170
Average number of points per batch           ...       62
Average number of grid points per atom       ...      880
Average number of shells per batch           ...    35.94 (74.87%)
Average number of basis functions per batch  ...    69.31 (72.20%)
Average number of large shells per batch     ...    26.88 (74.78%)
Average number of large basis fcns per batch ...    48.25 (69.61%)
Maximum spatial batch extension              ...  10.78, 10.92, 10.61 au
Average spatial batch extension              ...   0.26,  0.25,  0.24 au

Overlap Fitting                  UseSFitting ... on
Constructing numerical overlap ... done (      0.0 sec)
Inverting numerical overlap    ... done (      0.0 sec)
Obtaining analytic overlap     ... done (      0.0 sec)
Final contraction and storage  ... done (      0.0 sec)

Time for X-Grid setup             =    0.127 sec

--------------------
COSMO INITIALIZATION
--------------------

Epsilon                                      ...   78.3550
Refractive Index                             ...    1.3300
Potential Evaluation                         ...  ANALYTIC
Technical COSMO parameters:
  rsolv                                      ...    1.3000
  routf                                      ...    0.8500
  disex                                      ...   10.0000
  nppa                                       ... 1082   
  nspa                                       ...   92   
Solvent:                                     ... WATER
Solvent:                                     ... WATER
SMD-CDS solvent descriptors:
  Soln                                       ...    1.3328
  Soln25                                     ...    1.3323
  Sola                                       ...    0.0000
  Solb                                       ...    0.0000
  Solg                                       ...    0.0000
  Solc                                       ...    0.0000
  Solh                                       ...    0.0000
Radii:
 Radius for O  used is    2.8724 Bohr (=   1.5200 Ang.)
 Radius for H  used is    2.2677 Bohr (=   1.2000 Ang.)
Initializing COSMO package            ... done
Setting COSMO radii                   ... done
Setting atoms and making cavity       ...  USING 1082 GRID
done
Cholesky decomposition of A           ... done
--------------
SCF ITERATIONS
--------------
ITER       Energy         Delta-E        Max-DP      RMS-DP      [F,P]     Damp
               ***  Starting incremental Fock matrix formation  ***
  0   -305.0586360888   0.000000000000 0.08807147  0.00433025  0.2978421 0.7000
  1   -305.2092835909  -0.150647502073 0.04951361  0.00247272  0.1292317 0.7000
                               ***Turning on DIIS***
  2   -305.2621545185  -0.052870927646 0.05761341  0.00295257  0.0373227 0.0000
  3   -305.3507579586  -0.088603440130 0.02954380  0.00152543  0.0713094 0.0000
  4   -305.3680264389  -0.017268480232 0.00583595  0.00033317  0.0133304 0.0000
                      *** Initiating the SOSCF procedure ***
                           *** Shutting down DIIS ***
                      *** Re-Reading the Fockian *** 
                      *** Removing any level shift *** 
ITER      Energy       Delta-E        Grad      Rot      Max-DP    RMS-DP
  5   -305.36863994  -0.0006135051  0.000659  0.000659  0.001331  0.000090
               *** Restarting incremental Fock matrix formation ***
  6   -305.36866969  -0.0000297443  0.000276  0.000568  0.001201  0.000060
  7   -305.36866961   0.0000000780  0.000389  0.000151  0.000749  0.000025
  8   -305.36867292  -0.0000033094  0.000013  0.000026  0.000049  0.000003
  9   -305.36867293  -0.0000000142  0.000016  0.000007  0.000030  0.000001
                  ***Gradient check signals convergence***
              ***Rediagonalizing the Fockian in SOSCF/NRSCF***

               *****************************************************
               *                     SUCCESS                       *
               *           SCF CONVERGED AFTER  10 CYCLES          *
               *****************************************************

Setting up the final grid:

General Integration Accuracy     IntAcc      ...  5.010
Radial Grid Type                 RadialGrid  ... Gauss-Chebyshev
Angular Grid (max. acc.)         AngularGrid ... Lebedev-434
Angular grid pruning method      GridPruning ... 3 (G Style)
Weight generation scheme         WeightScheme... Becke
Basis function cutoff            BFCut       ...    1.0000e-11
Integration weight cutoff        WCut        ...    1.0000e-14
Grids for H and He will be reduced by one unit

# of grid points (after initial pruning)     ...  96904 (   0.0 sec)
# of grid points (after weights+screening)   ...  91596 (   0.1 sec)
nearest neighbour list constructed           ...    0.0 sec
Grid point re-assignment to atoms done       ...    0.0 sec
Grid point division into batches done        ...    0.5 sec
Reduced shell lists constructed in    0.5 sec

Total number of grid points                  ...    91596
Total number of batches                      ...     1438
Average number of points per batch           ...       63
Average number of grid points per atom       ...     7633
Average number of shells per batch           ...    34.46 (71.80%)
Average number of basis functions per batch  ...    64.89 (67.60%)
Average number of large shells per batch     ...    24.71 (71.70%)
Average number of large basis fcns per batch ...    43.44 (66.94%)
Maximum spatial batch extension              ...  11.18, 11.04,  9.29 au
Average spatial batch extension              ...   0.13,  0.12,  0.12 au

Final grid set up in    0.7 sec
Final integration                            ... done (   0.0 sec)
Change in XC energy                          ...    -0.000024114
Integrated number of electrons               ...    40.000006017
Previous integrated no of electrons          ...    40.000058856
Old exchange energy                            =     -7.169847850 Eh
New exchange energy                            =     -7.169949435 Eh
Exchange energy change after final integration =     -0.000101585 Eh
Total energy after final integration           =   -305.368798628 Eh
Final COS-X integration done in                =     0.105 sec
 -0.770963777059147        2.10703751375491       -2.03520152238498     
  1.972264674563321E-003  0.187831237219878       1.050019530167159E-002
Total Energy after outlying charge correction =   -305.370000682 Eh

SMD CDS free energy correction energy :                 3.78000     Kcal/mol
Total Energy after SMD CDS correction =              -305.362774816 Eh

----------------
TOTAL SCF ENERGY
----------------

Total Energy       :         -305.36277482 Eh           -8309.34354 eV
Total Energy       :         -305.36277482 Eh           -8309.34354 eV
COSMO(ediel)       :           -0.03133646 Eh              -0.85271 eV
SMD CDS (Gcds)     :            0.00602381 Eh               0.16392 eV

Components:
Nuclear Repulsion  :          139.21208328 Eh            3788.15337 eV
Electronic Energy  :         -444.57485810 Eh          -12097.49691 eV

One Electron Energy:         -697.57674123 Eh          -18982.02816 eV
Two Electron Energy:          253.00188313 Eh            6884.53124 eV

Virial components:
Potential Energy   :         -608.72600542 Eh          -16564.27672 eV
Kinetic Energy     :          303.36323060 Eh            8254.93318 eV
Virial Ratio       :            2.00659125


DFT components:
N(Alpha)           :       20.000003008535 electrons
N(Beta)            :       20.000003008535 electrons
N(Total)           :       40.000006017070 electrons
E(X)               :      -28.524941677423 Eh       
E(C)               :       -1.627643465254 Eh       
E(XC)              :      -30.152585142676 Eh       

---------------
SCF CONVERGENCE
---------------

  Last Energy change         ...    4.8256e-09  Tolerance :   1.0000e-08
  Last MAX-Density change    ...    1.1283e-14  Tolerance :   1.0000e-07
  Last RMS-Density change    ...    3.2791e-16  Tolerance :   5.0000e-09
  Last Orbital Gradient      ...    1.8419e-06  Tolerance :   1.0000e-05
  Last Orbital Rotation      ...    4.2747e-06  Tolerance :   1.0000e-05

             **** THE GBW FILE WAS UPDATED (4_B3LYP_SMD_4_h2o_rst.gbw) ****
             **** DENSITY FILE WAS UPDATED (4_B3LYP_SMD_4_h2o_rst.scfp.tmp) ****
             **** ENERGY FILE WAS UPDATED (4_B3LYP_SMD_4_h2o_rst.en.tmp) ****
----------------
ORBITAL ENERGIES
----------------

  NO   OCC          E(Eh)            E(eV) 
   0   2.0000     -19.129942      -520.5522 
   1   2.0000     -19.116733      -520.1927 
   2   2.0000     -19.112287      -520.0718 
   3   2.0000     -19.110373      -520.0197 
   4   2.0000      -0.997228       -27.1360 
   5   2.0000      -0.985423       -26.8147 
   6   2.0000      -0.978311       -26.6212 
   7   2.0000      -0.967837       -26.3362 
   8   2.0000      -0.534225       -14.5370 
   9   2.0000      -0.522243       -14.2110 
  10   2.0000      -0.515889       -14.0381 
  11   2.0000      -0.496787       -13.5183 
  12   2.0000      -0.413728       -11.2581 
  13   2.0000      -0.384822       -10.4715 
  14   2.0000      -0.374453       -10.1894 
  15   2.0000      -0.348183        -9.4745 
  16   2.0000      -0.310345        -8.4449 
  17   2.0000      -0.303121        -8.2483 
  18   2.0000      -0.299749        -8.1566 
  19   2.0000      -0.292855        -7.9690 
  20   0.0000       0.050985         1.3874 
  21   0.0000       0.092562         2.5187 
  22   0.0000       0.096774         2.6334 
  23   0.0000       0.119874         3.2619 
  24   0.0000       0.188519         5.1299 
  25   0.0000       0.220418         5.9979 
  26   0.0000       0.257962         7.0195 
  27   0.0000       0.286120         7.7857 
  28   0.0000       0.531397        14.4600 
  29   0.0000       0.563830        15.3426 
  30   0.0000       0.582187        15.8421 
  31   0.0000       0.593950        16.1622 
  32   0.0000       0.640234        17.4216 
  33   0.0000       0.641707        17.4617 
  34   0.0000       0.652585        17.7578 
  35   0.0000       0.663333        18.0502 
  36   0.0000       0.850021        23.1302 
  37   0.0000       0.901550        24.5324 
  38   0.0000       0.913514        24.8580 
  39   0.0000       0.937175        25.5018 
  40   0.0000       0.943349        25.6698 
  41   0.0000       0.976614        26.5750 
  42   0.0000       0.995888        27.0995 
  43   0.0000       1.017992        27.7010 
  44   0.0000       1.037346        28.2276 
  45   0.0000       1.046250        28.4699 
  46   0.0000       1.085305        29.5327 
  47   0.0000       1.139203        30.9993 
  48   0.0000       1.165712        31.7206 
  49   0.0000       1.256699        34.1965 
  50   0.0000       1.296648        35.2836 
  51   0.0000       1.311992        35.7011 
  52   0.0000       1.362435        37.0737 
  53   0.0000       1.370056        37.2811 
  54   0.0000       1.397291        38.0222 
  55   0.0000       1.427459        38.8431 
  56   0.0000       1.445193        39.3257 
  57   0.0000       1.484366        40.3917 
  58   0.0000       1.499529        40.8043 
  59   0.0000       1.529478        41.6192 
  60   0.0000       1.569198        42.7000 
  61   0.0000       1.607901        43.7532 
  62   0.0000       1.642646        44.6987 
  63   0.0000       1.645579        44.7785 
  64   0.0000       1.826354        49.6976 
  65   0.0000       1.835929        49.9582 
  66   0.0000       1.846504        50.2459 
  67   0.0000       1.876298        51.0567 
  68   0.0000       2.242298        61.0160 
  69   0.0000       2.249064        61.2001 
  70   0.0000       2.252844        61.3030 
  71   0.0000       2.266685        61.6796 
  72   0.0000       2.287446        62.2446 
  73   0.0000       2.455220        66.8099 
  74   0.0000       2.506910        68.2165 
  75   0.0000       2.546185        69.2852 
  76   0.0000       2.948344        80.2285 
  77   0.0000       2.962148        80.6042 
  78   0.0000       2.964340        80.6638 
  79   0.0000       2.971429        80.8567 
  80   0.0000       2.999219        81.6129 
  81   0.0000       3.016204        82.0751 
  82   0.0000       3.036100        82.6165 
  83   0.0000       3.063746        83.3688 
  84   0.0000       3.193984        86.9127 
  85   0.0000       3.208245        87.3008 
  86   0.0000       3.212943        87.4286 
  87   0.0000       3.225013        87.7571 
  88   0.0000       3.498784        95.2067 
  89   0.0000       3.514548        95.6357 
  90   0.0000       3.552190        96.6600 
  91   0.0000       3.593295        97.7785 
  92   0.0000       3.829515       104.2064 
  93   0.0000       3.863382       105.1280 
  94   0.0000       3.893239       105.9404 
  95   0.0000       3.912572       106.4665 

                    ********************************
                    * MULLIKEN POPULATION ANALYSIS *
                    ********************************

-----------------------
MULLIKEN ATOMIC CHARGES
-----------------------
   0 O :   -0.326531
   1 H :    0.136308
   2 H :    0.196546
   3 O :   -0.343999
   4 H :    0.128607
   5 H :    0.189164
   6 O :   -0.314941
   7 H :    0.204311
   8 H :    0.161527
   9 O :   -0.347075
  10 H :    0.124503
  11 H :    0.191580
Sum of atomic charges:   -0.0000000

--------------------------------
MULLIKEN REDUCED ORBITAL CHARGES
--------------------------------
  0 O s       :     3.645240  s :     3.645240
      pz      :     1.554809  p :     4.672526
      px      :     1.583798
      py      :     1.533919
      dz2     :     0.001594  d :     0.008765
      dxz     :     0.001931
      dyz     :     0.001078
      dx2y2   :     0.002106
      dxy     :     0.002056
  1 H s       :     0.789578  s :     0.789578
      pz      :     0.017843  p :     0.074114
      px      :     0.021452
      py      :     0.034818
  2 H s       :     0.734507  s :     0.734507
      pz      :     0.027299  p :     0.068947
      px      :     0.026230
      py      :     0.015418
  3 O s       :     3.646039  s :     3.646039
      pz      :     1.487500  p :     4.689409
      px      :     1.954810
      py      :     1.247099
      dz2     :     0.003743  d :     0.008551
      dxz     :     0.000674
      dyz     :     0.002117
      dx2y2   :     0.001734
      dxy     :     0.000283
  4 H s       :     0.796402  s :     0.796402
      pz      :     0.036316  p :     0.074992
      px      :     0.017117
      py      :     0.021559
  5 H s       :     0.741495  s :     0.741495
      pz      :     0.015311  p :     0.069340
      px      :     0.017310
      py      :     0.036720
  6 O s       :     3.655064  s :     3.655064
      pz      :     1.435097  p :     4.650865
      px      :     1.337318
      py      :     1.878451
      dz2     :     0.004956  d :     0.009011
      dxz     :     0.000636
      dyz     :     0.000552
      dx2y2   :     0.002301
      dxy     :     0.000566
  7 H s       :     0.726933  s :     0.726933
      pz      :     0.014753  p :     0.068756
      px      :     0.036442
      py      :     0.017560
  8 H s       :     0.768398  s :     0.768398
      pz      :     0.035447  p :     0.070075
      px      :     0.017540
      py      :     0.017088
  9 O s       :     3.649224  s :     3.649224
      pz      :     1.462086  p :     4.688743
      px      :     1.751687
      py      :     1.474971
      dz2     :     0.001656  d :     0.009108
      dxz     :     0.002880
      dyz     :     0.000616
      dx2y2   :     0.002690
      dxy     :     0.001267
 10 H s       :     0.802081  s :     0.802081
      pz      :     0.020364  p :     0.073416
      px      :     0.017163
      py      :     0.035889
 11 H s       :     0.739397  s :     0.739397
      pz      :     0.030330  p :     0.069024
      px      :     0.022557
      py      :     0.016137


                     *******************************
                     * LOEWDIN POPULATION ANALYSIS *
                     *******************************

----------------------
LOEWDIN ATOMIC CHARGES
----------------------
   0 O :   -0.118700
   1 H :    0.026130
   2 H :    0.097394
   3 O :   -0.156226
   4 H :    0.021796
   5 H :    0.095889
   6 O :   -0.104996
   7 H :    0.104279
   8 H :    0.063422
   9 O :   -0.163345
  10 H :    0.038704
  11 H :    0.095654

-------------------------------
LOEWDIN REDUCED ORBITAL CHARGES
-------------------------------
  0 O s       :     3.391559  s :     3.391559
      pz      :     1.555961  p :     4.709938
      px      :     1.582119
      py      :     1.571858
      dz2     :     0.003032  d :     0.017203
      dxz     :     0.005218
      dyz     :     0.001398
      dx2y2   :     0.003544
      dxy     :     0.004011
  1 H s       :     0.755083  s :     0.755083
      pz      :     0.044741  p :     0.218787
      px      :     0.060300
      py      :     0.113747
  2 H s       :     0.722755  s :     0.722755
      pz      :     0.074324  p :     0.179851
      px      :     0.065153
      py      :     0.040374
  3 O s       :     3.391757  s :     3.391757
      pz      :     1.545785  p :     4.747483
      px      :     1.884003
      py      :     1.317695
      dz2     :     0.006902  d :     0.016986
      dxz     :     0.000219
      dyz     :     0.004517
      dx2y2   :     0.005028
      dxy     :     0.000320
  4 H s       :     0.756984  s :     0.756984
      pz      :     0.121105  p :     0.221220
      px      :     0.054661
      py      :     0.045453
  5 H s       :     0.723808  s :     0.723808
      pz      :     0.039061  p :     0.180304
      px      :     0.053625
      py      :     0.087618
  6 O s       :     3.394920  s :     3.394920
      pz      :     1.487207  p :     4.692524
      px      :     1.392423
      py      :     1.812893
      dz2     :     0.009831  d :     0.017552
      dxz     :     0.001185
      dyz     :     0.000284
      dx2y2   :     0.005354
      dxy     :     0.000898
  7 H s       :     0.716585  s :     0.716585
      pz      :     0.034047  p :     0.179136
      px      :     0.091695
      py      :     0.053395
  8 H s       :     0.748538  s :     0.748538
      pz      :     0.098900  p :     0.188040
      px      :     0.036104
      py      :     0.053036
  9 O s       :     3.400023  s :     3.400023
      pz      :     1.488306  p :     4.745867
      px      :     1.741100
      py      :     1.516461
      dz2     :     0.003251  d :     0.017454
      dxz     :     0.006106
      dyz     :     0.001764
      dx2y2   :     0.004877
      dxy     :     0.001458
 10 H s       :     0.757459  s :     0.757459
      pz      :     0.045745  p :     0.203838
      px      :     0.049994
      py      :     0.108098
 11 H s       :     0.724605  s :     0.724605
      pz      :     0.077028  p :     0.179741
      px      :     0.066268
      py      :     0.036445


                      *****************************
                      * MAYER POPULATION ANALYSIS *
                      *****************************

  NA   - Mulliken gross atomic population
  ZA   - Total nuclear charge
  QA   - Mulliken gross atomic charge
  VA   - Mayer's total valence
  BVA  - Mayer's bonded valence
  FA   - Mayer's free valence

  ATOM       NA         ZA         QA         VA         BVA        FA
  0 O      8.3265     8.0000    -0.3265     2.1029     2.1029    -0.0000
  1 H      0.8637     1.0000     0.1363     1.1156     1.1156    -0.0000
  2 H      0.8035     1.0000     0.1965     0.9902     0.9902    -0.0000
  3 O      8.3440     8.0000    -0.3440     2.0403     2.0403     0.0000
  4 H      0.8714     1.0000     0.1286     1.1199     1.1199     0.0000
  5 H      0.8108     1.0000     0.1892     0.9992     0.9992     0.0000
  6 O      8.3149     8.0000    -0.3149     2.1247     2.1247     0.0000
  7 H      0.7957     1.0000     0.2043     0.9865     0.9865    -0.0000
  8 H      0.8385     1.0000     0.1615     1.0728     1.0728    -0.0000
  9 O      8.3471     8.0000    -0.3471     2.0389     2.0389    -0.0000
 10 H      0.8755     1.0000     0.1245     1.1157     1.1157     0.0000
 11 H      0.8084     1.0000     0.1916     0.9930     0.9930     0.0000

  Mayer bond orders larger than 0.1
B(  0-O ,  1-H ) :   0.9201 B(  0-O ,  2-H ) :   0.9789 B(  0-O ,  4-H ) :   0.1912 
B(  1-H ,  6-O ) :   0.1824 B(  3-O ,  4-H ) :   0.9142 B(  3-O ,  5-H ) :   0.9743 
B(  3-O , 10-H ) :   0.1433 B(  6-O ,  7-H ) :   0.9770 B(  6-O ,  8-H ) :   0.9547 
B(  8-H ,  9-O ) :   0.1016 B(  9-O , 10-H ) :   0.9490 B(  9-O , 11-H ) :   0.9796 


-------
TIMINGS
-------

Total SCF time: 0 days 0 hours 0 min 4 sec 

Total time                  ....       4.847 sec
Sum of individual times     ....       6.610 sec  (136.4%)

Fock matrix formation       ....       3.324 sec  ( 68.6%)
  Coulomb formation         ....       3.002 sec  ( 90.3% of F)
  Split-RI-J                ....       0.844 sec  ( 25.4% of F)
  Chain of spheres X        ....       0.782 sec  ( 23.5% of F)
  XC integration            ....       0.318 sec  (  9.6% of F)
    Basis function eval.    ....       0.119 sec  ( 37.3% of XC)
    Density eval.           ....       0.050 sec  ( 15.8% of XC)
    XC-Functional eval.     ....       0.036 sec  ( 11.2% of XC)
    XC-Potential eval.      ....       0.068 sec  ( 21.4% of XC)
Diagonalization             ....       0.010 sec  (  0.2%)
Density matrix formation    ....       0.024 sec  (  0.5%)
Population analysis         ....       0.014 sec  (  0.3%)
Initial guess               ....       0.332 sec  (  6.9%)
Orbital Transformation      ....       0.000 sec  (  0.0%)
Orbital Orthonormalization  ....       0.000 sec  (  0.0%)
DIIS solution               ....       0.002 sec  (  0.0%)
SOSCF solution              ....       0.044 sec  (  0.9%)
Grid generation             ....       1.030 sec  ( 21.2%)
COSMO(total)                ....       1.829 sec  ( 37.7%)
   Initialization           ....       0.363 sec  ( 19.8% of COSMO)
   Potential evaluation     ....       0.742 sec  ( 40.5% of COSMO)
   Charge calculation       ....       0.123 sec  (  6.7% of COSMO)
   Fock-Matrix contrib.     ....       0.650 sec  ( 35.5% of COSMO)
   Outer-lying charge       ....       0.082 sec  (  4.5% of COSMO)
           ************************************************************
           *              Shut down parallel processing               *
           ************************************************************

Entering the calculation of the dispersion correction...

Checking the input atom types...

Done


-------------------------------------------------------------------------------
                          DFT DISPERSION CORRECTION                            
                                                                               
                                DFTD3 V2.1  Rev 6                               
                          USING Becke-Johnson damping                          
-------------------------------------------------------------------------------
The B3LYP functional is recognized
Active option DFTDOPT                   ...         4   

molecular C6(AA) [au] = 712.151261 


            DFT-D V3
 parameters
 s6 scaling factor         :     1.0000 
 a1 scaling factor         :     0.3981 
 s8 scaling factor         :     1.9889 
 a2 scaling factor         :     4.4211 
 ad hoc parameters k1-k3   :    16.0000     1.3333    -4.0000 

 Edisp/kcal,au: -4.573727595767  -0.007288698094 
 E6   /kcal   :  -2.484179555 
 E8   /kcal   :  -2.089548041 
 % E8         :  45.685887438 

-------------------------   ----------------
Dispersion correction           -0.007288698
-------------------------   ----------------


-------------------------   --------------------
FINAL SINGLE POINT ENERGY      -305.370063513615
-------------------------   --------------------

smp-n114.crc.pitt.edu.38771hfi_wait_for_device: The /dev/hfi1_0 device failed to appear after 15.0 seconds: Connection timed out
smp-n114.crc.pitt.edu.38773hfi_wait_for_device: The /dev/hfi1_0 device failed to appear after 15.0 seconds: Connection timed out
smp-n114.crc.pitt.edu.38777hfi_wait_for_device: The /dev/hfi1_0 device failed to appear after 15.0 seconds: Connection timed out
smp-n114.crc.pitt.edu.38775hfi_wait_for_device: The /dev/hfi1_0 device failed to appear after 15.0 seconds: Connection timed out
smp-n114.crc.pitt.edu.38776hfi_wait_for_device: The /dev/hfi1_0 device failed to appear after 15.0 seconds: Connection timed out
smp-n114.crc.pitt.edu.38779hfi_wait_for_device: The /dev/hfi1_0 device failed to appear after 15.0 seconds: Connection timed out
smp-n114.crc.pitt.edu.38781hfi_wait_for_device: The /dev/hfi1_0 device failed to appear after 15.0 seconds: Connection timed out
smp-n114.crc.pitt.edu.38772hfi_wait_for_device: The /dev/hfi1_0 device failed to appear after 15.0 seconds: Connection timed out
smp-n114.crc.pitt.edu.38774hfi_wait_for_device: The /dev/hfi1_0 device failed to appear after 15.0 seconds: Connection timed out
smp-n114.crc.pitt.edu.38778hfi_wait_for_device: The /dev/hfi1_0 device failed to appear after 15.0 seconds: Connection timed out
smp-n114.crc.pitt.edu.38780hfi_wait_for_device: The /dev/hfi1_0 device failed to appear after 15.0 seconds: Connection timed out
smp-n114.crc.pitt.edu.38782hfi_wait_for_device: The /dev/hfi1_0 device failed to appear after 15.0 seconds: Connection timed out


           ************************************************************
           *        Program running with 12 parallel MPI-processes    *
           *              working on a common directory               *
           ************************************************************
------------------------------------------------------------------------------
                         ORCA SCF GRADIENT CALCULATION
------------------------------------------------------------------------------

smd grd 
Gradient of the Kohn-Sham DFT energy:
Kohn-Sham wavefunction type      ... RKS
Hartree-Fock exchange scaling    ...    0.200
Number of operators              ...    1
Number of atoms                  ...   12
Basis set dimensions             ...   96
Integral neglect threshold       ... 2.5e-11
Integral primitive cutoff        ... 2.5e-12

Nuclear repulsion gradient       ... done
One Electron Gradient            ... done
Pre-screening matrix             ... done
RI-J gradient                    ... done
COSX-gradient                    ... done
Exchange-correlation gradient    ... done
Dispersion correction            ... 
Entering the calculation of the dispersion correction...

Checking the input atom types...

Done
done

------------------
CARTESIAN GRADIENT
------------------

   1   O   :    0.002872932   -0.026121795   -0.004051697
   2   H   :   -0.013774802    0.023338053   -0.004577188
   3   H   :    0.009329467    0.001523888    0.007031155
   4   O   :    0.003973128    0.003914599   -0.026153895
   5   H   :    0.000305206    0.005501059    0.027877881
   6   H   :   -0.002509634   -0.009479941    0.000493907
   7   O   :    0.009322674   -0.002034681    0.015017605
   8   H   :   -0.012246162    0.000592130   -0.000207113
   9   H   :    0.006148021   -0.000726416   -0.018250303
  10   O   :   -0.011931953    0.017723374    0.006895388
  11   H   :    0.002194454   -0.018743635    0.000597444
  12   H   :    0.007093089    0.001409580   -0.007799586

Norm of the cartesian gradient     ...    0.070938441
RMS gradient                       ...    0.011823073
MAX gradient                       ...    0.027877881

-------
TIMINGS
-------

Total SCF gradient time            ...        0.703 sec

One electron gradient       ....       0.004 sec  (  0.5%)
Prescreening matrices       ....       0.009 sec  (  1.2%)
RI-J Coulomb gradient       ....       0.099 sec  ( 14.1%)
COSX gradient               ....       0.103 sec  ( 14.6%)
XC gradient                 ....       0.205 sec  ( 29.1%)
COSMO gradient              ....       0.090 sec  ( 12.8%)
   First term (A-Matrix)    ....       0.012 sec  (  1.7%)
   Second term (potential)  ....       0.078 sec  ( 11.1%)
           ************************************************************
           *              Shut down parallel processing               *
           ************************************************************
------------------------------------------------------------------------------
                         ORCA GEOMETRY RELAXATION STEP
------------------------------------------------------------------------------

Reading the OPT-File                    .... done
Getting information on internals        .... done
Copying old internal coords+grads       .... done
Making the new internal coordinates     .... (new redundants).... done
Validating the new internal coordinates .... (new redundants).... done
Calculating the B-matrix                .... done
Calculating the G,G- and P matrices     .... done
Transforming gradient to internals      .... done
Projecting the internal gradient        .... done
Number of atoms                         ....  12
Number of internal coordinates          ....  96
Current Energy                          ....  -305.370063514 Eh
Current gradient norm                   ....     0.070938441 Eh/bohr
Maximum allowed component of the step   ....  0.300
Current trust radius                    ....  0.300
Evaluating the initial hessian          ....  (Almloef) done
Projecting the Hessian                  .... done
Forming the augmented Hessian           .... done
Diagonalizing the augmented Hessian     .... done
Last element of RFO vector              ....  0.977056884
Lowest eigenvalues of augmented Hessian:
 -0.005411699  0.009570386  0.012011222  0.014815769  0.015128955
Length of the computed step             ....  0.217979640
The final length of the internal step   ....  0.217979640
Converting the step to cartesian space:
 Initial RMS(Int)=    0.0222474538
Transforming coordinates:
 Iter   0:  RMS(Cart)=    0.0351964451 RMS(Int)=    0.0222094552
 Iter   1:  RMS(Cart)=    0.0002704617 RMS(Int)=    0.0004586197
 Iter   2:  RMS(Cart)=    0.0000053614 RMS(Int)=    0.0000170198
 Iter   3:  RMS(Cart)=    0.0000002111 RMS(Int)=    0.0000010494
 Iter   4:  RMS(Cart)=    0.0000000138 RMS(Int)=    0.0000000739
done
Storing new coordinates                 .... done

                                .--------------------.
          ----------------------|Geometry convergence|---------------------
          Item                value                 Tolerance   Converged
          -----------------------------------------------------------------
          RMS gradient        0.00474047            0.00010000      NO
          MAX gradient        0.02179949            0.00030000      NO
          RMS step            0.02224745            0.00200000      NO
          MAX step            0.16073359            0.00400000      NO
          ....................................................
          Max(Bonds)      0.0851      Max(Angles)    1.40
          Max(Dihed)        1.53      Max(Improp)    0.00
          -----------------------------------------------------------------

The optimization has not yet converged - more geometry cycles are needed


    ---------------------------------------------------------------------------
                         Redundant Internal Coordinates
                            (Angstroem and degrees)

        Definition                    Value    dE/dq     Step     New-Value
    ----------------------------------------------------------------------------
     1. B(H   1,O   0)                0.9572 -0.020583  0.0257    0.9829   
     2. B(H   2,O   0)                0.9572 -0.011883  0.0118    0.9690   
     3. B(H   4,H   1)                2.1702 -0.005719 -0.0192    2.1510   
     4. B(H   4,O   0)                1.7597  0.003295 -0.0252    1.7345   
     5. B(H   4,O   3)                0.9572 -0.021799  0.0239    0.9811   
     6. B(H   5,O   3)                0.9572 -0.009561  0.0095    0.9667   
     7. B(O   6,H   1)                1.7774  0.002026  0.0018    1.7791   
     8. B(H   7,O   6)                0.9572 -0.012404  0.0124    0.9696   
     9. B(H   8,O   6)                0.9572 -0.011932  0.0162    0.9734   
    10. B(H   8,H   1)                2.2134 -0.003999  0.0157    2.2291   
    11. B(O   9,H   8)                2.1798  0.003990 -0.0851    2.0947   
    12. B(H  10,H   4)                1.9776 -0.003481  0.0203    1.9979   
    13. B(H  10,O   9)                0.9572 -0.017112  0.0180    0.9752   
    14. B(H  10,O   3)                1.8301  0.001558  0.0123    1.8424   
    15. B(H  11,O   9)                0.9572 -0.010385  0.0104    0.9676   
    16. A(H   2,O   0,H   4)          127.75  0.000496    0.17    127.91   
    17. A(H   1,O   0,H   2)          104.52 -0.001804    0.25    104.77   
    18. A(H   1,O   0,H   4)          101.93  0.002675   -0.91    101.02   
    19. A(O   0,H   1,H   8)          147.33  0.001873   -0.72    146.61   
    20. A(H   4,H   1,H   8)           95.69 -0.000456   -0.54     95.15   
    21. A(O   0,H   1,O   6)          172.09 -0.000870   -0.50    171.59   
    22. A(O   6,H   1,H   8)           24.81 -0.002742    0.23     25.03   
    23. A(O   0,H   1,H   4)           52.50  0.002372   -0.16     52.34   
    24. A(H   4,H   1,O   6)          120.06 -0.003184   -0.32    119.75   
    25. A(H   4,O   3,H   5)          104.52 -0.002256    0.18    104.70   
    26. A(H   5,O   3,H  10)          162.58  0.000472   -0.27    162.31   
    27. A(H   4,O   3,H  10)           84.19  0.002200    0.01     84.20   
    28. A(H   1,H   4,H  10)           92.70  0.000614   -0.53     92.18   
    29. A(O   0,H   4,O   3)          169.08  0.001395   -0.19    168.89   
    30. A(O   0,H   4,H  10)          117.90 -0.004415    0.51    118.41   
    31. A(O   3,H   4,H  10)           67.02  0.003787   -0.47     66.55   
    32. A(O   0,H   4,H   1)           25.57 -0.005047    1.07     26.64   
    33. A(H   1,H   4,O   3)          154.87  0.004826   -1.11    153.76   
    34. A(H   1,O   6,H   8)          104.02  0.001165    0.30    104.32   
    35. A(H   7,O   6,H   8)          104.52 -0.000614   -0.08    104.44   
    36. A(H   1,O   6,H   7)          122.38  0.000337   -0.24    122.13   
    37. A(H   1,H   8,O   9)          101.31 -0.002958    1.40    102.71   
    38. A(O   6,H   8,O   9)          151.82 -0.001395    0.90    152.72   
    39. A(H   1,H   8,O   6)           51.18  0.001576   -0.53     50.65   
    40. A(H   8,O   9,H  11)          149.55  0.000275   -0.57    148.98   
    41. A(H   8,O   9,H  10)           97.58 -0.000617    0.98     98.56   
    42. A(H  10,O   9,H  11)          104.52  0.000396   -0.30    104.22   
    43. A(O   3,H  10,H   4)           28.79 -0.005987    0.46     29.25   
    44. A(H   4,H  10,O   9)          152.12  0.003482   -1.35    150.78   
    45. D(O   6,H   1,O   0,H   2)   -113.70 -0.000959    0.06   -113.63   
    46. D(O   6,H   1,O   0,H   4)     20.82  0.000155   -0.12     20.69   
    47. D(H   4,H   1,O   0,H   2)   -134.51 -0.001114    0.19   -134.33   
    48. D(H   8,H   1,O   0,H   4)     15.15  0.000536    0.10     15.25   
    49. D(H   8,H   1,O   0,H   2)   -119.36 -0.000579    0.29   -119.08   
    50. D(O   3,H   4,O   0,H   2)   -136.93  0.000702   -1.08   -138.01   
    51. D(O   3,H   4,H   1,O   6)     28.91  0.001713   -0.43     28.48   
    52. D(O   0,H   4,H   1,O   6)   -176.76  0.000273    0.17   -176.59   
    53. D(O   0,H   4,O   3,H  10)   -119.04  0.000695    0.17   -118.87   
    54. D(O   3,H   4,H   1,H   8)     33.82  0.001299   -0.40     33.42   
    55. D(H  10,H   4,O   0,H   2)    108.69 -0.000063   -0.72    107.97   
    56. D(O   3,H   4,O   0,H   1)    103.88  0.000265   -0.64    103.24   
    57. D(H   1,H   4,O   3,H  10)    -38.42 -0.001277    0.28    -38.14   
    58. D(O   0,H   4,H   1,H   8)   -171.85 -0.000141    0.21   -171.64   
    59. D(H  10,H   4,H   1,H   8)     -1.13 -0.000969    0.01     -1.12   
    60. D(H  10,H   4,H   1,O   0)    170.72 -0.000828   -0.20    170.53   
    61. D(H  10,H   4,O   0,H   1)    -10.50 -0.000500   -0.28    -10.78   
    62. D(O   0,H   4,O   3,H   5)     45.61  0.001324   -0.04     45.57   
    63. D(H  10,H   4,H   1,O   6)     -6.04 -0.000554   -0.02     -6.06   
    64. D(H   1,H   4,O   3,H   5)    126.23 -0.000648    0.07    126.30   
    65. D(O   3,H   4,H   1,O   0)   -154.33  0.001440   -0.60   -154.93   
    66. D(H  10,H   4,O   3,H   5)    164.65  0.000630   -0.21    164.44   
    67. D(H   1,H   4,O   0,H   2)    119.19  0.000437   -0.44    118.75   
    68. D(H   8,O   6,H   1,H   4)     11.71  0.000238   -0.01     11.70   
    69. D(H   8,O   6,H   1,O   0)     -7.30  0.000106    0.21     -7.09   
    70. D(H   7,O   6,H   1,H   8)   -117.66 -0.000374   -0.00   -117.66   
    71. D(H   7,O   6,H   1,H   4)   -105.95 -0.000135   -0.02   -105.96   
    72. D(H   7,O   6,H   1,O   0)   -124.96 -0.000268    0.20   -124.76   
    73. D(O   9,H   8,H   1,O   0)     -8.69 -0.000383    0.19     -8.51   
    74. D(O   6,H   8,H   1,H   4)   -169.83  0.000529    0.01   -169.82   
    75. D(O   6,H   8,H   1,O   0)    178.14 -0.000271   -0.03    178.12   
    76. D(O   9,H   8,O   6,H   1)    -14.32  0.000276    0.10    -14.22   
    77. D(O   9,H   8,O   6,H   7)    115.09  0.000967   -0.06    115.02   
    78. D(H   1,H   8,O   6,H   7)    129.40  0.000692   -0.16    129.24   
    79. D(O   9,H   8,H   1,O   6)    173.16 -0.000112    0.21    173.38   
    80. D(O   9,H   8,H   1,H   4)      3.33  0.000417    0.23      3.56   
    81. D(H  11,O   9,H   8,H   1)    130.23  0.000096    0.28    130.51   
    82. D(H  10,O   9,H   8,H   1)     -6.26  0.000053   -0.30     -6.56   
    83. D(H  10,O   9,H   8,O   6)      5.07 -0.000027   -0.41      4.66   
    84. D(H   8,O   9,O   3,H   5)   -103.14 -0.000347    1.44   -101.71   
    85. D(H   8,O   9,O   3,H   4)     17.43 -0.001804    0.68     18.12   
    86. D(H  11,O   9,H   8,O   6)    141.56  0.000015    0.18    141.74   
    87. D(H  11,O   9,O   3,H   5)     97.17  0.000029    1.53     98.70   
    88. D(H  11,O   9,O   3,H   4)   -142.26 -0.001427    0.78   -141.48   
    89. D(H   4,H  10,O   9,H   8)     11.29 -0.000518    0.04     11.33   
    90. D(H   4,H  10,O   9,H  11)   -147.58 -0.000676    0.14   -147.44   
    91. D(O   3,H  10,H   4,H   1)    164.68  0.002369   -0.55    164.13   
    92. D(O   3,H  10,H   4,O   0)    169.20  0.001752   -0.25    168.94   
    93. D(O   9,H  10,H   4,H   1)     -8.78  0.000920    0.17     -8.61   
    94. D(O   9,H  10,H   4,O   0)     -4.26  0.000302    0.47     -3.80   
    95. D(O   9,H  10,H   4,O   3)   -173.46 -0.001450    0.72   -172.74   
    96. D(H   4,H  10,O   3,H   5)   -121.16 -0.000343   -0.23   -121.39   
    ----------------------------------------------------------------------------

         *************************************************************
         *                GEOMETRY OPTIMIZATION CYCLE   2            *
         *************************************************************
---------------------------------
CARTESIAN COORDINATES (ANGSTROEM)
---------------------------------
  O     -0.196643    0.780520   -1.653695
  H      0.244213   -0.080218   -1.478498
  H     -0.823801    0.595769   -2.368954
  O     -0.596516    1.722960    0.849030
  H     -0.546924    1.308736   -0.039028
  H     -0.498023    2.670321    0.683565
  O      0.923492   -1.630148   -0.929355
  H      1.878116   -1.799261   -0.916873
  H      0.653321   -1.694337    0.003534
  O     -0.097841   -0.886287    1.784032
  H     -0.309009    0.008642    1.459300
  H     -0.646940   -0.988289    2.574125

----------------------------
CARTESIAN COORDINATES (A.U.)
----------------------------
  NO LB      ZA    FRAG    MASS        X           Y           Z
   0 O     8.0000    0    15.999         -0.371602214289541          1.474969046859064         -3.125031269479657
   1 H     1.0000    0     1.008          0.461495979350695         -0.151590679304743         -2.793955746914813
   2 H     1.0000    0     1.008         -1.556759014370400          1.125839938802161         -4.476674330983833
   3 O     8.0000    0    15.999         -1.127252490456705          3.255921644234456          1.604434195435259
   4 H     1.0000    0     1.008         -1.033536965535417          2.473153376075251         -0.073752207474201
   5 H     1.0000    0     1.008         -0.941127344603595          5.046175029385946          1.291751580470143
   6 O     8.0000    0    15.999          1.745146807128867         -3.080534014953544         -1.756225795532427
   7 H     1.0000    0     1.008          3.549124163650048         -3.400110049167103         -1.732639048587479
   8 H     1.0000    0     1.008          1.234598268598044         -3.201832535094653          0.006678877777896
   9 O     8.0000    0    15.999         -0.184892832200571         -1.674840328791739          3.371331683084245
  10 H     1.0000    0     1.008         -0.583942838995447          0.016330689431130          2.757676940828718
  11 H     1.0000    0     1.008         -1.222539713875311         -1.867595189868348          4.864391868565387

--------------------------------
INTERNAL COORDINATES (ANGSTROEM)
--------------------------------
 O      0   0   0   0.000000     0.000     0.000
 H      1   0   0   0.982812     0.000     0.000
 H      1   2   0   0.969049   104.768     0.000
 O      1   2   3   2.704020   101.922   138.315
 H      4   1   2   0.981166     7.095   282.453
 H      4   1   2   0.966733    99.675   146.937
 O      2   1   3   1.779118   171.595   246.368
 H      7   2   1   0.969568   122.130   235.243
 H      7   2   1   0.973342   104.318   352.908
 O      9   7   2   2.094603   152.725   345.785
 H     10   9   7   0.975162    98.547     4.663
 H     10   9   7   0.967555   148.980   141.735

---------------------------
INTERNAL COORDINATES (A.U.)
---------------------------
 O      0   0   0   0.000000     0.000     0.000
 H      1   0   0   1.857245     0.000     0.000
 H      1   2   0   1.831236   104.768     0.000
 O      1   2   3   5.109857   101.922   138.315
 H      4   1   2   1.854135     7.095   282.453
 H      4   1   2   1.826861    99.675   146.937
 O      2   1   3   3.362046   171.595   246.368
 H      7   2   1   1.832217   122.130   235.243
 H      7   2   1   1.839349   104.318   352.908
 O      9   7   2   3.958225   152.725   345.785
 H     10   9   7   1.842789    98.547     4.663
 H     10   9   7   1.828413   148.980   141.735

smp-n114.crc.pitt.edu.38825hfi_wait_for_device: The /dev/hfi1_0 device failed to appear after 15.0 seconds: Connection timed out
smp-n114.crc.pitt.edu.38827hfi_wait_for_device: The /dev/hfi1_0 device failed to appear after 15.0 seconds: Connection timed out
smp-n114.crc.pitt.edu.38826hfi_wait_for_device: The /dev/hfi1_0 device failed to appear after 15.0 seconds: Connection timed out
smp-n114.crc.pitt.edu.38828hfi_wait_for_device: The /dev/hfi1_0 device failed to appear after 15.0 seconds: Connection timed out
smp-n114.crc.pitt.edu.38831hfi_wait_for_device: The /dev/hfi1_0 device failed to appear after 15.0 seconds: Connection timed out
[...]
Prescreening matrices       ....       0.009 sec  (  1.3%)
RI-J Coulomb gradient       ....       0.101 sec  ( 14.2%)
COSX gradient               ....       0.106 sec  ( 14.9%)
XC gradient                 ....       0.223 sec  ( 31.2%)
COSMO gradient              ....       0.087 sec  ( 12.1%)
   First term (A-Matrix)    ....       0.011 sec  (  1.6%)
   Second term (potential)  ....       0.075 sec  ( 10.5%)
           ************************************************************
           *              Shut down parallel processing               *
           ************************************************************
------------------------------------------------------------------------------
                         ORCA GEOMETRY RELAXATION STEP
------------------------------------------------------------------------------

Reading the OPT-File                    .... done
Getting information on internals        .... done
Copying old internal coords+grads       .... done
Making the new internal coordinates     .... (new redundants).... done
Validating the new internal coordinates .... (new redundants).... done
Calculating the B-matrix                .... done
Calculating the G,G- and P matrices     .... done
Transforming gradient to internals      .... done
Projecting the internal gradient        .... done
Number of atoms                         ....  12
Number of internal coordinates          .... 161
Current Energy                          ....  -305.386953561 Eh
Current gradient norm                   ....     0.002861015 Eh/bohr
Maximum allowed component of the step   ....  0.300
Current trust radius                    ....  0.300
Updating the Hessian (BFGS)             .... done
Forming the augmented Hessian           .... done
Diagonalizing the augmented Hessian     .... done
Last element of RFO vector              ....  0.992089249
Lowest eigenvalues of augmented Hessian:
 -0.000034323  0.000280043  0.000985755  0.002118901  0.003053441
Length of the computed step             ....  0.126535535
The final length of the internal step   ....  0.126535535
Converting the step to cartesian space:
 Initial RMS(Int)=    0.0099723972
Transforming coordinates:
 Iter   0:  RMS(Cart)=    0.0089071752 RMS(Int)=    0.0099924961
 Iter   1:  RMS(Cart)=    0.0000621298 RMS(Int)=    0.0000968129
 Iter   2:  RMS(Cart)=    0.0000008583 RMS(Int)=    0.0000027864
 Iter   3:  RMS(Cart)=    0.0000000201 RMS(Int)=    0.0000001236
done
Storing new coordinates                 .... done

                                .--------------------.
          ----------------------|Geometry convergence|---------------------
          Item                value                 Tolerance   Converged
          -----------------------------------------------------------------
          Energy change      -0.00001131            0.00000500      NO
          RMS gradient        0.00008809            0.00010000      YES
          MAX gradient        0.00053134            0.00030000      NO
          RMS step            0.00997240            0.00200000      NO
          MAX step            0.03681368            0.00400000      NO
          ....................................................
          Max(Bonds)      0.0129      Max(Angles)    0.94
          Max(Dihed)        2.11      Max(Improp)    0.00
          -----------------------------------------------------------------

The optimization has not yet converged - more geometry cycles are needed


    ---------------------------------------------------------------------------
                         Redundant Internal Coordinates
                            (Angstroem and degrees)

        Definition                    Value    dE/dq     Step     New-Value
    ----------------------------------------------------------------------------
     1. B(H   1,O   0)                0.9951 -0.000279  0.0004    0.9954   
     2. B(H   2,O   0)                0.9699 -0.000200  0.0002    0.9700   
     3. B(H   4,O   0)                1.7059  0.000009 -0.0011    1.7048   
     4. B(H   4,H   2)                2.1741  0.000051 -0.0129    2.1612   
     5. B(H   4,H   1)                2.0174 -0.000167  0.0036    2.0210   
     6. B(H   4,O   3)                0.9941  0.000037  0.0003    0.9944   
     7. B(H   5,O   3)                0.9698  0.000267 -0.0003    0.9695   
     8. B(O   6,H   1)                1.7008 -0.000036  0.0030    1.7038   
     9. B(H   7,O   6)                0.9698  0.000311 -0.0001    0.9697   
    10. B(H   8,O   6)                0.9935 -0.000531  0.0003    0.9938   
    11. B(H   8,H   1)                2.1489 -0.000150 -0.0035    2.1454   
    12. B(O   9,H   8)                1.7038 -0.000138  0.0005    1.7042   
    13. B(H  10,H   4)                2.1910  0.000141 -0.0003    2.1907   
    14. B(H  10,O   3)                1.7509  0.000234 -0.0009    1.7499   
    15. B(H  10,O   9)                0.9934 -0.000168  0.0004    0.9938   
    16. B(H  10,H   8)                2.0152 -0.000043  0.0002    2.0154   
    17. B(H  11,H   8)                2.1634 -0.000058  0.0001    2.1635   
    18. B(H  11,O   9)                0.9708  0.000050  0.0003    0.9710   
    19. A(H   2,O   0,H   4)          105.35  0.000125   -0.94    104.41   
    20. A(H   1,O   0,H   2)          103.82  0.000006   -0.10    103.72   
    21. A(H   1,O   0,H   4)           92.86 -0.000016    0.30     93.16   
    22. A(O   6,H   1,H   8)           26.82 -0.000142    0.11     26.93   
    23. A(O   0,H   1,H   4)           57.62  0.000075   -0.24     57.38   
    24. A(H   4,H   1,H   8)           86.80 -0.000002    0.24     87.04   
    25. A(H   4,H   1,O   6)          113.27 -0.000143    0.35    113.61   
    26. A(O   0,H   1,O   6)          170.88 -0.000069    0.12    171.00   
    27. A(O   0,H   1,H   8)          144.10  0.000072    0.03    144.13   
    28. A(O   0,H   2,H   4)           49.17 -0.000051    0.65     49.82   
    29. A(H   4,O   3,H   5)          103.66 -0.000012    0.06    103.72   
    30. A(H   5,O   3,H  10)          105.18  0.000022   -0.45    104.73   
    31. A(H   4,O   3,H  10)          102.38 -0.000063    0.03    102.41   
    32. A(H   1,H   4,O   3)          144.11  0.000094   -0.44    143.67   
    33. A(O   0,H   4,H  10)          122.30 -0.000033   -0.38    121.92   
    34. A(O   3,H   4,H  10)           51.31  0.000063   -0.04     51.27   
    35. A(H   1,H   4,H   2)           43.10 -0.000095    0.13     43.23   
    36. A(O   0,H   4,H   2)           25.48 -0.000074    0.29     25.77   
    37. A(H   2,H   4,H  10)          121.74 -0.000019   -0.35    121.39   
    38. A(H   2,H   4,O   3)          154.89  0.000034    0.22    155.12   
    39. A(O   0,H   4,H   1)           29.51 -0.000059   -0.05     29.46   
    40. A(H   1,H   4,H  10)           93.04  0.000026   -0.34     92.70   
    41. A(H   1,O   6,H   8)          102.61  0.000152   -0.48    102.13   
    42. A(H   7,O   6,H   8)          103.69 -0.000046    0.08    103.78   
    43. A(H   1,O   6,H   7)          106.67  0.000035   -0.44    106.23   
    44. A(O   6,H   8,O   9)          173.15  0.000019    0.29    173.44   
    45. A(H  10,H   8,H  11)           43.09 -0.000053    0.04     43.12   
    46. A(O   9,H   8,H  11)           25.73  0.000017    0.01     25.74   
    47. A(H   1,H   8,H  11)          124.55 -0.000010   -0.24    124.31   
    48. A(O   6,H   8,H  11)          158.48 -0.000028   -0.22    158.26   
    49. A(O   9,H   8,H  10)           29.49 -0.000047    0.01     29.50   
    50. A(H   1,H   8,H  10)           94.37  0.000076   -0.14     94.23   
    51. A(H   1,H   8,O   6)           50.57 -0.000010    0.37     50.94   
    52. A(O   6,H   8,H  10)          144.39  0.000068    0.24    144.63   
    53. A(H   1,H   8,O   9)          123.80  0.000030   -0.14    123.66   
    54. A(H  10,O   9,H  11)          103.31 -0.000118    0.09    103.40   
    55. A(H   8,O   9,H  11)          104.62  0.000024   -0.04    104.59   
    56. A(H   8,O   9,H  10)           92.90  0.000106   -0.03     92.87   
    57. A(O   3,H  10,H   4)           26.31 -0.000000    0.01     26.32   
    58. A(H   4,H  10,O   9)          143.30 -0.000159    0.24    143.55   
    59. A(O   3,H  10,O   9)          169.33 -0.000161    0.19    169.52   
    60. A(H   4,H  10,H   8)           85.72 -0.000102    0.23     85.95   
    61. A(O   3,H  10,H   8)          111.85 -0.000101    0.20    112.04   
    62. A(H   8,H  10,O   9)           57.60 -0.000058    0.02     57.62   
    63. A(H   8,H  11,O   9)           49.64 -0.000041    0.03     49.67   
    64. D(O   6,H   1,O   0,H   2)   -103.05 -0.000058   -1.01   -104.05   
    65. D(H   8,H   1,O   0,H   2)    -98.00 -0.000117    0.43    -97.57   
    66. D(H   4,H   1,O   0,H   2)   -106.57 -0.000126    0.90   -105.67   
    67. D(H   8,H   1,O   0,H   4)      8.57  0.000010   -0.47      8.10   
    68. D(O   6,H   1,O   0,H   4)      3.53  0.000068   -1.91      1.62   
    69. D(H   4,H   2,O   0,H   1)     96.94  0.000019    0.02     96.97   
    70. D(H  10,O   3,O   0,H   1)     -8.49  0.000003   -0.17     -8.66   
    71. D(H   5,O   3,O   0,H   2)   -155.78  0.000028   -0.93   -156.71   
    72. D(H   5,O   3,O   0,H   1)     99.70  0.000014   -0.80     98.90   
    73. D(H  10,O   3,O   0,H   2)     96.04  0.000017   -0.30     95.73   
    74. D(H   2,H   4,O   3,H   5)   -167.71  0.000055   -1.71   -169.42   
    75. D(O   3,H   4,H   1,H   8)      4.06 -0.000072    0.59      4.65   
    76. D(H  10,H   4,O   0,H   2)     96.90 -0.000006    0.05     96.95   
    77. D(H   1,H   4,O   3,H  10)     -7.73  0.000067   -0.97     -8.70   
    78. D(H  10,H   4,H   1,O   6)     -6.39 -0.000007   -0.21     -6.60   
    79. D(H  10,H   4,H   1,H   8)     -1.98 -0.000025   -0.15     -2.13   
    80. D(H   2,H   4,H   1,O   6)   -141.97 -0.000030    0.05   -141.92   
    81. D(O   0,H   4,H   1,H   8)   -174.98 -0.000003   -0.27   -175.25   
    82. D(H   1,H   4,H   2,O   0)    -44.09  0.000007    0.19    -43.90   
    83. D(H   2,H   4,H   1,O   0)     37.42 -0.000046    0.39     37.80   
    84. D(H   1,H   4,O   0,H   2)    105.18  0.000017   -0.13    105.05   
    85. D(H  10,H   4,H   1,O   0)    173.00 -0.000022    0.12    173.12   
    86. D(O   0,H   4,H   1,O   6)   -179.39  0.000016   -0.33   -179.72   
    87. D(H  10,H   4,O   0,H   1)     -8.27 -0.000023    0.17     -8.10   
    88. D(O   3,H   4,H   2,O   0)   -165.01 -0.000040    0.97   -164.05   
    89. D(H   2,H   4,O   3,H  10)     83.07  0.000056   -1.24     81.83   
    90. D(H   2,H   4,H   1,H   8)   -137.56 -0.000049    0.11   -137.45   
    91. D(H   1,H   4,O   3,H   5)    101.49  0.000065   -1.43    100.06   
    92. D(O   3,H   4,H   1,O   0)    179.04 -0.000069    0.86    179.90   
    93. D(H   2,H   4,O   0,H   1)   -105.18 -0.000017    0.13   -105.05   
    94. D(H  10,H   4,H   2,O   0)    -99.35  0.000060    0.09    -99.26   
    95. D(H  10,H   4,O   3,H   5)    109.22 -0.000001   -0.47    108.75   
    96. D(O   3,H   4,H   1,O   6)     -0.35 -0.000053    0.53      0.18   
    97. D(H   8,O   6,H   1,H   4)      9.80  0.000006    0.10      9.90   
    98. D(H   8,O   6,H   1,O   0)      6.56 -0.000055    1.86      8.41   
    99. D(H   7,O   6,H   1,H   4)    -98.88 -0.000014    0.35    -98.53   
   100. D(H   7,O   6,H   1,H   8)   -108.68 -0.000021    0.25   -108.43   
   101. D(H   7,O   6,H   1,O   0)   -102.12 -0.000076    2.11   -100.01   
   102. D(H  11,H   8,O   6,H   1)     85.18 -0.000027    0.56     85.74   
   103. D(H  10,H   8,O   6,H   1)    -11.80  0.000006    0.06    -11.74   
   104. D(H  10,H   8,O   6,H   7)     99.12  0.000081   -0.56     98.56   
   105. D(O   9,H   8,O   6,H   1)    -36.22 -0.000058   -0.71    -36.93   
   106. D(O   9,H   8,O   6,H   7)     74.70  0.000018   -1.33     73.36   
   107. D(H   1,H   8,O   6,H   7)    110.92  0.000076   -0.62    110.30   
   108. D(H  11,H   8,H   1,H   4)     35.36  0.000046    0.28     35.64   
   109. D(H  11,H   8,H   1,O   6)   -153.65  0.000031    0.22   -153.43   
   110. D(H  10,H   8,H   1,O   0)     -5.09  0.000015    0.59     -4.50   
   111. D(O   6,H   8,H   1,O   0)   -178.23  0.000001    0.49   -177.74   
   112. D(O   6,H   8,H   1,H   4)   -170.99  0.000016    0.07   -170.92   
   113. D(O   9,H   8,H   1,O   0)     -3.10  0.000006    0.76     -2.34   
   114. D(O   9,H   8,H   1,O   6)    175.13  0.000005    0.27    175.41   
   115. D(O   9,H   8,H   1,H   4)      4.15  0.000020    0.34      4.49   
   116. D(H  10,H   8,H   1,H   4)      2.15  0.000030    0.17      2.32   
   117. D(H  11,H   8,O   6,H   7)   -163.90  0.000048   -0.06   -163.96   
   118. D(H  10,H   8,H   1,O   6)    173.14  0.000014    0.10    173.24   
   119. D(H  11,H   8,H   1,O   0)     28.12  0.000032    0.70     28.82   
   120. D(H  11,O   9,H   8,H  10)    104.57 -0.000090    0.07    104.64   
   121. D(H  11,O   9,H   8,H   1)    100.52 -0.000077   -0.27    100.25   
   122. D(H  11,O   9,H   8,O   6)    133.84 -0.000018    0.62    134.46   
   123. D(H  10,O   9,H   8,H  11)   -104.57  0.000090   -0.07   -104.64   
   124. D(H  10,O   9,H   8,H   1)     -4.04  0.000013   -0.35     -4.39   
   125. D(H  10,O   9,H   8,O   6)     29.27  0.000072    0.54     29.82   
   126. D(O   9,H  10,O   3,H   4)     15.27 -0.000049    1.78     17.06   
   127. D(H   8,H  10,O   9,H  11)   -105.77 -0.000038    0.04   -105.73   
   128. D(H   4,H  10,O   9,H   8)      2.31 -0.000070    0.24      2.55   
   129. D(H   4,H  10,O   9,H  11)   -103.46 -0.000108    0.27   -103.19   
   130. D(O   3,H  10,O   9,H  11)   -114.72 -0.000030   -1.02   -115.75   
   131. D(H   4,H  10,H   8,H  11)   -140.65  0.000053    0.10   -140.55   
   132. D(H   4,H  10,H   8,O   9)   -178.61 -0.000036    0.13   -178.48   
   133. D(H   4,H  10,H   8,O   6)      7.13 -0.000030   -0.15      6.98   
   134. D(O   3,H  10,H   8,H  11)   -143.81  0.000066   -0.26   -144.07   
   135. D(O   3,H  10,H   8,O   9)    178.22 -0.000024   -0.23    177.99   
   136. D(O   3,H  10,H   8,H   1)     -5.15 -0.000012   -0.52     -5.67   
   137. D(O   3,H  10,H   8,O   6)      3.97 -0.000017   -0.51      3.46   
   138. D(O   9,H  10,H   8,H  11)     37.96  0.000090   -0.03     37.93   
   139. D(O   9,H  10,H   8,H   1)    176.63  0.000012   -0.29    176.34   
   140. D(O   9,H  10,H   8,O   6)   -174.25  0.000007   -0.28   -174.54   
   141. D(H   8,H  10,H   4,H   2)     36.33 -0.000067    0.28     36.60   
   142. D(H   8,H  10,H   4,H   1)      2.11  0.000027    0.16      2.27   
   143. D(H   8,H  10,H   4,O   0)      6.18  0.000031    0.06      6.24   
   144. D(H   8,H  10,H   4,O   3)   -173.36 -0.000023    0.77   -172.59   
   145. D(O   3,H  10,H   4,H   2)   -150.31 -0.000044   -0.49   -150.80   
   146. D(O   3,H  10,H   4,H   1)    175.47  0.000049   -0.61    174.86   
   147. D(O   3,H  10,H   4,O   0)    179.54  0.000053   -0.71    178.84   
   148. D(O   9,H  10,H   4,H   2)     34.37 -0.000006    0.08     34.44   
   149. D(H   4,H  10,H   8,H   1)     -1.98 -0.000025   -0.16     -2.14   
   150. D(O   9,H  10,H   4,H   1)      0.15  0.000087   -0.04      0.11   
   151. D(O   9,H  10,H   4,O   0)      4.22  0.000091   -0.14      4.09   
   152. D(O   9,H  10,H   4,O   3)   -175.32  0.000038    0.57   -174.75   
   153. D(O   3,H  10,O   9,H   8)     -8.95  0.000009   -1.06    -10.01   
   154. D(H   8,H  10,O   3,H   5)   -100.93 -0.000002    0.93   -100.00   
   155. D(H   8,H  10,O   3,H   4)      7.13 -0.000030    0.83      7.96   
   156. D(H   4,H  10,O   3,H   5)   -108.07  0.000028    0.10   -107.97   
   157. D(O   9,H  10,O   3,H   5)    -92.79 -0.000021    1.88    -90.91   
   158. D(H   8,H  11,O   9,H  10)     96.63  0.000085   -0.02     96.62   
   159. D(O   9,H  11,H   8,H  10)    -44.23  0.000004    0.04    -44.19   
   160. D(O   9,H  11,H   8,H   1)    -97.31 -0.000097   -0.15    -97.47   
   161. D(O   9,H  11,H   8,O   6)   -166.44 -0.000050   -0.69   -167.13   
    ----------------------------------------------------------------------------



WARNING!!!!!!!
The optimization did not converge but reached the maximum number of
 optimization cycles.
Nevertheless we allow to calculate frequencies and other properties at this point.



                            ***************************************
                            *     ORCA property calculations      *
                            ***************************************

                                    ---------------------
                                    Active property flags
                                    ---------------------
   (+) Dipole Moment


------------------------------------------------------------------------------
                       ORCA ELECTRIC PROPERTIES CALCULATION
------------------------------------------------------------------------------

Dipole Moment Calculation                       ... on
Quadrupole Moment Calculation                   ... off
Polarizability Calculation                      ... off
GBWName                                         ... 4_B3LYP_SMD_4_h2o_rst.gbw
Electron density file                           ... 4_B3LYP_SMD_4_h2o_rst.scfp.tmp

-------------
DIPOLE MOMENT
-------------
                                X             Y             Z
Electronic contribution:      0.01457      -0.03331       0.01179
Nuclear contribution   :     -0.05278      -0.04884       0.05335
                        -----------------------------------------
Total Dipole Moment    :     -0.03822      -0.08215       0.06514
                        -----------------------------------------
Magnitude (a.u.)       :      0.11159
Magnitude (Debye)      :      0.28363

smp-n114.crc.pitt.edu.46065hfi_wait_for_device: The /dev/hfi1_0 device failed to appear after 15.0 seconds: Connection timed out
smp-n114.crc.pitt.edu.46066hfi_wait_for_device: The /dev/hfi1_0 device failed to appear after 15.0 seconds: Connection timed out
smp-n114.crc.pitt.edu.46067hfi_wait_for_device: The /dev/hfi1_0 device failed to appear after 15.0 seconds: Connection timed out
smp-n114.crc.pitt.edu.46069hfi_wait_for_device: The /dev/hfi1_0 device failed to appear after 15.0 seconds: Connection timed out
smp-n114.crc.pitt.edu.46068hfi_wait_for_device: The /dev/hfi1_0 device failed to appear after 15.0 seconds: Connection timed out
smp-n114.crc.pitt.edu.46071hfi_wait_for_device: The /dev/hfi1_0 device failed to appear after 15.0 seconds: Connection timed out
smp-n114.crc.pitt.edu.46070hfi_wait_for_device: The /dev/hfi1_0 device failed to appear after 15.0 seconds: Connection timed out
smp-n114.crc.pitt.edu.46072hfi_wait_for_device: The /dev/hfi1_0 device failed to appear after 15.0 seconds: Connection timed out
smp-n114.crc.pitt.edu.46075hfi_wait_for_device: The /dev/hfi1_0 device failed to appear after 15.0 seconds: Connection timed out
smp-n114.crc.pitt.edu.46073hfi_wait_for_device: The /dev/hfi1_0 device failed to appear after 15.0 seconds: Connection timed out
smp-n114.crc.pitt.edu.46074hfi_wait_for_device: The /dev/hfi1_0 device failed to appear after 15.0 seconds: Connection timed out
smp-n114.crc.pitt.edu.46077hfi_wait_for_device: The /dev/hfi1_0 device failed to appear after 15.0 seconds: Connection timed out

Timings for individual modules:

Sum of individual times         ...     2560.634 sec (=  42.677 min)
GTO integral calculation        ...      773.948 sec (=  12.899 min)  30.2 %
SCF iterations                  ...      978.827 sec (=  16.314 min)  38.2 %
SCF Gradient evaluation         ...      804.936 sec (=  13.416 min)  31.4 %
Geometry relaxation             ...        2.922 sec (=   0.049 min)   0.1 %
                             ****ORCA TERMINATED NORMALLY****
TOTAL RUN TIME: 0 days 0 hours 42 minutes 59 seconds 406 msec
cp: cannot stat ‘/scratch/slurm-1319761/*.{prop}’: No such file or directory
