
                                 *****************
                                 * O   R   C   A *
                                 *****************

           --- An Ab Initio, DFT and Semiempirical electronic structure package ---

                  #######################################################
                  #                        -***-                        #
                  #  Department of molecular theory and spectroscopy    #
                  #              Directorship: Frank Neese              #
                  # Max Planck Institute for Chemical Energy Conversion #
                  #                  D-45470 Muelheim/Ruhr              #
                  #                       Germany                       #
                  #                                                     #
                  #                  All rights reserved                #
                  #                        -***-                        #
                  #######################################################


                         Program Version 3.0.3 - RELEASE   -


 With contributions from (in alphabetic order):
   Ute Becker             : Parallelization
   Dmytro Bykov           : SCF Hessian
   Dmitry Ganyushin       : Spin-Orbit,Spin-Spin,Magnetic field MRCI
   Andreas Hansen         : Spin unrestricted coupled pair/coupled cluster methods
   Dimitrios Liakos       : Extrapolation schemes; parallel MDCI
   Robert Izsak           : Overlap fitted RIJCOSX, COSX-SCS-MP3
   Christian Kollmar      : KDIIS, OOCD, Brueckner-CCSD(T), CCSD density
   Simone Kossmann        : Meta GGA functionals, TD-DFT gradient, OOMP2, MP2 Hessian
   Taras Petrenko         : DFT Hessian,TD-DFT gradient, ASA and ECA modules, normal mode analysis, Resonance Raman, ABS, FL, XAS/XES, NRVS
   Christoph Reimann      : Effective Core Potentials
   Michael Roemelt        : Restricted open shell CIS
   Christoph Riplinger    : Improved optimizer, TS searches, QM/MM, DLPNO-CCSD
   Barbara Sandhoefer     : DKH picture change effects
   Igor Schapiro          : Molecular dynamics
   Kantharuban Sivalingam : CASSCF convergence, NEVPT2
   Boris Wezisla          : Elementary symmetry handling
   Frank Wennmohs         : Technical directorship


 We gratefully acknowledge several colleagues who have allowed us to
 interface, adapt or use parts of their codes:
   Stefan Grimme, W. Hujo, H. Kruse, T. Risthaus : VdW corrections, initial TS optimization,
                                                   DFT functionals, gCP
   Ed Valeev                                     : LibInt (2-el integral package), F12 methods
   Garnet Chan, S. Sharma, R. Olivares           : DMRG
   Ulf Ekstrom                                   : XCFun DFT Library
   Mihaly Kallay                                 : mrcc  (arbitrary order and MRCC methods)
   Andreas Klamt, Michael Diedenhofen            : otool_cosmo (COSMO solvation model)
   Frank Weinhold                                : gennbo (NPA and NBO analysis)
   Christopher J. Cramer and Donald G. Truhlar   : smd solvation model


 Your calculation uses the libint2 library for the computation of 2-el integrals
 For citations please refer to: http://libint.valeyev.net

 This ORCA versions uses:
   CBLAS   interface :  Fast vector & matrix operations
   LAPACKE interface :  Fast linear algebra routines
   SCALAPACK package :  Parallel linear algebra routines


Your calculation utilizes the basis: Ahlrichs-VDZ
Cite in your paper:
H - Kr: A. Schaefer, H. Horn and R. Ahlrichs, J. Chem. Phys. 97, 2571 (1992).

Your calculation utilizes the basis: Ahlrichs SVPalls1+f
Cite in your paper:
Rb - Xe: A. Schaefer, C. Huber and R. Ahlrichs, J. Chem. Phys. 100, 5829 (1994).

Your calculation utilizes the atom-pairwise dispersion correction
with the Becke-Johnson damping scheme (D3BJ)
Cite in your paper:
S.Grimme, S.Ehrlich, L.Goerigk, J Comput Chem, (2011), 32, 1456–1465 
S.Grimme, J.Antony, S.Ehrlich and H.Krieg, J.Chem.Phys., 132, (2010), 154104 
   

================================================================================
                                        WARNINGS
                       Please study these warnings very carefully!
================================================================================

WARNING: The RI method has been chosen with no auxiliary basis (AUX or GTOAUX in BASIS block)
        Standard SV/J expansion basis used (GTOAUX=VDZ_J)

Now building the actual basis set

WARNING: Geometry Optimization
  ===> : Switching off AutoStart
         For restart on a previous wavefunction, please use MOREAD


INFO   : the flag for use of LIBINT has been found!

================================================================================
                                       INPUT FILE
================================================================================
NAME = 4_BP86_4_h2o_rst.inp
|  1> ! BP86 Def2-SVP TightSCF Opt D3BJ
|  2> 
|  3> %pal nprocs 12 end
|  4> 
|  5> %scf
|  6>         maxiter 800
|  7> end
|  8> 
|  9> * xyz  0  1
| 10>   O     -0.180384    0.762615   -1.642601
| 11>   H      0.247167   -0.078166   -1.479749
| 12>   H     -0.796274    0.584951   -2.353479
| 13>   O     -0.605612    1.714052    0.854336
| 14>   H     -0.547640    1.306417   -0.009785
| 15>   H     -0.515656    2.651653    0.683910
| 16>   O      0.929260   -1.634735   -0.959238
| 17>   H      1.871177   -1.804965   -0.952443
| 18>   H      0.665463   -1.708324   -0.042053
| 19>   O     -0.112940   -0.857326    1.807599
| 20>   H     -0.314458    0.015397    1.469996
| 21>   H     -0.656660   -0.943162    2.590691
| 22> **                         ****END OF INPUT****
================================================================================

                       *****************************
                       * Geometry Optimization Run *
                       *****************************

Geometry optimization settings:
Update method            Update   .... BFGS
Choice of coordinates    CoordSys .... Redundant Internals
Initial Hessian          InHess   .... Almoef's Model

Convergence Tolerances:
Energy Change            TolE     ....  5.0000e-06 Eh
Max. Gradient            TolMAXG  ....  3.0000e-04 Eh/bohr
RMS Gradient             TolRMSG  ....  1.0000e-04 Eh/bohr
Max. Displacement        TolMAXD  ....  4.0000e-03 bohr
RMS Displacement         TolRMSD  ....  2.0000e-03 bohr

------------------------------------------------------------------------------
                        ORCA OPTIMIZATION COORDINATE SETUP
------------------------------------------------------------------------------

The optimization will be done in new redundant internal coordinates
Making redundant internal coordinates   ...  (new redundants) done
Evaluating the initial hessian          ...  (Almloef) done
Evaluating the coordinates              ...  done
Calculating the B-matrix                .... done
Calculating the G-matrix                .... done
Diagonalizing the G-matrix              .... done
The first mode is                       ....   66
The number of degrees of freedom        ....   30

    -----------------------------------------------------------------
                    Redundant Internal Coordinates


    -----------------------------------------------------------------
         Definition                    Initial Value    Approx d2E/dq
    -----------------------------------------------------------------
      1. B(H   1,O   0)                  0.9572         0.525331   
      2. B(H   2,O   0)                  0.9572         0.525331   
      3. B(H   4,H   1)                  2.1702         0.001304   
      4. B(H   4,O   0)                  1.7597         0.027544   
      5. B(H   4,O   3)                  0.9572         0.525332   
      6. B(H   5,O   3)                  0.9572         0.525331   
      7. B(O   6,H   1)                  1.7774         0.025816   
      8. B(H   7,O   6)                  0.9572         0.525332   
      9. B(H   8,O   6)                  0.9572         0.525331   
     10. B(H   8,H   1)                  2.2134         0.001112   
     11. B(O   9,H   8)                  2.1798         0.005887   
     12. B(H  10,H   4)                  1.9776         0.002645   
     13. B(H  10,O   9)                  0.9572         0.525333   
     14. B(H  10,O   3)                  1.8301         0.021271   
     15. B(H  11,O   9)                  0.9572         0.525332   
     16. A(H   2,O   0,H   4)          127.7467         0.209023   
     17. A(H   1,O   0,H   2)          104.5200         0.322920   
     18. A(H   1,O   0,H   4)          101.9346         0.209023   
     19. A(O   0,H   1,H   8)          147.3330         0.135960   
     20. A(H   4,H   1,H   8)           95.6893         0.098773   
     21. A(O   0,H   1,O   6)          172.0911         0.207275   
     22. A(O   6,H   1,H   8)           24.8077         0.112744   
     23. A(O   0,H   1,H   4)           52.5000         0.137681   
     24. A(H   4,H   1,O   6)          120.0617         0.113614   
     25. A(H   4,O   3,H   5)          104.5200         0.322920   
     26. A(H   5,O   3,H  10)          162.5770         0.202204   
     27. A(H   4,O   3,H  10)           84.1908         0.202204   
     28. A(H   1,H   4,H  10)           92.7027         0.100890   
     29. A(O   0,H   4,O   3)          169.0783         0.209023   
     30. A(O   0,H   4,H  10)          117.9018         0.118316   
     31. A(O   3,H   4,H  10)           67.0232         0.146135   
     32. A(O   0,H   4,H   1)           25.5653         0.113978   
     33. A(H   1,H   4,O   3)          154.8735         0.137681   
     34. A(H   1,O   6,H   8)          104.0150         0.207275   
     35. A(H   7,O   6,H   8)          104.5200         0.322920   
     36. A(H   1,O   6,H   7)          122.3752         0.207275   
     37. A(H   1,H   8,O   9)          101.3118         0.105993   
     38. A(O   6,H   8,O   9)          151.8224         0.173644   
     39. A(H   1,H   8,O   6)           51.1773         0.135960   
     40. A(H   8,O   9,H  11)          149.5477         0.173644   
     41. A(H   8,O   9,H  10)           97.5765         0.173644   
     42. A(H  10,O   9,H  11)          104.5200         0.322921   
     43. A(O   3,H  10,H   4)           28.7859         0.116650   
     44. A(H   4,H  10,O   9)          152.1227         0.146135   
     45. D(O   6,H   1,O   0,H   2)   -113.6963         0.429904   
     46. D(O   6,H   1,O   0,H   4)     20.8177         0.429904   
     47. D(H   4,H   1,O   0,H   2)   -134.5139         0.429904   
     48. D(H   8,H   1,O   0,H   4)     15.1499         0.429904   
     49. D(H   8,H   1,O   0,H   2)   -119.3640         0.429904   
     50. D(O   3,H   4,O   0,H   2)   -136.9262         0.001998   
     51. D(O   3,H   4,H   1,O   6)     28.9080         0.001520   
     52. D(O   0,H   4,H   1,O   6)   -176.7609         0.001520   
     53. D(O   0,H   4,O   3,H  10)   -119.0386         0.429907   
     54. D(O   3,H   4,H   1,H   8)     33.8187         0.001520   
     55. D(H  10,H   4,O   0,H   2)    108.6913         0.001998   
     56. D(O   3,H   4,O   0,H   1)    103.8832         0.001998   
     57. D(H   1,H   4,O   3,H  10)    -38.4244         0.429907   
     58. D(O   0,H   4,H   1,H   8)   -171.8503         0.001520   
     59. D(H  10,H   4,H   1,H   8)     -1.1279         0.001520   
     60. D(H  10,H   4,H   1,O   0)    170.7224         0.001520   
     61. D(H  10,H   4,O   0,H   1)    -10.4992         0.001998   
     62. D(O   0,H   4,O   3,H   5)     45.6139         0.429907   
     63. D(H  10,H   4,H   1,O   6)     -6.0386         0.001520   
     64. D(H   1,H   4,O   3,H   5)    126.2281         0.429907   
     65. D(O   3,H   4,H   1,O   0)   -154.3311         0.001520   
     66. D(H  10,H   4,O   3,H   5)    164.6525         0.429907   
     67. D(H   1,H   4,O   0,H   2)    119.1905         0.001998   
     68. D(H   8,O   6,H   1,H   4)     11.7135         0.001935   
     69. D(H   8,O   6,H   1,O   0)     -7.2991         0.001935   
     70. D(H   7,O   6,H   1,H   8)   -117.6600         0.001935   
     71. D(H   7,O   6,H   1,H   4)   -105.9465         0.001935   
     72. D(H   7,O   6,H   1,O   0)   -124.9591         0.001935   
     73. D(O   9,H   8,H   1,O   0)     -8.6945         0.001514   
     74. D(O   6,H   8,H   1,H   4)   -169.8295         0.001514   
     75. D(O   6,H   8,H   1,O   0)    178.1440         0.001514   
     76. D(O   9,H   8,O   6,H   1)    -14.3155         0.393870   
     77. D(O   9,H   8,O   6,H   7)    115.0855         0.393870   
     78. D(H   1,H   8,O   6,H   7)    129.4010         0.393870   
     79. D(O   9,H   8,H   1,O   6)    173.1615         0.001514   
     80. D(O   9,H   8,H   1,H   4)      3.3320         0.001514   
     81. D(H  11,O   9,H   8,H   1)    130.2321         0.001520   
     82. D(H  10,O   9,H   8,H   1)     -6.2603         0.001520   
     83. D(H  10,O   9,H   8,O   6)      5.0694         0.001520   
     84. D(H   8,O   9,O   3,H   5)   -103.1410         0.001501   
     85. D(H   8,O   9,O   3,H   4)     17.4342         0.001501   
     86. D(H  11,O   9,H   8,O   6)    141.5618         0.001520   
     87. D(H  11,O   9,O   3,H   5)     97.1689         0.001501   
     88. D(H  11,O   9,O   3,H   4)   -142.2558         0.001501   
     89. D(H   4,H  10,O   9,H   8)     11.2900         0.393873   
     90. D(H   4,H  10,O   9,H  11)   -147.5832         0.393873   
     91. D(O   3,H  10,H   4,H   1)    164.6814         0.001576   
     92. D(O   3,H  10,H   4,O   0)    169.1966         0.001576   
     93. D(O   9,H  10,H   4,H   1)     -8.7794         0.001576   
     94. D(O   9,H  10,H   4,O   0)     -4.2642         0.001576   
     95. D(O   9,H  10,H   4,O   3)   -173.4608         0.001576   
     96. D(H   4,H  10,O   3,H   5)   -121.1623         0.001767   
    -----------------------------------------------------------------

Number of atoms                         .... 12
Number of degrees of freedom            .... 96

         *************************************************************
         *                GEOMETRY OPTIMIZATION CYCLE   1            *
         *************************************************************
---------------------------------
CARTESIAN COORDINATES (ANGSTROEM)
---------------------------------
  O     -0.180384    0.762615   -1.642601
  H      0.247167   -0.078166   -1.479749
  H     -0.796274    0.584951   -2.353479
  O     -0.605612    1.714052    0.854336
  H     -0.547640    1.306417   -0.009785
  H     -0.515656    2.651653    0.683910
  O      0.929260   -1.634735   -0.959238
  H      1.871177   -1.804965   -0.952443
  H      0.665463   -1.708324   -0.042053
  O     -0.112940   -0.857326    1.807599
  H     -0.314458    0.015397    1.469996
  H     -0.656660   -0.943162    2.590691

----------------------------
CARTESIAN COORDINATES (A.U.)
----------------------------
  NO LB      ZA    FRAG    MASS        X           Y           Z
   0 O     8.0000    0    15.999         -0.340876358941251          1.441133495620355         -3.104066037305182
   1 H     1.0000    0     1.008          0.467077939342914         -0.147712332984089         -2.796320356943838
   2 H     1.0000    0     1.008         -1.504739787562011          1.105397191763370         -4.447430771934854
   3 O     8.0000    0    15.999         -1.144440823416317          3.239088859299989          1.614461066349747
   4 H     1.0000    0     1.008         -1.034889619980634          2.468770346699000         -0.018490970220419
   5 H     1.0000    0     1.008         -0.974448619313297          5.010897972190689          1.292402600250083
   6 O     8.0000    0    15.999          1.756046907207662         -3.089201451535757         -1.812697117250354
   7 H     1.0000    0     1.008          3.536012078092366         -3.410889531313172         -1.799856428170359
   8 H     1.0000    0     1.008          1.257542822257638         -3.228264508004888         -0.079468653109790
   9 O     8.0000    0    15.999         -0.213425669565066         -1.620111347490171          3.415867069949921
  10 H     1.0000    0     1.008         -0.594239500620609          0.029096113283986          2.777889857959704
  11 H     1.0000    0     1.008         -1.240907563100729         -1.782317879921435          4.895696487614582

--------------------------------
INTERNAL COORDINATES (ANGSTROEM)
--------------------------------
 O      0   0   0   0.000000     0.000     0.000
 H      1   0   0   0.957201     0.000     0.000
 H      1   2   0   0.957200   104.520     0.000
 O      1   2   3   2.705688   102.830   138.340
 H      4   1   2   0.957200     7.078   283.062
 H      4   1   2   0.957200    99.518   147.608
 O      2   1   3   1.777383   172.091   246.304
 H      7   2   1   0.957200   122.375   235.041
 H      7   2   1   0.957200   104.015   352.701
 O      9   7   2   2.179753   151.822   345.684
 H     10   9   7   0.957199    97.577     5.069
 H     10   9   7   0.957200   149.548   141.562

---------------------------
INTERNAL COORDINATES (A.U.)
---------------------------
 O      0   0   0   0.000000     0.000     0.000
 H      1   0   0   1.808847     0.000     0.000
 H      1   2   0   1.808847   104.520     0.000
 O      1   2   3   5.113009   102.830   138.340
 H      4   1   2   1.808846     7.078   283.062
 H      4   1   2   1.808847    99.518   147.608
 O      2   1   3   3.358767   172.091   246.304
 H      7   2   1   1.808846   122.375   235.041
 H      7   2   1   1.808847   104.015   352.701
 O      9   7   2   4.119135   151.822   345.684
 H     10   9   7   1.808845    97.577     5.069
 H     10   9   7   1.808846   149.548   141.562

---------------------
BASIS SET INFORMATION
---------------------
There are 2 groups of distinct atoms

 Group   1 Type O   : 7s4p1d contracted to 3s2p1d pattern {511/31/1}
 Group   2 Type H   : 4s1p contracted to 2s1p pattern {31/1}

Atom   0O    basis set group =>   1
Atom   1H    basis set group =>   2
Atom   2H    basis set group =>   2
Atom   3O    basis set group =>   1
Atom   4H    basis set group =>   2
Atom   5H    basis set group =>   2
Atom   6O    basis set group =>   1
Atom   7H    basis set group =>   2
Atom   8H    basis set group =>   2
Atom   9O    basis set group =>   1
Atom  10H    basis set group =>   2
Atom  11H    basis set group =>   2
-------------------------------
AUXILIARY BASIS SET INFORMATION
-------------------------------
There are 2 groups of distinct atoms

 Group   1 Type O   : 12s5p4d2f1g contracted to 6s4p3d1f1g pattern {711111/2111/211/2/1}
 Group   2 Type H   : 5s2p1d contracted to 3s1p1d pattern {311/2/1}

Atom   0O    basis set group =>   1
Atom   1H    basis set group =>   2
Atom   2H    basis set group =>   2
Atom   3O    basis set group =>   1
Atom   4H    basis set group =>   2
Atom   5H    basis set group =>   2
Atom   6O    basis set group =>   1
Atom   7H    basis set group =>   2
Atom   8H    basis set group =>   2
Atom   9O    basis set group =>   1
Atom  10H    basis set group =>   2
Atom  11H    basis set group =>   2
smp-n89.crc.pitt.edu.172920hfi_wait_for_device: The /dev/hfi1_0 device failed to appear after 15.0 seconds: Connection timed out
smp-n89.crc.pitt.edu.172918hfi_wait_for_device: The /dev/hfi1_0 device failed to appear after 15.0 seconds: Connection timed out
smp-n89.crc.pitt.edu.172922hfi_wait_for_device: The /dev/hfi1_0 device failed to appear after 15.0 seconds: Connection timed out
smp-n89.crc.pitt.edu.172924hfi_wait_for_device: The /dev/hfi1_0 device failed to appear after 15.0 seconds: Connection timed out
smp-n89.crc.pitt.edu.172926hfi_wait_for_device: The /dev/hfi1_0 device failed to appear after 15.0 seconds: Connection timed out
smp-n89.crc.pitt.edu.172932hfi_wait_for_device: The /dev/hfi1_0 device failed to appear after 15.0 seconds: Connection timed out
smp-n89.crc.pitt.edu.172921hfi_wait_for_device: The /dev/hfi1_0 device failed to appear after 15.0 seconds: Connection timed out
smp-n89.crc.pitt.edu.172919hfi_wait_for_device: The /dev/hfi1_0 device failed to appear after 15.0 seconds: Connection timed out
smp-n89.crc.pitt.edu.172933hfi_wait_for_device: The /dev/hfi1_0 device failed to appear after 15.0 seconds: Connection timed out
smp-n89.crc.pitt.edu.172934hfi_wait_for_device: The /dev/hfi1_0 device failed to appear after 15.0 seconds: Connection timed out
smp-n89.crc.pitt.edu.172936hfi_wait_for_device: The /dev/hfi1_0 device failed to appear after 15.0 seconds: Connection timed out
smp-n89.crc.pitt.edu.172930hfi_wait_for_device: The /dev/hfi1_0 device failed to appear after 15.0 seconds: Connection timed out


           ************************************************************
           *        Program running with 12 parallel MPI-processes    *
           *              working on a common directory               *
           ************************************************************
------------------------------------------------------------------------------
                           ORCA GTO INTEGRAL CALCULATION
                           -- RI-GTO INTEGRALS CHOSEN --
------------------------------------------------------------------------------

                         BASIS SET STATISTICS AND STARTUP INFO

Gaussian basis set:
 # of primitive gaussian shells          ...   88
 # of primitive gaussian functions       ...  152
 # of contracted shells                  ...   48
 # of contracted basis functions         ...   96
 Highest angular momentum                ...    2
 Maximum contraction depth               ...    5
Auxiliary gaussian basis set:
 # of primitive gaussian shells          ...  160
 # of primitive gaussian functions       ...  408
 # of contracted shells                  ...  100
 # of contracted aux-basis functions     ...  284
 Highest angular momentum                ...    4
 Maximum contraction depth               ...    7
Ratio of auxiliary to basis functions    ...  2.96
Integral package used                  ... LIBINT
 One Electron integrals                  ... done
 Ordering auxiliary basis shells         ... done
 Integral threshhold             Thresh  ...  2.500e-11
 Primitive cut-off               TCut    ...  2.500e-12
 Pre-screening matrix                    ... done
 Shell pair data                         ... 
 Ordering of the shell pairs             ... done (   0.000 sec) 1121 of 1176 pairs
 Determination of significant pairs      ... done (   0.000 sec)
 Creation of shell pair data             ... done (   0.000 sec)
 Storage of shell pair data              ... done (   0.000 sec)
 Shell pair data done in (   0.001 sec)
 Computing two index integrals           ... done
 Cholesky decomposition of the V-matrix  ... done


Timings:
 Total evaluation time                   ...   0.335 sec (  0.006 min)
 One electron matrix time                ...   0.070 sec (  0.001 min) = 20.8%
 Schwartz matrix evaluation time         ...   0.076 sec (  0.001 min) = 22.7%
 Two index repulsion integral time       ...   0.121 sec (  0.002 min) = 36.3%
 Cholesky decomposition of V             ...   0.052 sec (  0.001 min) = 15.5%
 Three index repulsion integral time     ...   0.000 sec (  0.000 min) =  0.0%

           ************************************************************
           *              Shut down parallel processing               *
           ************************************************************
smp-n89.crc.pitt.edu.172946hfi_wait_for_device: The /dev/hfi1_0 device failed to appear after 15.0 seconds: Connection timed out
smp-n89.crc.pitt.edu.172949hfi_wait_for_device: The /dev/hfi1_0 device failed to appear after 15.0 seconds: Connection timed out
smp-n89.crc.pitt.edu.172960hfi_wait_for_device: The /dev/hfi1_0 device failed to appear after 15.0 seconds: Connection timed out
smp-n89.crc.pitt.edu.172944hfi_wait_for_device: The /dev/hfi1_0 device failed to appear after 15.0 seconds: Connection timed out
smp-n89.crc.pitt.edu.172945hfi_wait_for_device: The /dev/hfi1_0 device failed to appear after 15.0 seconds: Connection timed out
smp-n89.crc.pitt.edu.172947hfi_wait_for_device: The /dev/hfi1_0 device failed to appear after 15.0 seconds: Connection timed out
smp-n89.crc.pitt.edu.172957hfi_wait_for_device: The /dev/hfi1_0 device failed to appear after 15.0 seconds: Connection timed out
smp-n89.crc.pitt.edu.172958hfi_wait_for_device: The /dev/hfi1_0 device failed to appear after 15.0 seconds: Connection timed out
smp-n89.crc.pitt.edu.172948hfi_wait_for_device: The /dev/hfi1_0 device failed to appear after 15.0 seconds: Connection timed out
smp-n89.crc.pitt.edu.172953hfi_wait_for_device: The /dev/hfi1_0 device failed to appear after 15.0 seconds: Connection timed out
smp-n89.crc.pitt.edu.172954hfi_wait_for_device: The /dev/hfi1_0 device failed to appear after 15.0 seconds: Connection timed out
smp-n89.crc.pitt.edu.172951hfi_wait_for_device: The /dev/hfi1_0 device failed to appear after 15.0 seconds: Connection timed out


           ************************************************************
           *        Program running with 12 parallel MPI-processes    *
           *              working on a common directory               *
           ************************************************************
-------------------------------------------------------------------------------
                                 ORCA SCF
-------------------------------------------------------------------------------

------------
SCF SETTINGS
------------
Hamiltonian:
 Density Functional     Method          .... DFT(GTOs)
 Exchange Functional    Exchange        .... B88
   X-Alpha parameter    XAlpha          ....  0.666667
   Becke's b parameter  XBeta           ....  0.004200
 Correlation Functional Correlation     .... P86
 LDA part of GGA corr.  LDAOpt          .... PW91-LDA
 Gradients option       PostSCFGGA      .... off
 RI-approximation to the Coulomb term is turned on
   Number of auxiliary basis functions  .... 284


General Settings:
 Integral files         IntName         .... 4_BP86_4_h2o_rst
 Hartree-Fock type      HFTyp           .... RHF
 Total Charge           Charge          ....    0
 Multiplicity           Mult            ....    1
 Number of Electrons    NEL             ....   40
 Basis Dimension        Dim             ....   96
 Nuclear Repulsion      ENuc            ....    139.2120832803 Eh

Convergence Acceleration:
 DIIS                   CNVDIIS         .... on
   Start iteration      DIISMaxIt       ....    12
   Startup error        DIISStart       ....  0.200000
   # of expansion vecs  DIISMaxEq       ....     5
   Bias factor          DIISBfac        ....   1.050
   Max. coefficient     DIISMaxC        ....  10.000
 Newton-Raphson         CNVNR           .... off
 SOSCF                  CNVSOSCF        .... on
   Start iteration      SOSCFMaxIt      ....   150
   Startup grad/error   SOSCFStart      ....  0.003300
 Level Shifting         CNVShift        .... on
   Level shift para.    LevelShift      ....    0.2500
   Turn off err/grad.   ShiftErr        ....    0.0010
 Zerner damping         CNVZerner       .... off
 Static damping         CNVDamp         .... on
   Fraction old density DampFac         ....    0.7000
   Max. Damping (<1)    DampMax         ....    0.9800
   Min. Damping (>=0)   DampMin         ....    0.0000
   Turn off err/grad.   DampErr         ....    0.1000
 Fernandez-Rico         CNVRico         .... off

SCF Procedure:
 Maximum # iterations   MaxIter         ....   800
 SCF integral mode      SCFMode         .... Direct
   Integral package                     .... LIBINT
 Reset frequeny         DirectResetFreq ....    20
 Integral Threshold     Thresh          ....  2.500e-11 Eh
 Primitive CutOff       TCut            ....  2.500e-12 Eh

Convergence Tolerance:
 Convergence Check Mode ConvCheckMode   .... Total+1el-Energy
 Energy Change          TolE            ....  1.000e-08 Eh
 1-El. energy change                    ....  1.000e-05 Eh
 Orbital Gradient       TolG            ....  1.000e-05
 Orbital Rotation angle TolX            ....  1.000e-05
 DIIS Error             TolErr          ....  5.000e-07


Diagonalization of the overlap matrix:
Smallest eigenvalue                        ... 2.069e-02
Time for diagonalization                   ...    0.002 sec
Threshold for overlap eigenvalues          ... 1.000e-08
Number of eigenvalues below threshold      ... 0
Time for construction of square roots      ...    0.024 sec
Total time needed                          ...    0.026 sec

-------------------
DFT GRID GENERATION
-------------------

General Integration Accuracy     IntAcc      ...  4.340
Radial Grid Type                 RadialGrid  ... Gauss-Chebyshev
Angular Grid (max. acc.)         AngularGrid ... Lebedev-110
Angular grid pruning method      GridPruning ... 3 (G Style)
Weight generation scheme         WeightScheme... Becke
Basis function cutoff            BFCut       ...    1.0000e-11
Integration weight cutoff        WCut        ...    1.0000e-14
Grids for H and He will be reduced by one unit

# of grid points (after initial pruning)     ...  13216 (   0.0 sec)
# of grid points (after weights+screening)   ...  12633 (   0.0 sec)
nearest neighbour list constructed           ...    0.0 sec
Grid point re-assignment to atoms done       ...    0.0 sec
Grid point division into batches done        ...    0.0 sec
Reduced shell lists constructed in    0.0 sec

Total number of grid points                  ...    12633
Total number of batches                      ...      205
Average number of points per batch           ...       61
Average number of grid points per atom       ...     1053
Average number of shells per batch           ...    36.16 (75.33%)
Average number of basis functions per batch  ...    69.84 (72.75%)
Average number of large shells per batch     ...    26.42 (73.07%)
Average number of large basis fcns per batch ...    47.47 (67.97%)
Maximum spatial batch extension              ...  11.08, 11.93, 11.18 au
Average spatial batch extension              ...   0.23,  0.25,  0.23 au

Time for grid setup =    0.343 sec

------------------------------
INITIAL GUESS: MODEL POTENTIAL
------------------------------
Loading Hartree-Fock densities                     ... done
Calculating cut-offs                               ... done
Setting up the integral package                    ... done
Initializing the effective Hamiltonian             ... done
Starting the Coulomb interaction                   ... done (   0.0 sec)
Reading the grid                                   ... done
Mapping shells                                     ... done
Starting the XC term evaluation                    ... done (   0.0 sec)
  promolecular density results
     # of electrons  =     40.000350318
     EX              =    -35.174509071
     EC              =     -1.440352209
     EX+EC           =    -36.614861280
Transforming the Hamiltonian                       ... done (   0.0 sec)
Diagonalizing the Hamiltonian                      ... done (   0.0 sec)
Back transforming the eigenvectors                 ... done (   0.0 sec)
Now organizing SCF variables                       ... done
                      ------------------
                      INITIAL GUESS DONE (   0.5 sec)
                      ------------------
--------------
SCF ITERATIONS
--------------
ITER       Energy         Delta-E        Max-DP      RMS-DP      [F,P]     Damp
               ***  Starting incremental Fock matrix formation  ***
  0   -305.1970360556   0.000000000000 0.08866125  0.00457544  0.2826963 0.7000
  1   -305.3481127396  -0.151076683995 0.04581950  0.00248765  0.1085327 0.7000
                               ***Turning on DIIS***
  2   -305.3930598312  -0.044947091592 0.04523029  0.00249764  0.0191301 0.0000
  3   -305.4793551304  -0.086295299240 0.02544894  0.00141709  0.0609597 0.0000
  4   -305.4933358516  -0.013980721205 0.00553603  0.00034150  0.0123085 0.0000
                      *** Initiating the SOSCF procedure ***
                           *** Shutting down DIIS ***
                      *** Re-Reading the Fockian *** 
                      *** Removing any level shift *** 
ITER      Energy       Delta-E        Grad      Rot      Max-DP    RMS-DP
  5   -305.49382468  -0.0004888240  0.000703  0.000703  0.001781  0.000105
               *** Restarting incremental Fock matrix formation ***
  6   -305.49384872  -0.0000240485  0.000341  0.000709  0.001695  0.000081
  7   -305.49384578   0.0000029399  0.000560  0.000273  0.001012  0.000039
  8   -305.49385336  -0.0000075716  0.000032  0.000082  0.000126  0.000007
  9   -305.49385337  -0.0000000159  0.000037  0.000026  0.000070  0.000003
 10   -305.49385339  -0.0000000203  0.000013  0.000021  0.000033  0.000002
 11   -305.49385339   0.0000000015  0.000004  0.000007  0.000012  0.000001
                  ***Gradient check signals convergence***
              ***Rediagonalizing the Fockian in SOSCF/NRSCF***

               *****************************************************
               *                     SUCCESS                       *
               *           SCF CONVERGED AFTER  12 CYCLES          *
               *****************************************************

Setting up the final grid:

General Integration Accuracy     IntAcc      ...  4.670
Radial Grid Type                 RadialGrid  ... Gauss-Chebyshev
Angular Grid (max. acc.)         AngularGrid ... Lebedev-302
Angular grid pruning method      GridPruning ... 3 (G Style)
Weight generation scheme         WeightScheme... Becke
Basis function cutoff            BFCut       ...    1.0000e-11
Integration weight cutoff        WCut        ...    1.0000e-14
Grids for H and He will be reduced by one unit

# of grid points (after initial pruning)     ...  52000 (   0.0 sec)
# of grid points (after weights+screening)   ...  49249 (   0.0 sec)
nearest neighbour list constructed           ...    0.0 sec
Grid point re-assignment to atoms done       ...    0.0 sec
Grid point division into batches done        ...    0.1 sec
Reduced shell lists constructed in    0.1 sec

Total number of grid points                  ...    49249
Total number of batches                      ...      776
Average number of points per batch           ...       63
Average number of grid points per atom       ...     4104
Average number of shells per batch           ...    35.24 (73.42%)
Average number of basis functions per batch  ...    67.03 (69.82%)
Average number of large shells per batch     ...    25.32 (71.84%)
Average number of large basis fcns per batch ...    44.80 (66.84%)
Maximum spatial batch extension              ...  12.23, 11.23, 11.02 au
Average spatial batch extension              ...   0.15,  0.14,  0.15 au

Final grid set up in    0.2 sec
Final integration                            ... done (   0.0 sec)
Change in XC energy                          ...    -0.000240734
Integrated number of electrons               ...    40.000056676
Previous integrated no of electrons          ...    39.998581174

----------------
TOTAL SCF ENERGY
----------------

Total Energy       :         -305.49409413 Eh           -8312.91692 eV

Components:
Nuclear Repulsion  :          139.21208328 Eh            3788.15337 eV
Electronic Energy  :         -444.70617741 Eh          -12101.07029 eV

One Electron Energy:         -697.17290323 Eh          -18971.03917 eV
Two Electron Energy:          252.46672583 Eh            6869.96887 eV

Virial components:
Potential Energy   :         -608.78584771 Eh          -16565.90511 eV
Kinetic Energy     :          303.29175359 Eh            8252.98819 eV
Virial Ratio       :            2.00726146


DFT components:
N(Alpha)           :       20.000028337754 electrons
N(Beta)            :       20.000028337754 electrons
N(Total)           :       40.000056675508 electrons
E(X)               :      -35.969013600103 Eh       
E(C)               :       -1.474058427022 Eh       
E(XC)              :      -37.443072027125 Eh       

---------------
SCF CONVERGENCE
---------------

  Last Energy change         ...   -1.4364e-09  Tolerance :   1.0000e-08
  Last MAX-Density change    ...    7.8592e-06  Tolerance :   1.0000e-07
  Last RMS-Density change    ...    3.1996e-07  Tolerance :   5.0000e-09
  Last Orbital Gradient      ...    2.3587e-06  Tolerance :   1.0000e-05
  Last Orbital Rotation      ...    2.3660e-06  Tolerance :   1.0000e-05

             **** THE GBW FILE WAS UPDATED (4_BP86_4_h2o_rst.gbw) ****
             **** DENSITY FILE WAS UPDATED (4_BP86_4_h2o_rst.scfp.tmp) ****
             **** ENERGY FILE WAS UPDATED (4_BP86_4_h2o_rst.en.tmp) ****
----------------
ORBITAL ENERGIES
----------------

  NO   OCC          E(Eh)            E(eV) 
   0   2.0000     -18.781691      -511.0758 
   1   2.0000     -18.761169      -510.5174 
   2   2.0000     -18.745846      -510.1004 
   3   2.0000     -18.741634      -509.9858 
   4   2.0000      -0.920284       -25.0422 
   5   2.0000      -0.900937       -24.5157 
   6   2.0000      -0.887012       -24.1368 
   7   2.0000      -0.875604       -23.8264 
   8   2.0000      -0.486351       -13.2343 
   9   2.0000      -0.473238       -12.8775 
  10   2.0000      -0.464911       -12.6509 
  11   2.0000      -0.438854       -11.9418 
  12   2.0000      -0.358505        -9.7554 
  13   2.0000      -0.328558        -8.9405 
  14   2.0000      -0.313498        -8.5307 
  15   2.0000      -0.285507        -7.7690 
  16   2.0000      -0.261142        -7.1060 
  17   2.0000      -0.245422        -6.6783 
  18   2.0000      -0.229427        -6.2430 
  19   2.0000      -0.222584        -6.0568 
  20   0.0000       0.022612         0.6153 
  21   0.0000       0.057983         1.5778 
  22   0.0000       0.065374         1.7789 
  23   0.0000       0.085798         2.3347 
  24   0.0000       0.154058         4.1921 
  25   0.0000       0.193275         5.2593 
  26   0.0000       0.228773         6.2252 
  27   0.0000       0.258835         7.0433 
  28   0.0000       0.488047        13.2804 
  29   0.0000       0.517487        14.0815 
  30   0.0000       0.537829        14.6351 
  31   0.0000       0.550934        14.9917 
  32   0.0000       0.585424        15.9302 
  33   0.0000       0.589969        16.0539 
  34   0.0000       0.604246        16.4424 
  35   0.0000       0.617945        16.8151 
  36   0.0000       0.802409        21.8347 
  37   0.0000       0.852848        23.2072 
  38   0.0000       0.866620        23.5819 
  39   0.0000       0.887440        24.1485 
  40   0.0000       0.892502        24.2862 
  41   0.0000       0.933198        25.3936 
  42   0.0000       0.944689        25.7063 
  43   0.0000       0.959829        26.1183 
  44   0.0000       0.974816        26.5261 
  45   0.0000       0.996488        27.1158 
  46   0.0000       1.030435        28.0396 
  47   0.0000       1.079805        29.3830 
  48   0.0000       1.105519        30.0827 
  49   0.0000       1.201436        32.6927 
  50   0.0000       1.236213        33.6391 
  51   0.0000       1.254061        34.1247 
  52   0.0000       1.290439        35.1146 
  53   0.0000       1.305802        35.5327 
  54   0.0000       1.333713        36.2922 
  55   0.0000       1.357707        36.9451 
  56   0.0000       1.382445        37.6183 
  57   0.0000       1.420365        38.6501 
  58   0.0000       1.442361        39.2486 
  59   0.0000       1.473131        40.0859 
  60   0.0000       1.510908        41.1139 
  61   0.0000       1.538445        41.8632 
  62   0.0000       1.581564        43.0365 
  63   0.0000       1.584445        43.1149 
  64   0.0000       1.747383        47.5487 
  65   0.0000       1.768278        48.1173 
  66   0.0000       1.773429        48.2574 
  67   0.0000       1.806475        49.1567 
  68   0.0000       2.139639        58.2225 
  69   0.0000       2.157210        58.7007 
  70   0.0000       2.164258        58.8925 
  71   0.0000       2.179711        59.3130 
  72   0.0000       2.201558        59.9074 
  73   0.0000       2.379000        64.7359 
  74   0.0000       2.425242        65.9942 
  75   0.0000       2.469846        67.2079 
  76   0.0000       2.853389        77.6447 
  77   0.0000       2.869846        78.0925 
  78   0.0000       2.880037        78.3698 
  79   0.0000       2.881858        78.4193 
  80   0.0000       2.906543        79.0910 
  81   0.0000       2.928680        79.6934 
  82   0.0000       2.943398        80.0939 
  83   0.0000       2.973621        80.9163 
  84   0.0000       3.089978        84.0826 
  85   0.0000       3.112829        84.7044 
  86   0.0000       3.125230        85.0418 
  87   0.0000       3.139123        85.4199 
  88   0.0000       3.398659        92.4822 
  89   0.0000       3.425368        93.2090 
  90   0.0000       3.453968        93.9872 
  91   0.0000       3.505781        95.3972 
  92   0.0000       3.725794       101.3840 
  93   0.0000       3.763504       102.4101 
  94   0.0000       3.799734       103.3960 
  95   0.0000       3.823501       104.0427 

                    ********************************
                    * MULLIKEN POPULATION ANALYSIS *
                    ********************************

-----------------------
MULLIKEN ATOMIC CHARGES
-----------------------
   0 O :   -0.271434
   1 H :    0.120216
   2 H :    0.157953
   3 O :   -0.286358
   4 H :    0.106709
   5 H :    0.150771
   6 O :   -0.264341
   7 H :    0.165525
   8 H :    0.149377
   9 O :   -0.297314
  10 H :    0.115954
  11 H :    0.152943
Sum of atomic charges:   -0.0000000

--------------------------------
MULLIKEN REDUCED ORBITAL CHARGES
--------------------------------
  0 O s       :     3.648815  s :     3.648815
      pz      :     1.528674  p :     4.613501
      px      :     1.564340
      py      :     1.520488
      dz2     :     0.001604  d :     0.009118
      dxz     :     0.002024
      dyz     :     0.001192
      dx2y2   :     0.002225
      dxy     :     0.002073
  1 H s       :     0.804248  s :     0.804248
      pz      :     0.018829  p :     0.075536
      px      :     0.022345
      py      :     0.034361
  2 H s       :     0.771462  s :     0.771462
      pz      :     0.026507  p :     0.070585
      px      :     0.026442
      py      :     0.017637
  3 O s       :     3.646363  s :     3.646363
      pz      :     1.469338  p :     4.631130
      px      :     1.948576
      py      :     1.213216
      dz2     :     0.003785  d :     0.008865
      dxz     :     0.000799
      dyz     :     0.002114
      dx2y2   :     0.001842
      dxy     :     0.000324
  4 H s       :     0.816647  s :     0.816647
      pz      :     0.035688  p :     0.076645
      px      :     0.019091
      py      :     0.021866
  5 H s       :     0.778091  s :     0.778091
      pz      :     0.017439  p :     0.071138
      px      :     0.020410
      py      :     0.033289
  6 O s       :     3.660096  s :     3.660096
      pz      :     1.425536  p :     4.594973
      px      :     1.300961
      py      :     1.868475
      dz2     :     0.004885  d :     0.009272
      dxz     :     0.000685
      dyz     :     0.000634
      dx2y2   :     0.002434
      dxy     :     0.000633
  7 H s       :     0.764003  s :     0.764003
      pz      :     0.017074  p :     0.070472
      px      :     0.033340
      py      :     0.020058
  8 H s       :     0.778768  s :     0.778768
      pz      :     0.035150  p :     0.071855
      px      :     0.018450
      py      :     0.018256
  9 O s       :     3.651682  s :     3.651682
      pz      :     1.435871  p :     4.636391
      px      :     1.735891
      py      :     1.464629
      dz2     :     0.001637  d :     0.009242
      dxz     :     0.002963
      dyz     :     0.000611
      dx2y2   :     0.002671
      dxy     :     0.001359
 10 H s       :     0.809016  s :     0.809016
      pz      :     0.020785  p :     0.075030
      px      :     0.018239
      py      :     0.036007
 11 H s       :     0.776446  s :     0.776446
      pz      :     0.028736  p :     0.070611
      px      :     0.023723
      py      :     0.018152


                     *******************************
                     * LOEWDIN POPULATION ANALYSIS *
                     *******************************

----------------------
LOEWDIN ATOMIC CHARGES
----------------------
   0 O :   -0.089378
   1 H :    0.018748
   2 H :    0.074719
   3 O :   -0.125788
   4 H :    0.012378
   5 H :    0.074136
   6 O :   -0.077021
   7 H :    0.081280
   8 H :    0.057390
   9 O :   -0.135117
  10 H :    0.034758
  11 H :    0.073896

-------------------------------
LOEWDIN REDUCED ORBITAL CHARGES
-------------------------------
  0 O s       :     3.396354  s :     3.396354
      pz      :     1.541090  p :     4.674982
      px      :     1.570120
      py      :     1.563772
      dz2     :     0.003131  d :     0.018042
      dxz     :     0.005571
      dyz     :     0.001526
      dx2y2   :     0.003781
      dxy     :     0.004033
  1 H s       :     0.761900  s :     0.761900
      pz      :     0.044997  p :     0.219351
      px      :     0.060762
      py      :     0.113593
  2 H s       :     0.745364  s :     0.745364
      pz      :     0.073034  p :     0.179917
      px      :     0.064818
      py      :     0.042065
  3 O s       :     3.394711  s :     3.394711
      pz      :     1.535335  p :     4.713310
      px      :     1.879430
      py      :     1.298545
      dz2     :     0.007213  d :     0.017767
      dxz     :     0.000289
      dyz     :     0.004611
      dx2y2   :     0.005297
      dxy     :     0.000356
  4 H s       :     0.765941  s :     0.765941
      pz      :     0.120560  p :     0.221681
      px      :     0.056022
      py      :     0.045099
  5 H s       :     0.745799  s :     0.745799
      pz      :     0.040410  p :     0.180065
      px      :     0.056011
      py      :     0.083644
  6 O s       :     3.400009  s :     3.400009
      pz      :     1.481746  p :     4.658724
      px      :     1.371131
      py      :     1.805846
      dz2     :     0.010086  d :     0.018288
      dxz     :     0.001108
      dyz     :     0.000333
      dx2y2   :     0.005785
      dxy     :     0.000976
  7 H s       :     0.739458  s :     0.739458
      pz      :     0.035721  p :     0.179262
      px      :     0.088301
      py      :     0.055241
  8 H s       :     0.753213  s :     0.753213
      pz      :     0.099578  p :     0.189397
      px      :     0.036174
      py      :     0.053645
  9 O s       :     3.402951  s :     3.402951
      pz      :     1.473363  p :     4.714187
      px      :     1.730500
      py      :     1.510324
      dz2     :     0.003331  d :     0.017978
      dxz     :     0.006474
      dyz     :     0.001690
      dx2y2   :     0.004901
      dxy     :     0.001582
 10 H s       :     0.760687  s :     0.760687
      pz      :     0.045600  p :     0.204555
      px      :     0.050604
      py      :     0.108351
 11 H s       :     0.746565  s :     0.746565
      pz      :     0.074733  p :     0.179539
      px      :     0.067110
      py      :     0.037697


                      *****************************
                      * MAYER POPULATION ANALYSIS *
                      *****************************

  NA   - Mulliken gross atomic population
  ZA   - Total nuclear charge
  QA   - Mulliken gross atomic charge
  VA   - Mayer's total valence
  BVA  - Mayer's bonded valence
  FA   - Mayer's free valence

  ATOM       NA         ZA         QA         VA         BVA        FA
  0 O      8.2714     8.0000    -0.2714     2.1381     2.1381     0.0000
  1 H      0.8798     1.0000     0.1202     1.1270     1.1270     0.0000
  2 H      0.8420     1.0000     0.1580     1.0109     1.0109    -0.0000
  3 O      8.2864     8.0000    -0.2864     2.0753     2.0753    -0.0000
  4 H      0.8933     1.0000     0.1067     1.1323     1.1323     0.0000
  5 H      0.8492     1.0000     0.1508     1.0198     1.0198     0.0000
  6 O      8.2643     8.0000    -0.2643     2.1575     2.1575     0.0000
  7 H      0.8345     1.0000     0.1655     1.0082     1.0082     0.0000
  8 H      0.8506     1.0000     0.1494     1.0851     1.0851     0.0000
  9 O      8.2973     8.0000    -0.2973     2.0710     2.0710    -0.0000
 10 H      0.8840     1.0000     0.1160     1.1218     1.1218    -0.0000
 11 H      0.8471     1.0000     0.1529     1.0136     1.0136    -0.0000

  Mayer bond orders larger than 0.1
B(  0-O ,  1-H ) :   0.9208 B(  0-O ,  2-H ) :   0.9973 B(  0-O ,  4-H ) :   0.1998 
B(  1-H ,  6-O ) :   0.1911 B(  3-O ,  4-H ) :   0.9173 B(  3-O ,  5-H ) :   0.9934 
B(  3-O , 10-H ) :   0.1492 B(  6-O ,  7-H ) :   0.9964 B(  6-O ,  8-H ) :   0.9550 
B(  8-H ,  9-O ) :   0.1110 B(  9-O , 10-H ) :   0.9482 B(  9-O , 11-H ) :   0.9985 


-------
TIMINGS
-------

Total SCF time: 0 days 0 hours 0 min 2 sec 

Total time                  ....       2.325 sec
Sum of individual times     ....       3.044 sec  (130.9%)

Fock matrix formation       ....       1.695 sec  ( 72.9%)
  Coulomb formation         ....       1.457 sec  ( 85.9% of F)
  Split-RI-J                ....       1.402 sec  ( 82.7% of F)
  XC integration            ....       0.231 sec  ( 13.6% of F)
    Basis function eval.    ....       0.042 sec  ( 18.4% of XC)
    Density eval.           ....       0.019 sec  (  8.0% of XC)
    XC-Functional eval.     ....       0.015 sec  (  6.5% of XC)
    XC-Potential eval.      ....       0.028 sec  ( 12.1% of XC)
Diagonalization             ....       0.049 sec  (  2.1%)
Density matrix formation    ....       0.119 sec  (  5.1%)
Population analysis         ....       0.004 sec  (  0.2%)
Initial guess               ....       0.534 sec  ( 23.0%)
Orbital Transformation      ....       0.000 sec  (  0.0%)
Orbital Orthonormalization  ....       0.000 sec  (  0.0%)
DIIS solution               ....       0.002 sec  (  0.1%)
SOSCF solution              ....       0.077 sec  (  3.3%)
Grid generation             ....       0.563 sec  ( 24.2%)
           ************************************************************
           *              Shut down parallel processing               *
           ************************************************************

Entering the calculation of the dispersion correction...

Checking the input atom types...

Done


-------------------------------------------------------------------------------
                          DFT DISPERSION CORRECTION                            
                                                                               
                                DFTD3 V2.1  Rev 6                               
                          USING Becke-Johnson damping                          
-------------------------------------------------------------------------------
The BP86 functional is recognized
Active option DFTDOPT                   ...         4   

molecular C6(AA) [au] = 712.151261 


            DFT-D V3
 parameters
 s6 scaling factor         :     1.0000 
 a1 scaling factor         :     0.3946 
 s8 scaling factor         :     3.2822 
 a2 scaling factor         :     4.8516 
 ad hoc parameters k1-k3   :    16.0000     1.3333    -4.0000 

 Edisp/kcal,au: -4.086738915215  -0.006512632316 
 E6   /kcal   :  -1.829945227 
 E8   /kcal   :  -2.256793688 
 % E8         :  55.222360294 

-------------------------   ----------------
Dispersion correction           -0.006512632
-------------------------   ----------------


-------------------------   --------------------
FINAL SINGLE POINT ENERGY      -305.500606758185
-------------------------   --------------------

smp-n89.crc.pitt.edu.172987hfi_wait_for_device: The /dev/hfi1_0 device failed to appear after 15.0 seconds: Connection timed out
smp-n89.crc.pitt.edu.172983hfi_wait_for_device: The /dev/hfi1_0 device failed to appear after 15.0 seconds: Connection timed out
smp-n89.crc.pitt.edu.172984hfi_wait_for_device: The /dev/hfi1_0 device failed to appear after 15.0 seconds: Connection timed out
smp-n89.crc.pitt.edu.172986hfi_wait_for_device: The /dev/hfi1_0 device failed to appear after 15.0 seconds: Connection timed out
smp-n89.crc.pitt.edu.172993hfi_wait_for_device: The /dev/hfi1_0 device failed to appear after 15.0 seconds: Connection timed out
smp-n89.crc.pitt.edu.173002hfi_wait_for_device: The /dev/hfi1_0 device failed to appear after 15.0 seconds: Connection timed out
smp-n89.crc.pitt.edu.172990hfi_wait_for_device: The /dev/hfi1_0 device failed to appear after 15.0 seconds: Connection timed out
smp-n89.crc.pitt.edu.172988hfi_wait_for_device: The /dev/hfi1_0 device failed to appear after 15.0 seconds: Connection timed out
smp-n89.crc.pitt.edu.172995hfi_wait_for_device: The /dev/hfi1_0 device failed to appear after 15.0 seconds: Connection timed out
smp-n89.crc.pitt.edu.172997hfi_wait_for_device: The /dev/hfi1_0 device failed to appear after 15.0 seconds: Connection timed out
smp-n89.crc.pitt.edu.172999hfi_wait_for_device: The /dev/hfi1_0 device failed to appear after 15.0 seconds: Connection timed out
smp-n89.crc.pitt.edu.172985hfi_wait_for_device: The /dev/hfi1_0 device failed to appear after 15.0 seconds: Connection timed out


           ************************************************************
           *        Program running with 12 parallel MPI-processes    *
           *              working on a common directory               *
           ************************************************************
------------------------------------------------------------------------------
                         ORCA SCF GRADIENT CALCULATION
------------------------------------------------------------------------------

Gradient of the Kohn-Sham DFT energy:
Kohn-Sham wavefunction type      ... RKS
Hartree-Fock exchange scaling    ...    0.000
Number of operators              ...    1
Number of atoms                  ...   12
Basis set dimensions             ...   96
Integral neglect threshold       ... 2.5e-11
Integral primitive cutoff        ... 2.5e-12

Nuclear repulsion gradient       ... done
One Electron Gradient            ... done
Pre-screening matrix             ... done
RI-J gradient                    ... done
Exchange-correlation gradient    ... done
Dispersion correction            ... 
Entering the calculation of the dispersion correction...

Checking the input atom types...

Done
done

------------------
CARTESIAN GRADIENT
------------------

   1   O   :    0.003573322   -0.032632342   -0.005543234
   2   H   :   -0.018163412    0.031239970   -0.005533703
   3   H   :    0.011869808    0.003170535    0.010603627
   4   O   :    0.006722092    0.006508339   -0.033870597
   5   H   :   -0.000059055    0.007103464    0.036158519
   6   H   :   -0.003661959   -0.012700357    0.001693413
   7   O   :    0.011211087   -0.003150807    0.023409666
   8   H   :   -0.016747046    0.001480054   -0.000334473
   9   H   :    0.010153911   -0.000599221   -0.028707337
  10   O   :   -0.017427925    0.027479846    0.010723045
  11   H   :    0.003543599   -0.029328948    0.002205993
  12   H   :    0.008985576    0.001429468   -0.010804920

Norm of the cartesian gradient     ...    0.098099034
RMS gradient                       ...    0.016349839
MAX gradient                       ...    0.036158519

-------
TIMINGS
-------

Total SCF gradient time            ...        0.845 sec

One electron gradient       ....       0.051 sec  (  6.0%)
Prescreening matrices       ....       0.080 sec  (  9.5%)
RI-J Coulomb gradient       ....       0.157 sec  ( 18.6%)
XC gradient                 ....       0.132 sec  ( 15.7%)
           ************************************************************
           *              Shut down parallel processing               *
           ************************************************************
------------------------------------------------------------------------------
                         ORCA GEOMETRY RELAXATION STEP
------------------------------------------------------------------------------

Reading the OPT-File                    .... done
Getting information on internals        .... done
Copying old internal coords+grads       .... done
Making the new internal coordinates     .... (new redundants).... done
Validating the new internal coordinates .... (new redundants).... done
Calculating the B-matrix                .... done
Calculating the G,G- and P matrices     .... done
Transforming gradient to internals      .... done
Projecting the internal gradient        .... done
Number of atoms                         ....  12
Number of internal coordinates          ....  96
Current Energy                          ....  -305.500606758 Eh
Current gradient norm                   ....     0.098099034 Eh/bohr
Maximum allowed component of the step   ....  0.300
Current trust radius                    ....  0.300
Evaluating the initial hessian          ....  (Almloef) done
Projecting the Hessian                  .... done
Forming the augmented Hessian           .... done
Diagonalizing the augmented Hessian     .... done
Last element of RFO vector              ....  0.963188804
Lowest eigenvalues of augmented Hessian:
 -0.010142884  0.009819201  0.012266206  0.014787710  0.015082322
Length of the computed step             ....  0.279099829
The final length of the internal step   ....  0.279099829
Converting the step to cartesian space:
 Initial RMS(Int)=    0.0284855070
Transforming coordinates:
 Iter   0:  RMS(Cart)=    0.0430615195 RMS(Int)=    0.0284369833
 Iter   1:  RMS(Cart)=    0.0004546882 RMS(Int)=    0.0006135432
 Iter   2:  RMS(Cart)=    0.0000104971 RMS(Int)=    0.0000322129
 Iter   3:  RMS(Cart)=    0.0000004632 RMS(Int)=    0.0000025639
 Iter   4:  RMS(Cart)=    0.0000000401 RMS(Int)=    0.0000002240
done
Storing new coordinates                 .... done

                                .--------------------.
          ----------------------|Geometry convergence|---------------------
          Item                value                 Tolerance   Converged
          -----------------------------------------------------------------
          RMS gradient        0.00649874            0.00010000      NO
          MAX gradient        0.02850083            0.00030000      NO
          RMS step            0.02848551            0.00200000      NO
          MAX step            0.21889660            0.00400000      NO
          ....................................................
          Max(Bonds)      0.1158      Max(Angles)    1.89
          Max(Dihed)        1.89      Max(Improp)    0.00
          -----------------------------------------------------------------

The optimization has not yet converged - more geometry cycles are needed


    ---------------------------------------------------------------------------
                         Redundant Internal Coordinates
                            (Angstroem and degrees)

        Definition                    Value    dE/dq     Step     New-Value
    ----------------------------------------------------------------------------
     1. B(H   1,O   0)                0.9572 -0.026308  0.0328    0.9900   
     2. B(H   2,O   0)                0.9572 -0.016109  0.0159    0.9731   
     3. B(H   4,H   1)                2.1702 -0.008035 -0.0148    2.1553   
     4. B(H   4,O   0)                1.7597  0.003885 -0.0221    1.7377   
     5. B(H   4,O   3)                0.9572 -0.028501  0.0304    0.9876   
     6. B(H   5,O   3)                0.9572 -0.013076  0.0129    0.9701   
     7. B(O   6,H   1)                1.7774  0.003389 -0.0055    1.7719   
     8. B(H   7,O   6)                0.9572 -0.016776  0.0166    0.9738   
     9. B(H   8,O   6)                0.9572 -0.018672  0.0246    0.9818   
    10. B(H   8,H   1)                2.2134 -0.005958  0.0148    2.2282   
    11. B(O   9,H   8)                2.1798  0.006751 -0.1158    2.0639   
    12. B(H  10,H   4)                1.9776 -0.003796  0.0094    1.9870   
    13. B(H  10,O   9)                0.9572 -0.026046  0.0274    0.9845   
    14. B(H  10,O   3)                1.8301  0.002558  0.0025    1.8326   
    15. B(H  11,O   9)                0.9572 -0.014069  0.0139    0.9711   
    16. A(H   2,O   0,H   4)          127.75  0.000303    0.24    127.99   
    17. A(H   1,O   0,H   2)          104.52 -0.001863    0.26    104.78   
    18. A(H   1,O   0,H   4)          101.93  0.003118   -1.12    100.81   
    19. A(O   0,H   1,H   8)          147.33  0.002601   -1.09    146.25   
    20. A(H   4,H   1,H   8)           95.69 -0.000550   -0.95     94.74   
    21. A(O   0,H   1,O   6)          172.09 -0.001733   -0.63    171.46   
    22. A(O   6,H   1,H   8)           24.81 -0.004332    0.46     25.27   
    23. A(O   0,H   1,H   4)           52.50  0.003217   -0.12     52.38   
    24. A(H   4,H   1,O   6)          120.06 -0.004849   -0.48    119.58   
    25. A(H   4,O   3,H   5)          104.52 -0.003281    0.40    104.92   
    26. A(H   5,O   3,H  10)          162.58  0.000877   -0.32    162.26   
    27. A(H   4,O   3,H  10)           84.19  0.003055   -0.30     83.89   
    28. A(H   1,H   4,H  10)           92.70  0.000709   -0.64     92.07   
    29. A(O   0,H   4,O   3)          169.08  0.001735   -0.27    168.81   
    30. A(O   0,H   4,H  10)          117.90 -0.005624    0.59    118.49   
    31. A(O   3,H   4,H  10)           67.02  0.004873   -0.53     66.49   
    32. A(O   0,H   4,H   1)           25.57 -0.006335    1.24     26.81   
    33. A(H   1,H   4,O   3)          154.87  0.006041   -1.26    153.61   
    34. A(H   1,O   6,H   8)          104.02  0.001895    0.34    104.35   
    35. A(H   7,O   6,H   8)          104.52 -0.000903   -0.09    104.43   
    36. A(H   1,O   6,H   7)          122.38  0.000188   -0.24    122.13   
    37. A(H   1,H   8,O   9)          101.31 -0.004351    1.86    103.17   
    38. A(O   6,H   8,O   9)          151.82 -0.001918    1.09    152.91   
    39. A(H   1,H   8,O   6)           51.18  0.002436   -0.80     50.37   
    40. A(H   8,O   9,H  11)          149.55  0.000177   -0.75    148.80   
    41. A(H   8,O   9,H  10)           97.58 -0.001101    1.58     99.16   
    42. A(H  10,O   9,H  11)          104.52  0.000896   -0.48    104.04   
    43. A(O   3,H  10,H   4)           28.79 -0.007928    0.83     29.62   
    44. A(H   4,H  10,O   9)          152.12  0.005377   -1.89    150.23   
    45. D(O   6,H   1,O   0,H   2)   -113.70 -0.001082    0.11   -113.58   
    46. D(O   6,H   1,O   0,H   4)     20.82  0.000026   -0.11     20.71   
    47. D(H   4,H   1,O   0,H   2)   -134.51 -0.001108    0.22   -134.29   
    48. D(H   8,H   1,O   0,H   4)     15.15  0.000807   -0.03     15.12   
    49. D(H   8,H   1,O   0,H   2)   -119.36 -0.000301    0.19   -119.17   
    50. D(O   3,H   4,O   0,H   2)   -136.93  0.000923   -1.14   -138.07   
    51. D(O   3,H   4,H   1,O   6)     28.91  0.002390   -0.33     28.58   
    52. D(O   0,H   4,H   1,O   6)   -176.76  0.000551    0.22   -176.54   
    53. D(O   0,H   4,O   3,H  10)   -119.04  0.000698    0.26   -118.78   
    54. D(O   3,H   4,H   1,H   8)     33.82  0.001677   -0.34     33.48   
    55. D(H  10,H   4,O   0,H   2)    108.69 -0.000233   -0.63    108.06   
    56. D(O   3,H   4,O   0,H   1)    103.88  0.000256   -0.54    103.35   
    57. D(H   1,H   4,O   3,H  10)    -38.42 -0.001881    0.46    -37.96   
    58. D(O   0,H   4,H   1,H   8)   -171.85 -0.000162    0.22   -171.63   
    59. D(H  10,H   4,H   1,H   8)     -1.13 -0.001447    0.24     -0.89   
    60. D(H  10,H   4,H   1,O   0)    170.72 -0.001285    0.03    170.75   
    61. D(H  10,H   4,O   0,H   1)    -10.50 -0.000900   -0.03    -10.53   
    62. D(O   0,H   4,O   3,H   5)     45.61  0.001750   -0.08     45.54   
    63. D(H  10,H   4,H   1,O   6)     -6.04 -0.000734    0.25     -5.79   
    64. D(H   1,H   4,O   3,H   5)    126.23 -0.000828    0.13    126.36   
    65. D(O   3,H   4,H   1,O   0)   -154.33  0.001839   -0.56   -154.89   
    66. D(H  10,H   4,O   3,H   5)    164.65  0.001053   -0.33    164.32   
    67. D(H   1,H   4,O   0,H   2)    119.19  0.000667   -0.60    118.59   
    68. D(H   8,O   6,H   1,H   4)     11.71  0.000235   -0.21     11.51   
    69. D(H   8,O   6,H   1,O   0)     -7.30  0.000327    0.02     -7.28   
    70. D(H   7,O   6,H   1,H   8)   -117.66 -0.000517   -0.02   -117.68   
    71. D(H   7,O   6,H   1,H   4)   -105.95 -0.000282   -0.22   -106.17   
    72. D(H   7,O   6,H   1,O   0)   -124.96 -0.000189   -0.00   -124.96   
    73. D(O   9,H   8,H   1,O   0)     -8.69 -0.000517    0.12     -8.57   
    74. D(O   6,H   8,H   1,H   4)   -169.83  0.000697   -0.15   -169.98   
    75. D(O   6,H   8,H   1,O   0)    178.14 -0.000453   -0.09    178.06   
    76. D(O   9,H   8,O   6,H   1)    -14.32  0.000556    0.02    -14.30   
    77. D(O   9,H   8,O   6,H   7)    115.09  0.001315   -0.13    114.95   
    78. D(H   1,H   8,O   6,H   7)    129.40  0.000759   -0.15    129.25   
    79. D(O   9,H   8,H   1,O   6)    173.16 -0.000064    0.21    173.37   
    80. D(O   9,H   8,H   1,H   4)      3.33  0.000633    0.06      3.39   
    81. D(H  11,O   9,H   8,H   1)    130.23  0.000013    1.03    131.26   
    82. D(H  10,O   9,H   8,H   1)     -6.26  0.000030   -0.27     -6.53   
    83. D(H  10,O   9,H   8,O   6)      5.07 -0.000188   -0.34      4.73   
    84. D(H   8,O   9,O   3,H   5)   -103.14 -0.000655    1.89   -101.25   
    85. D(H   8,O   9,O   3,H   4)     17.43 -0.002051    0.63     18.06   
    86. D(H  11,O   9,H   8,O   6)    141.56 -0.000205    0.96    142.52   
    87. D(H  11,O   9,O   3,H   5)     97.17 -0.000092    1.82     98.99   
    88. D(H  11,O   9,O   3,H   4)   -142.26 -0.001488    0.55   -141.70   
    89. D(H   4,H  10,O   9,H   8)     11.29 -0.000611    0.16     11.45   
    90. D(H   4,H  10,O   9,H  11)   -147.58 -0.000631    0.07   -147.51   
    91. D(O   3,H  10,H   4,H   1)    164.68  0.002870   -0.57    164.11   
    92. D(O   3,H  10,H   4,O   0)    169.20  0.002210   -0.35    168.84   
    93. D(O   9,H  10,H   4,H   1)     -8.78  0.001203   -0.04     -8.82   
    94. D(O   9,H  10,H   4,O   0)     -4.26  0.000543    0.18     -4.09   
    95. D(O   9,H  10,H   4,O   3)   -173.46 -0.001667    0.53   -172.93   
    96. D(H   4,H  10,O   3,H   5)   -121.16 -0.000315    0.16   -121.00   
    ----------------------------------------------------------------------------

         *************************************************************
         *                GEOMETRY OPTIMIZATION CYCLE   2            *
         *************************************************************
---------------------------------
CARTESIAN COORDINATES (ANGSTROEM)
---------------------------------
  O     -0.196237    0.780928   -1.657522
  H      0.246804   -0.086011   -1.478557
  H     -0.824672    0.594545   -2.376752
  O     -0.597939    1.724178    0.854826
  H     -0.548347    1.307607   -0.039329
  H     -0.499573    2.675595    0.692753
  O      0.918903   -1.628775   -0.924040
  H      1.877224   -1.801010   -0.909909
  H      0.645571   -1.689137    0.016915
  O     -0.092129   -0.889935    1.770830
  H     -0.307331    0.016125    1.451540
  H     -0.638831   -0.995702    2.566427

----------------------------
CARTESIAN COORDINATES (A.U.)
----------------------------
  NO LB      ZA    FRAG    MASS        X           Y           Z
   0 O     8.0000    0    15.999         -0.370833689256717          1.475740930612653         -3.132262251666545
   1 H     1.0000    0     1.008          0.466391065575164         -0.162537068493257         -2.794066871554007
   2 H     1.0000    0     1.008         -1.558404335203285          1.123526484611629         -4.491411103341137
   3 O     8.0000    0    15.999         -1.129941627803281          3.258223571842917          1.615387647597232
   4 H     1.0000    0     1.008         -1.036224926311841          2.471018434539934         -0.074320531278285
   5 H     1.0000    0     1.008         -0.944056997873958          5.056142217696939          1.309113900673577
   6 O     8.0000    0    15.999          1.736474900285047         -3.077937748986395         -1.746181732246172
   7 H     1.0000    0     1.008          3.547439992168894         -3.403416120219879         -1.719477904011946
   8 H     1.0000    0     1.008          1.219952870563848         -3.192007130683261          0.031964019548046
   9 O     8.0000    0    15.999         -0.174099052506893         -1.681734291341312          3.346384503581079
  10 H     1.0000    0     1.008         -0.580771388861716          0.030471028964680          2.743012762685989
  11 H     1.0000    0     1.008         -1.207215006374597         -1.881603380936770          4.849844307201409

--------------------------------
INTERNAL COORDINATES (ANGSTROEM)
--------------------------------
 O      0   0   0   0.000000     0.000     0.000
 H      1   0   0   0.989898     0.000     0.000
 H      1   2   0   0.973120   104.768     0.000
 O      1   2   3   2.713481   101.730   138.320
 H      4   1   2   0.987676     7.136   282.560
 H      4   1   2   0.970123    99.859   146.987
 O      2   1   3   1.771814   171.465   246.417
 H      7   2   1   0.973779   122.131   235.041
 H      7   2   1   0.981707   104.353   352.718
 O      9   7   2   2.063770   152.910   345.702
 H     10   9   7   0.984481    99.144     4.734
 H     10   9   7   0.971104   148.795   142.514

---------------------------
INTERNAL COORDINATES (A.U.)
---------------------------
 O      0   0   0   0.000000     0.000     0.000
 H      1   0   0   1.870635     0.000     0.000
 H      1   2   0   1.838930   104.768     0.000
 O      1   2   3   5.127735   101.730   138.320
 H      4   1   2   1.866437     7.136   282.560
 H      4   1   2   1.833267    99.859   146.987
 O      2   1   3   3.348244   171.465   246.417
 H      7   2   1   1.840175   122.131   235.041
 H      7   2   1   1.855157   104.353   352.718
 O      9   7   2   3.899960   152.910   345.702
 H     10   9   7   1.860400    99.144     4.734
 H     10   9   7   1.835121   148.795   142.514

smp-n89.crc.pitt.edu.173014hfi_wait_for_device: The /dev/hfi1_0 device failed to appear after 15.0 seconds: Connection timed out
smp-n89.crc.pitt.edu.173016hfi_wait_for_device: The /dev/hfi1_0 device failed to appear after 15.0 seconds: Connection timed out
smp-n89.crc.pitt.edu.173010hfi_wait_for_device: The /dev/hfi1_0 device failed to appear after 15.0 seconds: Connection timed out
smp-n89.crc.pitt.edu.173011hfi_wait_for_device: The /dev/hfi1_0 device failed to appear after 15.0 seconds: Connection timed out
smp-n89.crc.pitt.edu.173020hfi_wait_for_device: The /dev/hfi1_0 device failed to appear after 15.0 seconds: Connection timed out
smp-n89.crc.pitt.edu.173012hfi_wait_for_device: The /dev/hfi1_0 device failed to appear after 15.0 seconds: Connection timed out
smp-n89.crc.pitt.edu.173022hfi_wait_for_device: The /dev/hfi1_0 device failed to appear after 15.0 seconds: Connection timed out
smp-n89.crc.pitt.edu.173018hfi_wait_for_device: The /dev/hfi1_0 device failed to appear after 15.0 seconds: Connection timed out
smp-n89.crc.pitt.edu.173028hfi_wait_for_device: The /dev/hfi1_0 device failed to appear after 15.0 seconds: Connection timed out
smp-n89.crc.pitt.edu.173027hfi_wait_for_device: The /dev/hfi1_0 device failed to appear after 15.0 seconds: Connection timed out
smp-n89.crc.pitt.edu.173024hfi_wait_for_device: The /dev/hfi1_0 device failed to appear after 15.0 seconds: Connection timed out
smp-n89.crc.pitt.edu.173030hfi_wait_for_device: The /dev/hfi1_0 device failed to appear after 15.0 seconds: Connection timed out


           ************************************************************
           *        Program running with 12 parallel MPI-processes    *
           *              working on a common directory               *
           ************************************************************
 One Electron integrals                  ... done
 Pre-screening matrix                    ... done
           ************************************************************
           *              Shut down parallel processing               *
           ************************************************************
smp-n89.crc.pitt.edu.173038hfi_wait_for_device: The /dev/hfi1_0 device failed to appear after 15.0 seconds: Connection timed out
smp-n89.crc.pitt.edu.173042hfi_wait_for_device: The /dev/hfi1_0 device failed to appear after 15.0 seconds: Connection timed out
smp-n89.crc.pitt.edu.173036hfi_wait_for_device: The /dev/hfi1_0 device failed to appear after 15.0 seconds: Connection timed out
smp-n89.crc.pitt.edu.173041hfi_wait_for_device: The /dev/hfi1_0 device failed to appear after 15.0 seconds: Connection timed out
smp-n89.crc.pitt.edu.173053hfi_wait_for_device: The /dev/hfi1_0 device failed to appear after 15.0 seconds: Connection timed out
smp-n89.crc.pitt.edu.173046hfi_wait_for_device: The /dev/hfi1_0 device failed to appear after 15.0 seconds: Connection timed out
smp-n89.crc.pitt.edu.173057hfi_wait_for_device: The /dev/hfi1_0 device failed to appear after 15.0 seconds: Connection timed out
smp-n89.crc.pitt.edu.173048hfi_wait_for_device: The /dev/hfi1_0 device failed to appear after 15.0 seconds: Connection timed out
smp-n89.crc.pitt.edu.173049hfi_wait_for_device: The /dev/hfi1_0 device failed to appear after 15.0 seconds: Connection timed out
smp-n89.crc.pitt.edu.173054hfi_wait_for_device: The /dev/hfi1_0 device failed to appear after 15.0 seconds: Connection timed out
smp-n89.crc.pitt.edu.173037hfi_wait_for_device: The /dev/hfi1_0 device failed to appear after 15.0 seconds: Connection timed out
smp-n89.crc.pitt.edu.173044hfi_wait_for_device: The /dev/hfi1_0 device failed to appear after 15.0 seconds: Connection timed out


           ************************************************************
           *        Program running with 12 parallel MPI-processes    *
           *              working on a common directory               *
           ************************************************************

Diagonalization of the overlap matrix:
Smallest eigenvalue                        ... 2.219e-02
Time for diagonalization                   ...    0.002 sec
Threshold for overlap eigenvalues          ... 1.000e-08
Number of eigenvalues below threshold      ... 0
Time for construction of square roots      ...    0.001 sec
Total time needed                          ...    0.002 sec

-------------------
DFT GRID GENERATION
-------------------

General Integration Accuracy     IntAcc      ...  4.340
Radial Grid Type                 RadialGrid  ... Gauss-Chebyshev
Angular Grid (max. acc.)         AngularGrid ... Lebedev-110
Angular grid pruning method      GridPruning ... 3 (G Style)
Weight generation scheme         WeightScheme... Becke
Basis function cutoff            BFCut       ...    1.0000e-11
Integration weight cutoff        WCut        ...    1.0000e-14
Grids for H and He will be reduced by one unit

# of grid points (after initial pruning)     ...  13216 (   0.0 sec)
# of grid points (after weights+screening)   ...  12636 (   0.0 sec)
nearest neighbour list constructed           ...    0.0 sec
Grid point re-assignment to atoms done       ...    0.0 sec
Grid point division into batches done        ...    0.0 sec
Reduced shell lists constructed in    0.0 sec

Total number of grid points                  ...    12636
Total number of batches                      ...      205
Average number of points per batch           ...       61
Average number of grid points per atom       ...     1053
Average number of shells per batch           ...    36.00 (75.00%)
Average number of basis functions per batch  ...    69.26 (72.15%)
Average number of large shells per batch     ...    26.21 (72.81%)
Average number of large basis fcns per batch ...    46.84 (67.63%)
Maximum spatial batch extension              ...  11.24, 11.94, 11.17 au
Average spatial batch extension              ...   0.24,  0.24,  0.22 au

Time for grid setup =    0.030 sec

--------------
SCF ITERATIONS
--------------
ITER       Energy         Delta-E        Max-DP      RMS-DP      [F,P]     Damp
               ***  Starting incremental Fock matrix formation  ***
  0   -305.4985908933   0.000000000000 0.00545166  0.00026169  0.0102470 0.7000
                      *** Initiating the SOSCF procedure ***
                      *** Re-Reading the Fockian *** 
                      *** Removing any level shift *** 
ITER      Energy       Delta-E        Grad      Rot      Max-DP    RMS-DP
  1   -305.49910173  -0.0005108403  0.001057  0.001057  0.015233  0.000728
               *** Restarting incremental Fock matrix formation ***
  2   -305.50022310  -0.0011213713  0.001056  0.001163  0.003696  0.000171
  3   -305.50020459   0.0000185180  0.001492  0.000880  0.002126  0.000106
  4   -305.50025683  -0.0000522457  0.000172  0.000163  0.000645  0.000023
  5   -305.50025750  -0.0000006655  0.000102  0.000059  0.000253  0.000010
  6   -305.50025788  -0.0000003815  0.000045  0.000050  0.000132  0.000006
  7   -305.50025785   0.0000000269  0.000047  0.000028  0.000069  0.000003
  8   -305.50025792  -0.0000000645  0.000003  0.000004  0.000013  0.000001
  9   -305.50025792   0.0000000017  0.000004  0.000003  0.000008  0.000000
                  ***Gradient check signals convergence***
              ***Rediagonalizing the Fockian in SOSCF/NRSCF***

               *****************************************************
               *                     SUCCESS                       *
               *           SCF CONVERGED AFTER  10 CYCLES          *
               *****************************************************

Setting up the final grid:

General Integration Accuracy     IntAcc      ...  4.670
Radial Grid Type                 RadialGrid  ... Gauss-Chebyshev
Angular Grid (max. acc.)         AngularGrid ... Lebedev-302
Angular grid pruning method      GridPruning ... 3 (G Style)
Weight generation scheme         WeightScheme... Becke
Basis function cutoff            BFCut       ...    1.0000e-11
Integration weight cutoff        WCut        ...    1.0000e-14
Grids for H and He will be reduced by one unit

# of grid points (after initial pruning)     ...  52000 (   0.0 sec)
# of grid points (after weights+screening)   ...  49250 (   0.0 sec)
nearest neighbour list constructed           ...    0.0 sec
Grid point re-assignment to atoms done       ...    0.0 sec
Grid point division into batches done        ...    0.1 sec
Reduced shell lists constructed in    0.1 sec

Total number of grid points                  ...    49250
Total number of batches                      ...      773
Average number of points per batch           ...       63
Average number of grid points per atom       ...     4104
Average number of shells per batch           ...    34.92 (72.76%)
Average number of basis functions per batch  ...    66.26 (69.02%)
Average number of large shells per batch     ...    25.08 (71.80%)
Average number of large basis fcns per batch ...    44.23 (66.75%)
Maximum spatial batch extension              ...  12.26, 11.26, 11.05 au
Average spatial batch extension              ...   0.16,  0.15,  0.14 au

Final grid set up in    0.2 sec
Final integration                            ... done (   0.0 sec)
Change in XC energy                          ...    -0.000148499
Integrated number of electrons               ...    40.000014293
Previous integrated no of electrons          ...    39.998977746
[...]
             **** DENSITY FILE WAS UPDATED (4_BP86_4_h2o_rst.scfp.tmp) ****
             **** ENERGY FILE WAS UPDATED (4_BP86_4_h2o_rst.en.tmp) ****
Total SCF time: 0 days 0 hours 0 min 1 sec 
           ************************************************************
           *              Shut down parallel processing               *
           ************************************************************

Entering the calculation of the dispersion correction...

Checking the input atom types...

Done


-------------------------------------------------------------------------------
                          DFT DISPERSION CORRECTION                            
                                                                               
                                DFTD3 V2.1  Rev 6                               
                          USING Becke-Johnson damping                          
-------------------------------------------------------------------------------
-------------------------   ----------------
Dispersion correction           -0.007332420
-------------------------   ----------------


-------------------------   --------------------
FINAL SINGLE POINT ENERGY      -305.524754552152
-------------------------   --------------------

smp-n89.crc.pitt.edu.177948hfi_wait_for_device: The /dev/hfi1_0 device failed to appear after 15.0 seconds: Connection timed out
smp-n89.crc.pitt.edu.177952hfi_wait_for_device: The /dev/hfi1_0 device failed to appear after 15.0 seconds: Connection timed out
smp-n89.crc.pitt.edu.177950hfi_wait_for_device: The /dev/hfi1_0 device failed to appear after 15.0 seconds: Connection timed out
smp-n89.crc.pitt.edu.177951hfi_wait_for_device: The /dev/hfi1_0 device failed to appear after 15.0 seconds: Connection timed out
smp-n89.crc.pitt.edu.177949hfi_wait_for_device: The /dev/hfi1_0 device failed to appear after 15.0 seconds: Connection timed out
smp-n89.crc.pitt.edu.177954hfi_wait_for_device: The /dev/hfi1_0 device failed to appear after 15.0 seconds: Connection timed out
smp-n89.crc.pitt.edu.177953hfi_wait_for_device: The /dev/hfi1_0 device failed to appear after 15.0 seconds: Connection timed out
smp-n89.crc.pitt.edu.177957hfi_wait_for_device: The /dev/hfi1_0 device failed to appear after 15.0 seconds: Connection timed out
smp-n89.crc.pitt.edu.177958hfi_wait_for_device: The /dev/hfi1_0 device failed to appear after 15.0 seconds: Connection timed out
smp-n89.crc.pitt.edu.177955hfi_wait_for_device: The /dev/hfi1_0 device failed to appear after 15.0 seconds: Connection timed out
smp-n89.crc.pitt.edu.177956hfi_wait_for_device: The /dev/hfi1_0 device failed to appear after 15.0 seconds: Connection timed out
smp-n89.crc.pitt.edu.177964hfi_wait_for_device: The /dev/hfi1_0 device failed to appear after 15.0 seconds: Connection timed out


           ************************************************************
           *        Program running with 12 parallel MPI-processes    *
           *              working on a common directory               *
           ************************************************************
------------------------------------------------------------------------------
                         ORCA SCF GRADIENT CALCULATION
------------------------------------------------------------------------------

Gradient of the Kohn-Sham DFT energy:
Kohn-Sham wavefunction type      ... RKS
Hartree-Fock exchange scaling    ...    0.000
Number of operators              ...    1
Number of atoms                  ...   12
Basis set dimensions             ...   96
Integral neglect threshold       ... 2.5e-11
Integral primitive cutoff        ... 2.5e-12

Nuclear repulsion gradient       ... done
One Electron Gradient            ... done
Pre-screening matrix             ... done
RI-J gradient                    ... done
Exchange-correlation gradient    ... done
Dispersion correction            ... 
Entering the calculation of the dispersion correction...

Checking the input atom types...

Done
done

------------------
CARTESIAN GRADIENT
------------------

   1   O   :   -0.000246352    0.001670565   -0.001539936
   2   H   :    0.000536793   -0.000210931    0.001104483
   3   H   :   -0.000086007    0.000440512    0.000026879
   4   O   :   -0.000285835    0.002602340   -0.001157213
   5   H   :   -0.000141616   -0.004075548    0.001390528
   6   H   :    0.000380726   -0.000287954    0.000203737
   7   O   :   -0.000368620   -0.000819474   -0.000608506
   8   H   :    0.000079844    0.000373416   -0.000042004
   9   H   :    0.000389482    0.000510560    0.000441895
  10   O   :   -0.000295211   -0.000535389   -0.000142818
  11   H   :   -0.000127236    0.000143558   -0.000027518
  12   H   :    0.000164032    0.000188345    0.000350474

Norm of the cartesian gradient     ...    0.006045953
RMS gradient                       ...    0.001007659
MAX gradient                       ...    0.004075548

-------
TIMINGS
-------

Total SCF gradient time            ...        0.486 sec

One electron gradient       ....       0.003 sec  (  0.7%)
Prescreening matrices       ....       0.009 sec  (  1.9%)
RI-J Coulomb gradient       ....       0.093 sec  ( 19.1%)
XC gradient                 ....       0.134 sec  ( 27.7%)
           ************************************************************
           *              Shut down parallel processing               *
           ************************************************************
------------------------------------------------------------------------------
                         ORCA GEOMETRY RELAXATION STEP
------------------------------------------------------------------------------

Reading the OPT-File                    .... done
Getting information on internals        .... done
Copying old internal coords+grads       .... done
Making the new internal coordinates     .... (new redundants).... done
Validating the new internal coordinates .... (new redundants).... done
Calculating the B-matrix                .... done
Calculating the G,G- and P matrices     .... done
Transforming gradient to internals      .... done
Projecting the internal gradient        .... done
Number of atoms                         ....  12
Number of internal coordinates          ....  96
Current Energy                          ....  -305.524754552 Eh
Current gradient norm                   ....     0.006045953 Eh/bohr
Maximum allowed component of the step   ....  0.300
Current trust radius                    ....  0.300
Resetting Hessian after 50 BFGS Update Steps....
Build internal Hessian                  .... (Almloef) done
Updating Hessian with the last 5 steps  .... done
Forming the augmented Hessian           .... done
Diagonalizing the augmented Hessian     .... done
Last element of RFO vector              ....  0.997656465
Lowest eigenvalues of augmented Hessian:
 -0.000016103  0.000855471  0.003010143  0.012088542  0.025023312
Length of the computed step             ....  0.068582781
The final length of the internal step   ....  0.068582781
Converting the step to cartesian space:
 Initial RMS(Int)=    0.0069997008
Transforming coordinates:
 Iter   0:  RMS(Cart)=    0.0064171064 RMS(Int)=    0.0068568493
 Iter   1:  RMS(Cart)=    0.0000436800 RMS(Int)=    0.0001598233
 Iter   2:  RMS(Cart)=    0.0000013268 RMS(Int)=    0.0000063509
 Iter   3:  RMS(Cart)=    0.0000000504 RMS(Int)=    0.0000002369
done
Storing new coordinates                 .... done

                                .--------------------.
          ----------------------|Geometry convergence|---------------------
          Item                value                 Tolerance   Converged
          -----------------------------------------------------------------
          Energy change      -0.00000864            0.00000500      NO
          RMS gradient        0.00014616            0.00010000      NO
          MAX gradient        0.00064512            0.00030000      NO
          RMS step            0.00699970            0.00200000      NO
          MAX step            0.03302064            0.00400000      NO
          ....................................................
          Max(Bonds)      0.0054      Max(Angles)    0.27
          Max(Dihed)        1.89      Max(Improp)    0.00
          -----------------------------------------------------------------

The optimization has not yet converged - more geometry cycles are needed


    ---------------------------------------------------------------------------
                         Redundant Internal Coordinates
                            (Angstroem and degrees)

        Definition                    Value    dE/dq     Step     New-Value
    ----------------------------------------------------------------------------
     1. B(H   1,O   0)                1.0180  0.000645  0.0000    1.0180   
     2. B(H   2,O   0)                0.9754 -0.000060 -0.0000    0.9754   
     3. B(H   4,H   1)                2.0259  0.000017  0.0011    2.0270   
     4. B(H   4,O   0)                1.6396  0.000135 -0.0001    1.6395   
     5. B(H   4,O   3)                1.0158 -0.000150 -0.0002    1.0156   
     6. B(H   5,O   3)                0.9760  0.000095  0.0000    0.9760   
     7. B(O   6,H   1)                1.6355 -0.000021 -0.0021    1.6334   
     8. B(H   7,O   6)                0.9758  0.000057 -0.0000    0.9757   
     9. B(H   8,O   6)                1.0175  0.000375  0.0003    1.0178   
    10. B(H   8,H   1)                2.0685  0.000085 -0.0054    2.0631   
    11. B(O   9,H   8)                1.6374 -0.000027 -0.0017    1.6357   
    12. B(H  10,H   4)                2.0270  0.000151 -0.0002    2.0268   
    13. B(H  10,O   9)                1.0175  0.000176  0.0001    1.0176   
    14. B(H  10,O   3)                1.6384 -0.000103 -0.0005    1.6379   
    15. B(H  11,O   9)                0.9752 -0.000080 -0.0001    0.9751   
    16. A(H   2,O   0,H   4)          108.62 -0.000041    0.08    108.70   
    17. A(H   1,O   0,H   2)          103.45  0.000249    0.02    103.46   
    18. A(H   1,O   0,H   4)           96.53 -0.000313    0.09     96.62   
    19. A(O   0,H   1,H   8)          141.54  0.000119    0.05    141.59   
    20. A(H   4,H   1,H   8)           88.02  0.000018    0.11     88.13   
    21. A(O   0,H   1,O   6)          170.12  0.000228    0.17    170.29   
    22. A(O   6,H   1,H   8)           28.99  0.000105    0.12     29.11   
    23. A(O   0,H   1,H   4)           53.52  0.000101   -0.06     53.46   
    24. A(H   4,H   1,O   6)          116.86  0.000123    0.24    117.10   
    25. A(H   4,O   3,H   5)          102.25 -0.000052    0.04    102.28   
    26. A(H   5,O   3,H  10)          106.36 -0.000225   -0.22    106.15   
    27. A(H   4,O   3,H  10)           96.77  0.000214    0.02     96.79   
    28. A(H   1,H   4,H  10)           92.87 -0.000071   -0.20     92.67   
    29. A(O   0,H   4,O   3)          170.73 -0.000029   -0.17    170.56   
    30. A(O   0,H   4,H  10)          122.62  0.000139   -0.20    122.42   
    31. A(O   3,H   4,H  10)           53.38 -0.000132   -0.02     53.37   
    32. A(O   0,H   4,H   1)           29.95  0.000211   -0.02     29.93   
    33. A(H   1,H   4,O   3)          145.73 -0.000204   -0.24    145.49   
    34. A(H   1,O   6,H   8)           99.83 -0.000088   -0.27     99.56   
    35. A(H   7,O   6,H   8)          103.15  0.000035    0.07    103.23   
    36. A(H   1,O   6,H   7)          108.02 -0.000212   -0.20    107.82   
    37. A(H   1,H   8,O   9)          119.45  0.000105    0.11    119.56   
    38. A(O   6,H   8,O   9)          170.42  0.000092    0.27    170.69   
    39. A(H   1,H   8,O   6)           51.17 -0.000017    0.15     51.33   
    40. A(H   8,O   9,H  11)          110.63  0.000247   -0.12    110.51   
    41. A(H   8,O   9,H  10)           99.60 -0.000190   -0.06     99.54   
    42. A(H  10,O   9,H  11)          103.48  0.000091    0.07    103.56   
    43. A(O   3,H  10,H   4)           29.84 -0.000082   -0.00     29.84   
    44. A(H   4,H  10,O   9)          139.37  0.000149    0.08    139.44   
    45. D(O   6,H   1,O   0,H   2)    -96.96  0.000125    0.01    -96.96   
    46. D(O   6,H   1,O   0,H   4)     14.00  0.000042    0.13     14.13   
    47. D(H   4,H   1,O   0,H   2)   -110.97  0.000083   -0.12   -111.08   
    48. D(H   8,H   1,O   0,H   4)     -0.62 -0.000079    0.14     -0.48   
    49. D(H   8,H   1,O   0,H   2)   -111.58  0.000004    0.02   -111.56   
    50. D(O   3,H   4,O   0,H   2)    175.65  0.000255   -1.82    173.83   
    51. D(O   3,H   4,H   1,O   6)     18.16 -0.000072    0.11     18.27   
    52. D(O   0,H   4,H   1,O   6)   -177.33 -0.000050   -0.01   -177.34   
    53. D(O   0,H   4,O   3,H  10)    -67.44 -0.000163    1.52    -65.91   
    54. D(O   3,H   4,H   1,H   8)     15.11 -0.000070    0.21     15.32   
    55. D(H  10,H   4,O   0,H   2)    114.00  0.000146   -0.24    113.76   
    56. D(O   3,H   4,O   0,H   1)     69.06  0.000116   -1.89     67.16   
    57. D(H   1,H   4,O   3,H  10)    -11.54  0.000002   -0.47    -12.00   
    58. D(O   0,H   4,H   1,H   8)    179.61 -0.000048    0.09    179.70   
    59. D(H  10,H   4,H   1,H   8)      5.86 -0.000052   -0.17      5.69   
    60. D(H  10,H   4,H   1,O   0)   -173.76 -0.000004   -0.25   -174.01   
    61. D(H  10,H   4,O   0,H   1)      7.41  0.000007   -0.32      7.09   
    62. D(O   0,H   4,O   3,H   5)     40.99 -0.000350    1.31     42.30   
    63. D(H  10,H   4,H   1,O   6)      8.91 -0.000054   -0.26      8.65   
    64. D(H   1,H   4,O   3,H   5)     96.89 -0.000185   -0.68     96.21   
    65. D(O   3,H   4,H   1,O   0)   -164.51 -0.000022    0.12   -164.38   
    66. D(H  10,H   4,O   3,H   5)    108.43 -0.000187   -0.21    108.21   
    67. D(H   1,H   4,O   0,H   2)    106.59  0.000139    0.07    106.66   
    68. D(H   8,O   6,H   1,H   4)     -6.30  0.000025    0.22     -6.08   
    69. D(H   8,O   6,H   1,O   0)    -18.90 -0.000043    0.10    -18.80   
    70. D(H   7,O   6,H   1,H   8)   -107.41  0.000057    0.09   -107.33   
    71. D(H   7,O   6,H   1,H   4)   -113.72  0.000082    0.31   -113.41   
    72. D(H   7,O   6,H   1,O   0)   -126.31  0.000014    0.18   -126.13   
    73. D(O   9,H   8,H   1,O   0)     -7.50  0.000126    0.19     -7.31   
    74. D(O   6,H   8,H   1,H   4)    174.37  0.000029    0.21    174.58   
    75. D(O   6,H   8,H   1,O   0)    174.87  0.000093    0.10    174.97   
    76. D(O   9,H   8,O   6,H   1)    -12.53  0.000071    0.16    -12.37   
    77. D(O   9,H   8,O   6,H   7)     98.75 -0.000174   -0.12     98.64   
    78. D(H   1,H   8,O   6,H   7)    111.28 -0.000244   -0.28    111.00   
    79. D(O   9,H   8,H   1,O   6)    177.63  0.000033    0.09    177.72   
    80. D(O   9,H   8,H   1,H   4)     -8.00  0.000062    0.30     -7.70   
    81. D(H  11,O   9,H   8,H   1)    113.10  0.000034   -0.29    112.82   
    82. D(H  10,O   9,H   8,H   1)      4.66 -0.000057   -0.30      4.36   
    83. D(H  10,O   9,H   8,O   6)     15.85 -0.000110   -0.41     15.45   
    84. D(H   8,O   9,O   3,H   5)   -102.38  0.000078    0.41   -101.97   
    85. D(H   8,O   9,O   3,H   4)      1.37  0.000072    0.43      1.80   
    86. D(H  11,O   9,H   8,O   6)    124.29 -0.000020   -0.39    123.90   
    87. D(H  11,O   9,O   3,H   5)    145.27 -0.000155    0.52    145.79   
    88. D(H  11,O   9,O   3,H   4)   -110.98 -0.000161    0.55   -110.43   
    89. D(H   4,H  10,O   9,H   8)      2.57  0.000021    0.17      2.74   
    90. D(H   4,H  10,O   9,H  11)   -111.51 -0.000205    0.30   -111.21   
    91. D(O   3,H  10,H   4,H   1)    173.53 -0.000033   -0.27    173.25   
    92. D(O   3,H  10,H   4,O   0)    169.83 -0.000060   -0.11    169.72   
    93. D(O   9,H  10,H   4,H   1)     -7.87  0.000026    0.04     -7.83   
    94. D(O   9,H  10,H   4,O   0)    -11.57 -0.000001    0.20    -11.37   
    95. D(O   9,H  10,H   4,O   3)    178.60  0.000059    0.32    178.91   
    96. D(H   4,H  10,O   3,H   5)   -104.92  0.000029   -0.01   -104.93   
    ----------------------------------------------------------------------------



WARNING!!!!!!!
The optimization did not converge but reached the maximum number of
 optimization cycles.
Nevertheless we allow to calculate frequencies and other properties at this point.



                            ***************************************
                            *     ORCA property calculations      *
                            ***************************************

                                    ---------------------
                                    Active property flags
                                    ---------------------
   (+) Dipole Moment


------------------------------------------------------------------------------
                       ORCA ELECTRIC PROPERTIES CALCULATION
------------------------------------------------------------------------------

Dipole Moment Calculation                       ... on
Quadrupole Moment Calculation                   ... off
Polarizability Calculation                      ... off
GBWName                                         ... 4_BP86_4_h2o_rst.gbw
Electron density file                           ... 4_BP86_4_h2o_rst.scfp.tmp

-------------
DIPOLE MOMENT
-------------
                                X             Y             Z
Electronic contribution:     -0.01768       0.01828       0.00335
Nuclear contribution   :      0.05623      -0.10963      -0.02439
                        -----------------------------------------
Total Dipole Moment    :      0.03855      -0.09135      -0.02104
                        -----------------------------------------
Magnitude (a.u.)       :      0.10136
Magnitude (Debye)      :      0.25764

smp-n89.crc.pitt.edu.177977hfi_wait_for_device: The /dev/hfi1_0 device failed to appear after 15.0 seconds: Connection timed out
smp-n89.crc.pitt.edu.177975hfi_wait_for_device: The /dev/hfi1_0 device failed to appear after 15.0 seconds: Connection timed out
smp-n89.crc.pitt.edu.177976hfi_wait_for_device: The /dev/hfi1_0 device failed to appear after 15.0 seconds: Connection timed out
smp-n89.crc.pitt.edu.177978hfi_wait_for_device: The /dev/hfi1_0 device failed to appear after 15.0 seconds: Connection timed out
smp-n89.crc.pitt.edu.177983hfi_wait_for_device: The /dev/hfi1_0 device failed to appear after 15.0 seconds: Connection timed out
smp-n89.crc.pitt.edu.177979hfi_wait_for_device: The /dev/hfi1_0 device failed to appear after 15.0 seconds: Connection timed out
smp-n89.crc.pitt.edu.177981hfi_wait_for_device: The /dev/hfi1_0 device failed to appear after 15.0 seconds: Connection timed out
smp-n89.crc.pitt.edu.177980hfi_wait_for_device: The /dev/hfi1_0 device failed to appear after 15.0 seconds: Connection timed out
smp-n89.crc.pitt.edu.177982hfi_wait_for_device: The /dev/hfi1_0 device failed to appear after 15.0 seconds: Connection timed out
smp-n89.crc.pitt.edu.177984hfi_wait_for_device: The /dev/hfi1_0 device failed to appear after 15.0 seconds: Connection timed out
smp-n89.crc.pitt.edu.177986hfi_wait_for_device: The /dev/hfi1_0 device failed to appear after 15.0 seconds: Connection timed out
smp-n89.crc.pitt.edu.177988hfi_wait_for_device: The /dev/hfi1_0 device failed to appear after 15.0 seconds: Connection timed out

Timings for individual modules:

Sum of individual times         ...     2534.165 sec (=  42.236 min)
GTO integral calculation        ...      794.144 sec (=  13.236 min)  31.3 %
SCF iterations                  ...      921.879 sec (=  15.365 min)  36.4 %
SCF Gradient evaluation         ...      815.621 sec (=  13.594 min)  32.2 %
Geometry relaxation             ...        2.521 sec (=   0.042 min)   0.1 %
                             ****ORCA TERMINATED NORMALLY****
TOTAL RUN TIME: 0 days 0 hours 42 minutes 33 seconds 242 msec
cp: cannot stat ‘/scratch/slurm-1319756/*.{prop}’: No such file or directory
