
                                 *****************
                                 * O   R   C   A *
                                 *****************

           --- An Ab Initio, DFT and Semiempirical electronic structure package ---

                  #######################################################
                  #                        -***-                        #
                  #  Department of molecular theory and spectroscopy    #
                  #              Directorship: Frank Neese              #
                  # Max Planck Institute for Chemical Energy Conversion #
                  #                  D-45470 Muelheim/Ruhr              #
                  #                       Germany                       #
                  #                                                     #
                  #                  All rights reserved                #
                  #                        -***-                        #
                  #######################################################


                         Program Version 3.0.3 - RELEASE   -


 With contributions from (in alphabetic order):
   Ute Becker             : Parallelization
   Dmytro Bykov           : SCF Hessian
   Dmitry Ganyushin       : Spin-Orbit,Spin-Spin,Magnetic field MRCI
   Andreas Hansen         : Spin unrestricted coupled pair/coupled cluster methods
   Dimitrios Liakos       : Extrapolation schemes; parallel MDCI
   Robert Izsak           : Overlap fitted RIJCOSX, COSX-SCS-MP3
   Christian Kollmar      : KDIIS, OOCD, Brueckner-CCSD(T), CCSD density
   Simone Kossmann        : Meta GGA functionals, TD-DFT gradient, OOMP2, MP2 Hessian
   Taras Petrenko         : DFT Hessian,TD-DFT gradient, ASA and ECA modules, normal mode analysis, Resonance Raman, ABS, FL, XAS/XES, NRVS
   Christoph Reimann      : Effective Core Potentials
   Michael Roemelt        : Restricted open shell CIS
   Christoph Riplinger    : Improved optimizer, TS searches, QM/MM, DLPNO-CCSD
   Barbara Sandhoefer     : DKH picture change effects
   Igor Schapiro          : Molecular dynamics
   Kantharuban Sivalingam : CASSCF convergence, NEVPT2
   Boris Wezisla          : Elementary symmetry handling
   Frank Wennmohs         : Technical directorship


 We gratefully acknowledge several colleagues who have allowed us to
 interface, adapt or use parts of their codes:
   Stefan Grimme, W. Hujo, H. Kruse, T. Risthaus : VdW corrections, initial TS optimization,
                                                   DFT functionals, gCP
   Ed Valeev                                     : LibInt (2-el integral package), F12 methods
   Garnet Chan, S. Sharma, R. Olivares           : DMRG
   Ulf Ekstrom                                   : XCFun DFT Library
   Mihaly Kallay                                 : mrcc  (arbitrary order and MRCC methods)
   Andreas Klamt, Michael Diedenhofen            : otool_cosmo (COSMO solvation model)
   Frank Weinhold                                : gennbo (NPA and NBO analysis)
   Christopher J. Cramer and Donald G. Truhlar   : smd solvation model


 Your calculation uses the libint2 library for the computation of 2-el integrals
 For citations please refer to: http://libint.valeyev.net

 This ORCA versions uses:
   CBLAS   interface :  Fast vector & matrix operations
   LAPACKE interface :  Fast linear algebra routines
   SCALAPACK package :  Parallel linear algebra routines


Your calculation utilizes the basis: Ahlrichs-VDZ
Cite in your paper:
H - Kr: A. Schaefer, H. Horn and R. Ahlrichs, J. Chem. Phys. 97, 2571 (1992).

Your calculation utilizes the basis: Ahlrichs SVPalls1+f
Cite in your paper:
Rb - Xe: A. Schaefer, C. Huber and R. Ahlrichs, J. Chem. Phys. 100, 5829 (1994).

Your calculation utilizes the atom-pairwise dispersion correction
with the Becke-Johnson damping scheme (D3BJ)
Cite in your paper:
S.Grimme, S.Ehrlich, L.Goerigk, J Comput Chem, (2011), 32, 1456–1465 
S.Grimme, J.Antony, S.Ehrlich and H.Krieg, J.Chem.Phys., 132, (2010), 154104 
   

================================================================================
                                        WARNINGS
                       Please study these warnings very carefully!
================================================================================

WARNING: The RI method has been chosen with no auxiliary basis (AUX or GTOAUX in BASIS block)
        Standard SV/J expansion basis used (GTOAUX=VDZ_J)

Now building the actual basis set

WARNING: Geometry Optimization
  ===> : Switching off AutoStart
         For restart on a previous wavefunction, please use MOREAD


INFO   : the flag for use of LIBINT has been found!

================================================================================
                                       INPUT FILE
================================================================================
NAME = 4_BP86_20_h2o.inp
|  1> ! BP86 Def2-SVP TightSCF Opt D3BJ
|  2> 
|  3> %pal nprocs 12 end
|  4> 
|  5> %scf
|  6>         maxiter 800
|  7> end
|  8> 
|  9> * xyz  0  1
| 10> O  2.24377861	-2.44668970	2.04246760
| 11> H  1.66375894	-2.75179032	1.34481249
| 12> H  1.66235863	-2.00699334	2.66283021
| 13> O  2.48648749	0.81212183	-0.24533351
| 14> H  2.16918508	1.55569290	0.26716341
| 15> H  3.10968913	0.37115329	0.33207303
| 16> O  1.20505044	-2.67651317	-2.72860238
| 17> H  1.52856083	-1.77764265	-2.78864132
| 18> H  1.75883234	-3.17170141	-3.33221323
| 19> O  1.18131283	2.68744275	1.34691696
| 20> H  1.70480204	2.29125050	2.04349617
| 21> H  0.30463416	2.76909233	1.72241625
| 22> O  2.51655808	1.16120335	3.15576894
| 23> H  3.20263395	0.65393962	2.72193112
| 24> H  1.89829280	0.50422473	3.47570484
| 25> O  -3.68471012	0.99873401	-1.05653324
| 26> H  -4.41671080	1.08474034	-1.66727850
| 27> H  -2.96350187	0.66720566	-1.59149068
| 28> O  2.13006631	-0.13804528	-2.81800934
| 29> H  2.43162973	0.20798723	-1.97803740
| 30> H  1.56238005	0.54751594	-3.17010302
| 31> O  -1.31797631	0.02967423	2.18486116
| 32> H  -1.42542859	0.97249589	2.31045250
| 33> H  -0.83197814	-0.04923921	1.36400167
| 34> O  -3.29894542	-1.14042050	0.66662022
| 35> H  -2.72162489	-0.75382099	1.32500740
| 36> H  -3.55664564	-0.40443028	0.11151587
| 37> O  -1.39845263	2.76862997	2.31283948
| 38> H  -1.75449292	3.39272607	2.94527226
| 39> H  -1.84363725	2.97851515	1.49187011
| 40> O  0.15046795	3.47055546	-1.12881757
| 41> H  0.60057446	3.23127078	-0.31864548
| 42> H  0.46376606	4.35334657	-1.32568301
| 43> O  0.01797722	-0.32743782	-0.13290818
| 44> H  0.20059260	-1.26667995	-0.10630571
| 45> H  0.88014644	0.08285657	-0.20039587
| 46> O  0.52261982	-2.97460669	-0.07810057
| 47> H  -0.39425578	-3.24103625	-0.14582263
| 48> H  0.84701141	-2.99993257	-0.97830085
| 49> O  -1.54146147	-2.53489404	-3.05623076
| 50> H  -1.82973865	-2.89324764	-2.21676021
| 51> H  -0.59123389	-2.65016510	-3.05276981
| 52> O  -1.53024462	0.06350780	-2.34380722
| 53> H  -1.60179318	-0.81209570	-2.72384821
| 54> H  -0.96210786	-0.05119909	-1.58203639
| 55> O  4.05663041	-0.51632111	1.57302769
| 56> H  4.94002052	-0.88488019	1.57726688
| 57> H  3.48261442	-1.26714046	1.72471089
| 58> O  0.30113149	1.81195961	-3.36462738
| 59> H  -0.42456166	1.21721827	-3.17519656
| 60> H  0.30588627	2.42621888	-2.63053284
| 61> O  0.70717887	-0.87128350	3.73019746
| 62> H  0.35332317	-1.15412313	4.57341732
| 63> H  -0.05714450	-0.57337638	3.23695007
| 64> O  -2.43130953	3.26469502	-0.09835404
| 65> H  -1.63140972	3.32501291	-0.62061250
| 66> H  -2.90073139	2.51494374	-0.46406973
| 67> O  -2.18042507	-3.32613260	-0.47683194
| 68> H  -2.60055331	-2.56402912	-0.07818123
| 69> H  -2.77299661	-4.05350441	-0.28703976
| 70> **                         ****END OF INPUT****
================================================================================

                       *****************************
                       * Geometry Optimization Run *
                       *****************************

Geometry optimization settings:
Update method            Update   .... BFGS
Choice of coordinates    CoordSys .... Redundant Internals
Initial Hessian          InHess   .... Almoef's Model

Convergence Tolerances:
Energy Change            TolE     ....  5.0000e-06 Eh
Max. Gradient            TolMAXG  ....  3.0000e-04 Eh/bohr
RMS Gradient             TolRMSG  ....  1.0000e-04 Eh/bohr
Max. Displacement        TolMAXD  ....  4.0000e-03 bohr
RMS Displacement         TolRMSD  ....  2.0000e-03 bohr

------------------------------------------------------------------------------
                        ORCA OPTIMIZATION COORDINATE SETUP
------------------------------------------------------------------------------

The optimization will be done in new redundant internal coordinates
Making redundant internal coordinates   ...  (new redundants) done
Evaluating the initial hessian          ...  (Almloef) done
Evaluating the coordinates              ...  done
Calculating the B-matrix                .... done
Calculating the G-matrix                .... done
Diagonalizing the G-matrix              .... done
The first mode is                       ....  998
The number of degrees of freedom        ....  174

    -----------------------------------------------------------------
                    Redundant Internal Coordinates


    -----------------------------------------------------------------
         Definition                    Initial Value    Approx d2E/dq
    -----------------------------------------------------------------
      1. B(H   1,O   0)                  0.9572         0.525332   
      2. B(H   2,O   0)                  0.9572         0.525332   
      3. B(H   4,O   3)                  0.9572         0.525332   
      4. B(H   5,O   3)                  0.9572         0.525332   
      5. B(H   7,O   6)                  0.9572         0.525332   
      6. B(H   8,O   6)                  0.9572         0.525332   
      7. B(O   9,H   4)                  1.8500         0.019769   
      8. B(H  10,H   4)                  1.9779         0.002642   
      9. B(H  10,O   9)                  0.9572         0.525332   
     10. B(H  11,O   9)                  0.9572         0.525332   
     11. B(O  12,H  10)                  1.7813         0.025445   
     12. B(H  13,O  12)                  0.9572         0.525332   
     13. B(H  14,O  12)                  0.9572         0.525332   
     14. B(H  14,H  10)                  2.2983         0.000814   
     15. B(H  16,O  15)                  0.9572         0.525332   
     16. B(H  17,O  15)                  0.9572         0.525332   
     17. B(O  18,H   7)                  1.7467         0.028896   
     18. B(H  19,O  18)                  0.9572         0.525332   
     19. B(H  19,O   3)                  1.8358         0.020828   
     20. B(H  20,O  18)                  0.9572         0.525332   
     21. B(H  22,O  21)                  0.9572         0.525332   
     22. B(H  23,O  21)                  0.9572         0.525332   
     23. B(H  25,O  24)                  0.9572         0.525332   
     24. B(H  25,O  21)                  1.8230         0.021830   
     25. B(H  25,H  23)                  2.0171         0.002287   
     26. B(H  26,O  15)                  1.8302         0.021263   
     27. B(H  26,H  17)                  2.0977         0.001701   
     28. B(H  26,O  24)                  0.9572         0.525332   
     29. B(O  27,H  11)                  1.8025         0.023538   
     30. B(O  27,H  22)                  1.7963         0.024079   
     31. B(H  28,O  27)                  0.9572         0.525332   
     32. B(H  29,H  11)                  2.1707         0.001301   
     33. B(H  29,O  27)                  0.9572         0.525332   
     34. B(H  29,H  22)                  2.2066         0.001140   
     35. B(H  31,O  30)                  0.9572         0.525332   
     36. B(H  31,H   4)                  2.3688         0.000628   
     37. B(H  31,H  11)                  2.1136         0.001605   
     38. B(H  31,O   9)                  1.8458         0.020076   
     39. B(H  32,O  30)                  0.9572         0.525332   
     40. B(O  33,H  23)                  1.7437         0.029214   
     41. B(H  34,O  33)                  0.9572         0.525332   
     42. B(H  34,H  23)                  2.1703         0.001303   
     43. B(H  35,H   4)                  2.0123         0.002328   
     44. B(H  35,O   3)                  1.7647         0.027047   
     45. B(H  35,O  33)                  0.9572         0.525332   
     46. B(O  36,H  34)                  1.7382         0.029807   
     47. B(O  36,H   1)                  1.8375         0.020698   
     48. B(H  37,O  36)                  0.9572         0.525332   
     49. B(H  37,H  34)                  2.0624         0.001937   
     50. B(H  38,O  36)                  0.9572         0.525332   
     51. B(H  38,H  34)                  2.0451         0.002064   
     52. B(H  38,O   6)                  1.8156         0.022436   
     53. B(H  40,O  39)                  0.9572         0.525332   
     54. B(H  41,O  39)                  0.9572         0.525332   
     55. B(H  41,O   6)                  1.8255         0.021634   
     56. B(O  42,H  17)                  1.7276         0.030994   
     57. B(H  43,H  40)                  2.1541         0.001383   
     58. B(H  43,O  39)                  1.7556         0.027966   
     59. B(H  43,O  42)                  0.9572         0.525332   
     60. B(H  43,H  41)                  2.1232         0.001549   
     61. B(H  44,H  17)                  2.1264         0.001531   
     62. B(H  44,O  42)                  0.9572         0.525332   
     63. B(H  44,H  34)                  2.2376         0.001017   
     64. B(H  44,O  33)                  1.7711         0.026417   
     65. B(O  45,H   5)                  1.7956         0.024142   
     66. B(O  45,H  13)                  1.8490         0.019844   
     67. B(H  46,O  45)                  0.9572         0.525332   
     68. B(H  47,H   5)                  2.1823         0.001247   
     69. B(H  47,H  13)                  2.1825         0.001246   
     70. B(H  47,H   2)                  2.1773         0.001270   
     71. B(H  47,O   0)                  1.7398         0.029634   
     72. B(H  47,O  45)                  0.9572         0.525332   
     73. B(O  48,H  20)                  1.7965         0.024065   
     74. B(H  49,H  20)                  2.0968         0.001707   
     75. B(H  49,H  44)                  2.1062         0.001649   
     76. B(H  49,O  42)                  1.8013         0.023642   
     77. B(H  49,O  48)                  0.9572         0.525332   
     78. B(H  50,H  32)                  2.3327         0.000718   
     79. B(H  50,O  30)                  1.8357         0.020834   
     80. B(H  50,H  20)                  2.3237         0.000742   
     81. B(H  50,O  48)                  0.9572         0.525332   
     82. B(O  51,H   2)                  1.8280         0.021438   
     83. B(O  51,H  14)                  1.8373         0.020718   
     84. B(H  52,O  51)                  0.9572         0.525332   
     85. B(H  53,H  23)                  2.0936         0.001727   
     86. B(H  53,H  22)                  2.2628         0.000928   
     87. B(H  53,O  21)                  1.7494         0.028615   
     88. B(H  53,H  14)                  2.2454         0.000989   
     89. B(H  53,O  51)                  0.9572         0.525332   
     90. B(O  54,H  29)                  1.7193         0.031953   
     91. B(H  55,H  31)                  2.2543         0.000957   
     92. B(H  55,O  30)                  1.8586         0.019153   
     93. B(H  55,O  54)                  0.9572         0.525332   
     94. B(H  55,H  29)                  2.1512         0.001398   
     95. B(H  56,O  54)                  0.9572         0.525332   
     96. B(H  56,H  17)                  2.1654         0.001326   
     97. B(H  56,O  15)                  1.8068         0.023171   
     98. B(O  57,H  40)                  1.8269         0.021519   
     99. B(O  57,H  37)                  1.8186         0.022191   
    100. B(H  58,O  24)                  1.7519         0.028350   
    101. B(H  58,H  40)                  2.2970         0.000818   
    102. B(H  58,H  37)                  2.3088         0.000783   
    103. B(H  58,O  57)                  0.9572         0.525332   
    104. B(H  59,O  57)                  0.9572         0.525332   
    105. A(H   1,O   0,H  47)          120.9606         0.211026   
    106. A(H   2,O   0,H  47)          103.8538         0.211026   
    107. A(H   1,O   0,H   2)          104.5200         0.322920   
    108. A(O   0,H   1,O  36)          168.3362         0.201506   
    109. A(O   0,H   2,O  51)          168.8799         0.202404   
    110. A(H  47,H   2,O  51)          118.5097         0.112460   
    111. A(O   0,H   2,H  47)           50.8795         0.137392   
    112. A(H   4,O   3,H  19)          138.6830         0.201665   
    113. A(H  19,O   3,H  35)           82.0008         0.146570   
    114. A(H   4,O   3,H   5)          104.5200         0.322920   
    115. A(H   5,O   3,H  35)          112.7618         0.208529   
    116. A(H   4,O   3,H  35)           90.3234         0.208529   
    117. A(H   5,O   3,H  19)          115.9249         0.201665   
    118. A(O   9,H   4,H  31)           50.0605         0.108644   
    119. A(O   3,H   4,H  10)          147.9485         0.146120   
    120. A(O   3,H   4,H  31)          129.5376         0.130269   
    121. A(H  10,H   4,H  35)          109.2967         0.102554   
    122. A(H  31,H   4,H  35)           92.0673         0.098793   
    123. A(O   3,H   4,O   9)          164.7337         0.200342   
    124. A(O   9,H   4,H  10)           28.7130         0.116188   
    125. A(O   3,H   4,H  35)           61.2743         0.144508   
    126. A(H  10,H   4,H  31)           78.6717         0.099077   
    127. A(O   9,H   4,H  35)          103.9632         0.115421   
    128. A(O  45,H   5,H  47)           25.5549         0.113000   
    129. A(O   3,H   5,O  45)          171.0868         0.205495   
    130. A(O   3,H   5,H  47)          147.3567         0.137192   
    131. A(H   8,O   6,H  41)          117.6955         0.202638   
    132. A(H  38,O   6,H  41)           88.8377         0.144661   
    133. A(H   7,O   6,H   8)          104.5200         0.322920   
    134. A(H   8,O   6,H  38)          129.0399         0.203578   
    135. A(H   7,O   6,H  41)          107.9313         0.202638   
    136. A(H   7,O   6,H  38)          107.1214         0.203578   
    137. L(O   6,H   7,O  18,H  38, 2) 179.1182         0.210332   
    138. L(O   6,H   7,O  18,H  38, 1) 177.4327         0.210332   
    139. A(H   4,O   9,H  31)           79.7232         0.142182   
    140. A(H  11,O   9,H  31)           92.3320         0.200732   
    141. A(H  10,O   9,H  11)          104.5200         0.322920   
    142. A(H   4,O   9,H  10)           83.0787         0.200342   
    143. A(H  10,O   9,H  31)          161.9277         0.200732   
    144. A(H   4,O   9,H  11)          140.3714         0.200342   
    145. A(O  12,H  10,H  14)           22.9655         0.111055   
    146. A(H   4,H  10,O   9)           68.2082         0.146120   
    147. A(H   4,H  10,O  12)          102.5835         0.117787   
    148. A(O   9,H  10,O  12)          165.0606         0.206889   
    149. A(O   9,H  10,H  14)          145.2219         0.132762   
    150. A(H   4,H  10,H  14)          104.5208         0.099686   
    151. A(O   9,H  11,O  27)          173.6296         0.204828   
    152. A(O  27,H  11,H  29)           25.8099         0.113094   
    153. A(O   9,H  11,H  29)          150.8053         0.137658   
    154. A(O  27,H  11,H  31)          116.6584         0.114267   
    155. A(O   9,H  11,H  31)           60.7631         0.140027   
    156. A(H  29,H  11,H  31)           90.8544         0.099614   
    157. A(H  10,O  12,H  14)          110.4735         0.206889   
    158. A(H  10,O  12,H  13)          112.3221         0.206889   
    159. A(H  13,O  12,H  14)          104.5200         0.322920   
    160. A(O  12,H  13,H  47)          139.9516         0.137184   
    161. A(O  45,H  13,H  47)           25.8077         0.111954   
    162. A(O  12,H  13,O  45)          161.4564         0.200438   
    163. A(H  10,H  14,O  51)          127.8696         0.110052   
    164. A(O  12,H  14,O  51)          168.2095         0.201531   
    165. A(H  10,H  14,O  12)           46.5610         0.132762   
    166. A(H  10,H  14,H  53)          103.5076         0.097555   
    167. A(O  51,H  14,H  53)           24.6125         0.110998   
    168. A(O  12,H  14,H  53)          148.9080         0.134728   
    169. A(H  17,O  15,H  26)           92.2019         0.202194   
    170. A(H  16,O  15,H  56)          117.7518         0.204417   
    171. A(H  26,O  15,H  56)          113.8118         0.144851   
    172. A(H  17,O  15,H  56)           98.4520         0.204417   
    173. A(H  16,O  15,H  26)          121.9792         0.202194   
    174. A(H  16,O  15,H  17)          104.5200         0.322920   
    175. A(H  26,H  17,H  56)           91.2277         0.099802   
    176. A(O  15,H  17,H  56)           55.6206         0.137873   
    177. A(O  15,H  17,H  26)           60.6710         0.140703   
    178. A(H  26,H  17,O  42)          114.1791         0.116247   
    179. A(O  42,H  17,H  56)          120.0559         0.114755   
    180. A(H  26,H  17,H  44)           95.1595         0.100158   
    181. A(O  42,H  17,H  44)           26.2404         0.115604   
    182. A(O  15,H  17,H  44)          145.4544         0.139483   
    183. A(O  15,H  17,O  42)          171.6818         0.212272   
    184. A(H  44,H  17,H  56)          104.9916         0.099547   
    185. A(H  19,O  18,H  20)          104.5200         0.322920   
    186. A(H   7,O  18,H  20)          118.3106         0.210332   
    187. A(H   7,O  18,H  19)          115.6630         0.210332   
    188. A(O   3,H  19,O  18)          163.0613         0.201665   
    189. A(O  18,H  20,H  50)          144.5227         0.131848   
    190. A(O  18,H  20,O  48)          163.8011         0.205410   
    191. A(O  18,H  20,H  49)          142.3403         0.140744   
    192. A(H  49,H  20,H  50)           39.6387         0.098478   
    193. A(O  48,H  20,H  50)           22.5501         0.110323   
    194. A(O  48,H  20,H  49)           27.0827         0.114751   
    195. A(H  22,O  21,H  25)          113.5015         0.202870   
    196. A(H  25,O  21,H  53)          133.6653         0.147933   
    197. A(H  23,O  21,H  53)           96.9723         0.210064   
    198. A(H  23,O  21,H  25)           87.1923         0.202870   
    199. A(H  22,O  21,H  53)          109.9711         0.210064   
    200. A(H  22,O  21,H  23)          104.5200         0.322920   
    201. A(O  21,H  22,O  27)          169.5316         0.205426   
    202. A(O  21,H  22,H  29)          150.2323         0.136228   
    203. A(O  21,H  22,H  53)           46.6022         0.134072   
    204. A(O  27,H  22,H  29)           25.0881         0.112506   
    205. A(O  27,H  22,H  53)          132.3348         0.111433   
    206. A(H  29,H  22,H  53)          152.5681         0.098100   
    207. A(O  33,H  23,H  34)           25.4465         0.114310   
    208. A(O  21,H  23,H  34)          150.3177         0.137676   
    209. A(H  34,H  23,H  53)          106.8313         0.099796   
    210. A(H  25,H  23,H  53)          106.0550         0.101263   
    211. A(O  21,H  23,H  25)           64.5153         0.144288   
    212. A(O  21,H  23,H  53)           56.0380         0.140882   
    213. A(O  33,H  23,H  53)          123.2059         0.115978   
    214. A(H  25,H  23,O  33)          112.6011         0.117748   
    215. A(H  25,H  23,H  34)          103.6901         0.100505   
    216. A(H  25,O  24,H  26)          104.5200         0.322920   
    217. A(H  26,O  24,H  58)          119.0512         0.209809   
    218. A(H  25,O  24,H  58)          112.3451         0.209809   
    219. A(O  21,H  25,H  23)           28.2924         0.115914   
    220. A(O  21,H  25,O  24)          164.2356         0.202870   
    221. A(H  23,H  25,O  24)          136.0048         0.144288   
    222. A(O  15,H  26,H  17)           27.1272         0.114019   
    223. A(H  17,H  26,O  24)          141.9502         0.140703   
    224. A(O  15,H  26,O  24)          168.0833         0.202194   
    225. A(H  22,O  27,H  28)          130.3323         0.205426   
    226. A(H  22,O  27,H  29)          102.1881         0.205426   
    227. A(H  11,O  27,H  29)           99.1164         0.204828   
    228. A(H  11,O  27,H  28)          124.5894         0.204828   
    229. A(H  11,O  27,H  22)           90.8027         0.146650   
    230. A(H  28,O  27,H  29)          104.5200         0.322920   
    231. A(H  22,H  29,H  55)          119.4737         0.098985   
    232. A(O  27,H  29,H  55)          146.2711         0.138455   
    233. A(H  22,H  29,O  54)          124.0015         0.114061   
    234. A(O  27,H  29,O  54)          171.3956         0.213125   
    235. A(H  22,H  29,O  27)           52.7238         0.136228   
    236. A(H  11,H  29,O  54)          116.9079         0.114819   
    237. A(H  11,H  29,H  55)           91.2721         0.099287   
    238. A(H  11,H  29,H  22)           71.6591         0.098824   
    239. A(H  11,H  29,O  27)           55.0736         0.137658   
    240. A(O  54,H  29,H  55)           25.6634         0.115242   
    241. A(H  32,O  30,H  50)          109.1906         0.201673   
    242. A(H  32,O  30,H  55)          116.2471         0.199548   
    243. A(H  50,O  30,H  55)          105.0875         0.142248   
    244. A(H  31,O  30,H  32)          104.5200         0.322920   
    245. A(H  31,O  30,H  55)          101.5257         0.199548   
    246. A(H  31,O  30,H  50)          120.6882         0.201673   
    247. A(O   9,H  31,H  11)           26.9049         0.113373   
    248. A(O   9,H  31,O  30)          170.1744         0.200732   
    249. A(H   4,H  31,H  55)          135.9051         0.097008   
    250. A(H   4,H  31,O  30)          134.2288         0.130269   
    251. A(O   9,H  31,H  55)          116.3999         0.110682   
    252. A(H  11,H  31,H  55)           89.9895         0.098902   
    253. A(O  30,H  31,H  55)           53.8886         0.134393   
    254. A(H   4,H  31,H  11)           72.4958         0.098002   
    255. A(H  11,H  31,O  30)          143.7253         0.140027   
    256. A(H   4,H  31,O   9)           50.2163         0.108712   
    257. A(O  30,H  32,H  50)           48.0078         0.131528   
    258. A(H  23,O  33,H  35)          115.5428         0.210633   
    259. A(H  23,O  33,H  34)          103.0432         0.210633   
    260. A(H  34,O  33,H  35)          104.5200         0.322920   
    261. A(H  23,O  33,H  44)          114.0650         0.150822   
    262. A(H  35,O  33,H  44)          111.9558         0.207893   
    263. A(H  34,O  33,H  44)          106.3411         0.207893   
    264. A(H  23,H  34,H  38)          156.1587         0.100240   
    265. A(H  23,H  34,H  37)          114.3787         0.100080   
    266. A(H  23,H  34,O  33)           51.5103         0.137676   
    267. A(H  37,H  34,H  38)           43.2524         0.101295   
    268. A(O  36,H  34,H  38)           27.8255         0.117215   
    269. A(O  33,H  34,H  38)          151.6509         0.143016   
    270. A(O  36,H  34,H  37)           27.5179         0.116812   
    271. A(O  33,H  34,H  37)          152.1032         0.142245   
    272. A(H  23,H  34,H  44)           83.9651         0.098577   
    273. A(H  38,H  34,H  44)          110.0846         0.099628   
    274. A(H  37,H  34,H  44)          110.9469         0.099476   
    275. A(O  36,H  34,H  44)          129.8429         0.113041   
    276. A(O  33,H  34,H  44)           49.4232         0.135025   
    277. A(H  23,H  34,O  36)          128.9263         0.114426   
    278. A(O   3,H  35,H   4)           28.4023         0.117364   
    279. A(H   4,H  35,O  33)          150.9642         0.144508   
    280. A(H  37,O  36,H  38)          104.5200         0.322920   
    281. A(H   1,O  36,H  34)           90.4854         0.147767   
    282. A(H  34,O  36,H  38)           94.2162         0.211187   
    283. A(H  34,O  36,H  37)           95.4447         0.211187   
    284. A(H   1,O  36,H  38)          121.3991         0.201506   
    285. A(H   1,O  36,H  37)          133.1093         0.201506   
    286. A(H  34,H  37,H  58)           89.6762         0.098874   
    287. A(O  36,H  37,H  58)          146.2683         0.132380   
    288. A(H  34,H  37,O  57)          109.3640         0.115015   
    289. A(O  36,H  37,O  57)          165.1739         0.203293   
    290. A(H  34,H  37,O  36)           57.0374         0.142245   
    291. A(O  57,H  37,H  58)           23.1449         0.110195   
    292. A(H  34,H  38,O  36)           57.9582         0.143016   
    293. A(O   6,H  38,H  34)          108.8089         0.115458   
    294. A(O   6,H  38,O  36)          165.6394         0.203578   
    295. A(H  40,O  39,H  41)          104.5200         0.322920   
    296. A(H  41,O  39,H  43)           98.7200         0.209437   
    297. A(H  40,O  39,H  43)          101.0106         0.209437   
    298. A(O  57,H  40,H  58)           23.4864         0.110257   
    299. A(H  43,H  40,H  58)           96.6733         0.098240   
    300. A(O  39,H  40,H  58)          149.7618         0.132810   
    301. A(H  43,H  40,O  57)          118.2565         0.112938   
    302. A(O  39,H  40,O  57)          169.0377         0.202501   
    303. A(O  39,H  40,H  43)           53.1293         0.138334   
    304. A(O  39,H  41,H  43)           54.8170         0.139620   
    305. A(O   6,H  41,H  43)          116.9578         0.113591   
    306. A(O   6,H  41,O  39)          168.2973         0.202638   
    307. A(H  43,O  42,H  44)          104.5200         0.322920   
    308. A(H  17,O  42,H  44)          100.8202         0.212272   
    309. A(H  17,O  42,H  43)          115.5015         0.212272   
    310. A(H  17,O  42,H  49)          119.1047         0.150100   
    311. A(H  44,O  42,H  49)           94.5735         0.204944   
    312. A(H  43,O  42,H  49)          116.6483         0.204944   
    313. A(H  40,H  43,H  41)           41.4487         0.099676   
    314. A(O  39,H  43,H  41)           26.4631         0.115062   
    315. A(H  41,H  43,O  42)          144.8698         0.139620   
    316. A(O  39,H  43,H  40)           25.8601         0.114400   
    317. A(H  40,H  43,O  42)          142.9595         0.138334   
    318. A(O  39,H  43,O  42)          165.9918         0.209437   
    319. A(H  17,H  44,H  34)          132.4930         0.098933   
    320. A(H  17,H  44,O  33)          125.2510         0.114659   
    321. A(H  17,H  44,O  42)           52.9394         0.139483   
    322. A(O  33,H  44,H  34)           24.2357         0.112393   
    323. A(H  34,H  44,O  42)          153.9429         0.135025   
    324. A(H  17,H  44,H  49)           91.9135         0.100080   
    325. A(H  34,H  44,H  49)          133.8981         0.099102   
    326. A(O  33,H  44,H  49)          124.8620         0.115095   
    327. A(O  42,H  44,H  49)           58.4886         0.140341   
    328. A(H   5,O  45,H  47)          100.4249         0.205495   
    329. A(H   5,O  45,H  46)          132.8482         0.205495   
    330. A(H   5,O  45,H  13)           82.7060         0.144497   
    331. A(H  13,O  45,H  47)           96.9506         0.200438   
    332. A(H  13,O  45,H  46)          131.8513         0.200438   
    333. A(H  46,O  45,H  47)          104.5200         0.322920   
    334. A(H   5,H  47,O  45)           54.0202         0.137192   
    335. A(O   0,H  47,H   2)           25.2667         0.114244   
    336. A(H   2,H  47,O  45)          146.7354         0.137392   
    337. A(H   5,H  47,H  13)           66.9751         0.098927   
    338. A(H   2,H  47,H  13)           89.7127         0.098968   
    339. A(O   0,H  47,H  13)          114.9586         0.114135   
    340. A(H  13,H  47,O  45)           57.2417         0.137184   
    341. A(O   0,H  47,O  45)          171.0161         0.211026   
    342. A(H   2,H  47,H   5)          112.7791         0.098970   
    343. A(O   0,H  47,H   5)          120.2537         0.114140   
    344. A(H  20,O  48,H  49)           94.2158         0.205410   
    345. A(H  20,O  48,H  50)          111.4163         0.205410   
    346. A(H  49,O  48,H  50)          104.5200         0.322920   
    347. A(H  20,H  49,H  44)           92.7320         0.100357   
    348. A(H  20,H  49,O  42)          112.0846         0.114647   
    349. A(H  20,H  49,O  48)           58.7016         0.140744   
    350. A(O  42,H  49,H  44)           26.9379         0.114447   
    351. A(H  44,H  49,O  48)          135.8387         0.140341   
    352. A(O  42,H  49,O  48)          162.6784         0.204944   
    353. A(H  20,H  50,O  48)           46.0336         0.131848   
    354. A(O  30,H  50,H  32)           22.8016         0.109485   
    355. A(H  20,H  50,H  32)          139.5733         0.096790   
    356. A(H  32,H  50,O  48)          163.6361         0.131528   
    357. A(H  20,H  50,O  30)          134.0820         0.109639   
    358. A(O  30,H  50,O  48)          172.7586         0.201673   
    359. A(H   2,O  51,H  53)          108.0423         0.202404   
    360. A(H   2,O  51,H  52)          121.5985         0.202404   
    361. A(H   2,O  51,H  14)           92.6079         0.143554   
    362. A(H  14,O  51,H  53)          102.3151         0.201531   
    363. A(H  14,O  51,H  52)          125.6555         0.201531   
    364. A(H  52,O  51,H  53)          104.5200         0.322920   
    365. A(H  14,H  53,H  23)          107.2943         0.099142   
    366. A(H  14,H  53,H  22)          104.0205         0.097811   
    367. A(H  14,H  53,O  21)          121.7469         0.112666   
    368. A(H  14,H  53,O  51)           53.0724         0.134728   
    369. A(H  22,H  53,H  23)           40.4364         0.098997   
    370. A(O  21,H  53,H  23)           26.9896         0.115851   
    371. A(H  23,H  53,O  51)          146.5580         0.140882   
    372. A(O  21,H  53,H  22)           23.4267         0.112327   
    373. A(H  22,H  53,O  51)          155.0188         0.134072   
    374. A(O  21,H  53,O  51)          173.0765         0.210064   
    375. A(H  29,O  54,H  56)          112.9937         0.213125   
    376. A(H  29,O  54,H  55)          103.2674         0.213125   
    377. A(H  55,O  54,H  56)          104.5200         0.322920   
    378. A(H  29,H  55,O  54)           51.0691         0.138455   
    379. A(O  30,H  55,H  31)           24.5857         0.110452   
    380. A(H  29,H  55,H  31)           87.6754         0.098597   
    381. A(H  31,H  55,O  54)          138.7377         0.134393   
    382. A(H  29,H  55,O  30)          112.0676         0.112372   
    383. A(O  30,H  55,O  54)          162.7989         0.199548   
    384. A(O  15,H  56,H  17)           25.9275         0.113114   
    385. A(H  17,H  56,O  54)          151.8229         0.137873   
    386. A(O  15,H  56,O  54)          174.4872         0.204417   
    387. A(H  37,O  57,H  40)           88.4945         0.144456   
    388. A(H  40,O  57,H  59)          119.1908         0.202501   
    389. A(H  40,O  57,H  58)          106.9921         0.202501   
    390. A(H  37,O  57,H  59)          127.4093         0.203293   
    391. A(H  37,O  57,H  58)          108.5440         0.203293   
    392. A(H  58,O  57,H  59)          104.5200         0.322920   
    393. A(H  37,H  58,H  40)           67.0466         0.097124   
    394. A(H  40,H  58,O  57)           49.5215         0.132810   
    395. A(H  37,H  58,O  57)           48.3111         0.132380   
    396. A(O  24,H  58,H  40)          130.2461         0.111626   
    397. A(O  24,H  58,H  37)          129.1742         0.111404   
    398. D(O  36,H   1,O   0,H   2)     70.5426         0.355142   
    399. D(O  36,H   1,O   0,H  47)    -45.8051         0.355142   
    400. D(H  47,H   2,O   0,H   1)   -127.6775         0.393871   
    401. D(O  51,H   2,O   0,H  47)     18.6171         0.393871   
    402. D(O  51,H   2,O   0,H   1)   -109.0603         0.393871   
    403. D(O   9,H   4,O   3,H  35)     15.6343         0.495889   
    404. D(H  35,H   4,O   3,H  19)     78.2081         0.495889   
    405. D(O   9,H   4,O   3,H  19)     93.8424         0.495889   
    406. D(H  10,H   4,O   3,H   5)    -33.1602         0.495889   
    407. D(H  35,H   4,O   3,H   5)   -113.6492         0.495889   
    408. D(O   9,H   4,O   3,H   5)    -98.0148         0.495889   
    409. D(H  31,H   4,O   3,H   5)    179.8702         0.495889   
    410. D(H  10,H   4,O   3,H  35)     80.4889         0.495889   
    411. D(H  10,H   4,O   3,H  19)    158.6971         0.495889   
    412. D(H  31,H   4,O   3,H  35)    -66.4807         0.495889   
    413. D(H  31,H   4,O   3,H  19)     11.7274         0.495889   
    414. D(O  45,H   5,O   3,H  35)    -29.7511         0.429907   
    415. D(O  45,H   5,O   3,H   4)     66.8519         0.429907   
    416. D(O  45,H   5,O   3,H  19)   -121.8236         0.429907   
    417. D(H  47,H   5,O   3,H  35)      2.9907         0.429907   
    418. D(H  47,H   5,O   3,H  19)    -89.0818         0.429907   
    419. D(H  47,H   5,O   3,H   4)     99.5938         0.429907   
    420. D(H  31,O   9,H   4,H  10)    174.4236         0.001789   
    421. D(H  31,O   9,H   4,O   3)    -94.9046         0.001789   
    422. D(H  10,O   9,H   4,O   3)     90.6718         0.001789   
    423. D(H  11,O   9,H   4,H  10)   -104.4415         0.001789   
    424. D(H  11,O   9,H   4,H  31)     81.1348         0.001789   
    425. D(H  31,O   9,H   4,H  35)    -80.8098         0.001789   
    426. D(H  11,O   9,H   4,H  35)      0.3250         0.001789   
    427. D(H  10,O   9,H   4,H  31)   -174.4236         0.001789   
    428. D(H  10,O   9,H   4,H  35)    104.7665         0.001789   
    429. D(H  11,O   9,H   4,O   3)    -13.7697         0.001789   
    430. D(H  14,H  10,O   9,H  31)   -102.0793         0.463787   
    431. D(H  14,H  10,O   9,H   4)    -84.1277         0.463787   
    432. D(O  12,H  10,O   9,H  31)    -71.9152         0.463787   
    433. D(O  12,H  10,O   9,H   4)    -53.9636         0.463787   
    434. D(H   4,H  10,O   9,H  31)    -17.9517         0.463787   
    435. D(H   4,H  10,O   9,H  11)    140.3546         0.463787   
    436. D(H  14,H  10,O   9,H  11)     56.2270         0.463787   
    437. D(O  12,H  10,H   4,O   9)    167.6668         0.001587   
    438. D(H  14,H  10,H   4,H  31)    148.4750         0.001587   
    439. D(O  12,H  10,H   4,H  31)    172.0246         0.001587   
    440. D(H  14,H  10,H   4,O   3)     -6.1383         0.001587   
    441. D(O  12,H  10,H   4,O   3)     17.4113         0.001587   
    442. D(O   9,H  10,H   4,H  35)    -83.8564         0.001587   
    443. D(O  12,H  10,O   9,H  11)     86.3911         0.463787   
    444. D(O   9,H  10,H   4,H  31)      4.3578         0.001587   
    445. D(O  12,H  10,H   4,H  35)     83.8105         0.001587   
    446. D(O   9,H  10,H   4,O   3)   -150.2556         0.001587   
    447. D(H  14,H  10,H   4,H  35)     60.2609         0.001587   
    448. D(H  14,H  10,H   4,O   9)    144.1172         0.001587   
    449. D(O  27,H  11,O   9,H  10)   -105.7085         0.463787   
    450. D(H  31,H  11,O   9,H   4)    -76.6576         0.463787   
    451. D(H  31,H  11,O   9,H  10)   -173.4099         0.463787   
    452. D(H  29,H  11,O   9,H  31)     14.8278         0.463787   
    453. D(H  29,H  11,O   9,H   4)    -61.8299         0.463787   
    454. D(O  27,H  11,O   9,H   4)     -8.9562         0.463787   
    455. D(O  27,H  11,O   9,H  31)     67.7014         0.463787   
    456. D(H  29,H  11,O   9,H  10)   -158.5821         0.463787   
    457. D(H  13,O  12,H  10,H   4)     18.7041         0.001922   
    458. D(H  14,O  12,H  10,H   4)    -97.5655         0.001922   
    459. D(H  13,O  12,H  10,O   9)     68.9984         0.001922   
    460. D(H  14,O  12,H  10,O   9)    -47.2712         0.001922   
    461. D(H  13,O  12,H  10,H  14)    116.2696         0.001922   
    462. D(H  47,H  13,O  12,H  14)     25.8652         0.393871   
    463. D(O  45,H  13,O  12,H  10)    -62.4458         0.393871   
    464. D(O  45,H  13,O  12,H  14)     57.3506         0.393871   
    465. D(H  47,H  13,O  12,H  10)    -93.9312         0.393871   
    466. D(H  53,H  14,O  12,H  10)     18.6753         0.429907   
    467. D(H  10,H  14,O  12,H  13)   -121.0305         0.429907   
    468. D(O  51,H  14,O  12,H  13)    -54.5503         0.429907   
    469. D(H  53,H  14,O  12,H  13)   -102.3552         0.429907   
    470. D(H  53,H  14,H  10,O  12)   -170.2086         0.001508   
    471. D(H  53,H  14,H  10,O   9)     -9.5986         0.001508   
    472. D(O  51,H  14,H  10,O  12)   -166.2705         0.001508   
    473. D(H  53,H  14,H  10,H   4)    -82.1803         0.001508   
    474. D(O  12,H  14,H  10,H   4)     88.0282         0.001508   
    475. D(O  51,H  14,H  10,H   4)    -78.2422         0.001508   
    476. D(O  51,H  14,O  12,H  10)     66.4802         0.429907   
    477. D(O  12,H  14,H  10,O   9)    160.6100         0.001508   
    478. D(O  51,H  14,H  10,O   9)     -5.6605         0.001508   
    479. D(H  56,H  17,O  15,H  26)   -114.4678         0.495889   
    480. D(H  26,H  17,O  15,H  16)   -123.8794         0.495889   
    481. D(H  26,H  17,O  15,H  56)    114.4678         0.495889   
    482. D(H  44,H  17,O  15,H  26)    -50.6404         0.495889   
    483. D(H  56,H  17,O  15,H  16)    121.6528         0.495889   
    484. D(O  42,H  17,O  15,H  16)   -177.3473         0.495889   
    485. D(O  42,H  17,O  15,H  56)     60.9999         0.495889   
    486. D(H  44,H  17,O  15,H  56)     63.8274         0.495889   
    487. D(O  42,H  17,O  15,H  26)    -53.4679         0.495889   
    488. D(H  44,H  17,O  15,H  16)   -174.5198         0.495889   
    489. D(H  20,O  18,O   6,H  41)    -12.2459         0.001501   
    490. D(H  20,O  18,O   6,H   8)    114.7129         0.001501   
    491. D(H  19,O  18,O   6,H  38)     18.3403         0.001501   
    492. D(H  19,O  18,O   6,H   8)   -120.6656         0.001501   
    493. D(H  20,O  18,O   6,H  38)   -106.2811         0.001501   
    494. D(H  19,O  18,O   6,H  41)    112.3756         0.001501   
    495. D(O   3,H  19,O  18,H   7)    -65.0047         0.355142   
    496. D(O  18,H  19,O   3,H  35)     13.3654         0.001755   
    497. D(O   3,H  19,O  18,H  20)     66.9043         0.355142   
    498. D(O  18,H  19,O   3,H   4)    -67.9365         0.001755   
    499. D(O  18,H  19,O   3,H   5)    124.8412         0.001755   
    500. D(O  48,H  20,O  18,H   7)     81.8810         0.429907   
    501. D(H  50,H  20,O  18,H  19)    -19.4253         0.429907   
    502. D(H  49,H  20,O  18,H   7)     41.6508         0.429907   
    503. D(H  50,H  20,O  18,H   7)    110.9400         0.429907   
    504. D(H  49,H  20,O  18,H  19)    -88.7145         0.429907   
    505. D(O  48,H  20,O  18,H  19)    -48.4843         0.429907   
    506. D(H  29,H  22,O  21,H  23)     40.6619         0.463787   
    507. D(H  53,H  22,O  21,H  23)   -103.1520         0.463787   
    508. D(O  27,H  22,O  21,H  53)     89.0615         0.463787   
    509. D(O  27,H  22,O  21,H  23)    -14.0905         0.463787   
    510. D(H  53,H  22,O  21,H  25)    163.5549         0.463787   
    511. D(H  29,H  22,O  21,H  53)    143.8139         0.463787   
    512. D(O  27,H  22,O  21,H  25)   -107.3835         0.463787   
    513. D(H  29,H  22,O  21,H  25)    -52.6312         0.463787   
    514. D(H  25,H  23,O  21,H  22)   -113.5609         0.495889   
    515. D(H  53,H  23,O  21,H  25)   -133.6639         0.495889   
    516. D(H  34,H  23,O  21,H  53)     61.5303         0.495889   
    517. D(H  34,H  23,O  21,H  22)    174.3055         0.495889   
    518. D(H  25,H  23,O  21,H  53)    133.6639         0.495889   
    519. D(H  34,H  23,O  21,H  25)    -72.1336         0.495889   
    520. D(H  53,H  23,O  21,H  22)    112.7752         0.495889   
    521. D(H  23,H  25,O  21,H  22)    104.6195         0.001807   
    522. D(O  24,H  25,O  21,H  53)   -103.1367         0.001807   
    523. D(O  24,H  25,O  21,H  22)     98.4443         0.001807   
    524. D(O  24,H  25,O  21,H  23)     -6.1752         0.001807   
    525. D(H  23,H  25,O  24,H  26)    -73.9839         0.393871   
    526. D(H  23,H  25,O  24,H  58)     56.4668         0.393871   
    527. D(O  21,H  25,O  24,H  26)    -69.7745         0.393871   
    528. D(O  24,H  25,H  23,O  33)     -6.2936         0.001561   
    529. D(O  24,H  25,H  23,H  34)    -31.4298         0.001561   
    530. D(O  21,H  25,H  23,H  34)    150.9816         0.001561   
    531. D(O  24,H  25,H  23,O  21)    177.5886         0.001561   
    532. D(O  21,H  25,O  24,H  58)     60.6762         0.393871   
    533. D(O  24,H  25,H  23,H  53)   -143.7770         0.001561   
    534. D(O  21,H  25,H  23,O  33)    176.1178         0.001561   
    535. D(O  21,H  25,H  23,H  53)     38.6344         0.001561   
    536. D(H  23,H  25,O  21,H  53)    -96.9614         0.001807   
    537. D(H  17,H  26,O  24,H  58)    -37.9054         0.393871   
    538. D(H  17,H  26,O  24,H  25)     88.4729         0.393871   
    539. D(O  15,H  26,O  24,H  58)    -58.0389         0.393871   
    540. D(O  24,H  26,H  17,O  42)      1.6469         0.001534   
    541. D(O  24,H  26,H  17,H  56)   -122.3229         0.001534   
    542. D(O  15,H  26,H  17,O  42)    172.6791         0.001534   
    543. D(O  24,H  26,O  15,H  17)     27.7283         0.001791   
    544. D(O  24,H  26,H  17,O  15)   -171.0322         0.001534   
    545. D(H  17,H  26,O  15,H  56)   -100.2382         0.001791   
    546. D(O  24,H  26,H  17,H  44)    -17.1505         0.001534   
    547. D(H  17,H  26,O  15,H  16)    108.6507         0.001791   
    548. D(O  15,H  26,O  24,H  25)     68.3394         0.393871   
    549. D(O  24,H  26,O  15,H  56)    -72.5099         0.001791   
    550. D(O  24,H  26,O  15,H  16)    136.3790         0.001791   
    551. D(O  15,H  26,H  17,H  56)     48.7093         0.001534   
    552. D(O  15,H  26,H  17,H  44)    153.8817         0.001534   
    553. D(H  11,O  27,H  22,H  29)    -99.5052         0.001906   
    554. D(H  28,O  27,H  22,H  53)    -86.3310         0.001906   
    555. D(H  28,O  27,H  11,H  29)   -114.7779         0.001887   
    556. D(H  22,O  27,H  11,O   9)     39.1951         0.001887   
    557. D(H  22,O  27,H  11,H  31)    103.8017         0.001887   
    558. D(H  28,O  27,H  11,H  31)   -113.4557         0.001887   
    559. D(H  29,O  27,H  11,O   9)    -63.2845         0.001887   
    560. D(H  29,O  27,H  11,H  31)      1.3222         0.001887   
    561. D(H  22,O  27,H  11,H  29)    102.4796         0.001887   
    562. D(H  28,O  27,H  11,O   9)   -178.0624         0.001887   
    563. D(H  11,O  27,H  22,O  21)    -26.5153         0.001906   
    564. D(H  11,O  27,H  22,H  53)     52.8409         0.001906   
    565. D(H  28,O  27,H  22,O  21)   -165.6872         0.001906   
    566. D(H  29,O  27,H  22,H  53)    152.3461         0.001906   
    567. D(H  29,O  27,H  22,O  21)     72.9899         0.001906   
    568. D(H  28,O  27,H  22,H  29)    121.3230         0.001906   
    569. D(H  11,H  29,O  27,H  28)    129.4558         0.495889   
    570. D(H  55,H  29,O  27,H  11)      4.3342         0.495889   
    571. D(H  55,H  29,O  27,H  22)    -88.4845         0.495889   
    572. D(O  54,H  29,O  27,H  11)     22.2610         0.495889   
    573. D(O  54,H  29,O  27,H  22)    -70.5577         0.495889   
    574. D(O  54,H  29,O  27,H  28)    151.7168         0.495889   
    575. D(H  22,H  29,O  27,H  11)     92.8187         0.495889   
    576. D(H  22,H  29,O  27,H  28)   -137.7255         0.495889   
    577. D(H  11,H  29,H  22,H  53)     11.4872         0.001516   
    578. D(H  55,H  29,H  22,O  27)    140.3880         0.001516   
    579. D(H  55,H  29,H  22,O  21)    -19.1279         0.001516   
    580. D(O  54,H  29,H  22,O  21)     10.6861         0.001516   
    581. D(O  54,H  29,H  22,H  53)    122.0656         0.001516   
    582. D(H  11,H  29,H  22,O  27)     59.6236         0.001516   
    583. D(H  55,H  29,H  22,H  53)     92.2516         0.001516   
    584. D(O  27,H  29,H  22,H  53)    -48.1364         0.001516   
    585. D(O  27,H  29,H  22,O  21)   -159.5159         0.001516   
    586. D(H  55,H  29,H  11,O   9)     -9.3178         0.001521   
    587. D(H  22,H  29,H  11,O   9)    111.4209         0.001521   
    588. D(H  22,H  29,H  11,O  27)    -56.8557         0.001521   
    589. D(O  54,H  29,H  11,H  31)      4.8258         0.001521   
    590. D(H  11,H  29,H  22,O  21)    -99.8923         0.001516   
    591. D(H  22,H  29,H  11,H  31)    124.3260         0.001521   
    592. D(H  55,H  29,H  11,H  31)      3.5874         0.001521   
    593. D(H  55,H  29,H  11,O  27)   -177.5944         0.001521   
    594. D(O  27,H  29,H  11,H  31)   -178.8183         0.001521   
    595. D(H  55,H  29,O  27,H  28)    133.7900         0.495889   
    596. D(O  27,H  29,H  11,O   9)    168.2766         0.001521   
    597. D(O  54,H  29,H  11,O  27)   -176.3560         0.001521   
    598. D(O  54,H  29,H  11,O   9)     -8.0794         0.001521   
    599. D(H  11,H  29,O  27,H  22)    -92.8187         0.495889   
    600. D(O  54,H  29,H  22,O  27)    170.2020         0.001516   
    601. D(H  55,H  31,O  30,H  50)   -115.4634         0.495889   
    602. D(H  55,H  31,O  30,H  32)    121.2685         0.495889   
    603. D(H  11,H  31,O  30,H  55)     -6.0550         0.495889   
    604. D(H  11,H  31,O  30,H  32)    115.2135         0.495889   
    605. D(O   9,H  31,O  30,H  50)   -106.2334         0.495889   
    606. D(H  55,H  31,O   9,H  11)    -11.8444         0.001798   
    607. D(H   4,H  31,O  30,H  50)      6.5754         0.495889   
    608. D(H   4,H  31,O  30,H  32)   -116.6928         0.495889   
    609. D(H  55,H  31,H  11,H  29)     -3.4223         0.001532   
    610. D(O   9,H  31,H  11,H  29)   -172.8283         0.001532   
    611. D(H   4,H  31,H  11,H  29)   -142.2834         0.001532   
    612. D(H   4,H  31,H  11,O  27)   -142.8591         0.001532   
    613. D(H   4,H  31,H  11,O   9)     30.5449         0.001532   
    614. D(O   9,H  31,H  11,O  27)   -173.4040         0.001532   
    615. D(H  55,H  31,H  11,O  27)     -3.9980         0.001532   
    616. D(H  55,H  31,O   9,H   4)    129.0530         0.001798   
    617. D(H  55,H  31,H  11,O   9)    169.4060         0.001532   
    618. D(O   9,H  31,O  30,H  32)    130.4984         0.495889   
    619. D(H  55,H  31,O   9,H  10)    147.1699         0.001798   
    620. D(H  11,H  31,O   9,H   4)    140.8974         0.001798   
    621. D(H  11,H  31,O   9,H  10)    159.0143         0.001798   
    622. D(H   4,H  31,O  30,H  55)    122.0388         0.495889   
    623. D(H   4,H  31,O   9,H  11)   -140.8974         0.001798   
    624. D(H   4,H  31,O   9,H  10)     18.1169         0.001798   
    625. D(O  30,H  31,H  11,O   9)    174.2945         0.001532   
    626. D(O  30,H  31,H  11,O  27)      0.8905         0.001532   
    627. D(O  30,H  31,H  11,H  29)      1.4662         0.001532   
    628. D(O  30,H  31,O   9,H  11)    -20.1624         0.001798   
    629. D(O   9,H  31,O  30,H  55)      9.2299         0.495889   
    630. D(H  55,H  31,H   4,H  10)    -91.1292         0.001505   
    631. D(H  55,H  31,H   4,H  35)     18.1404         0.001505   
    632. D(H  55,H  31,H   4,O   3)     71.7124         0.001505   
    633. D(H  11,H  31,H   4,H  10)    -20.1422         0.001505   
    634. D(H  55,H  31,H   4,O   9)    -88.4003         0.001505   
    635. D(H  11,H  31,H   4,O   9)    -17.4132         0.001505   
    636. D(H  11,H  31,H   4,H  35)     89.1275         0.001505   
    637. D(O  30,H  31,O   9,H  10)    138.8519         0.001798   
    638. D(H  11,H  31,H   4,O   3)    142.6995         0.001505   
    639. D(O   9,H  31,H   4,H  10)     -2.7290         0.001505   
    640. D(O   9,H  31,H   4,H  35)    106.5407         0.001505   
    641. D(O   9,H  31,H   4,O   3)    160.1127         0.001505   
    642. D(O  30,H  31,O   9,H   4)    120.7350         0.001798   
    643. D(H  11,H  31,O  30,H  50)   -121.5183         0.495889   
    644. D(O  30,H  31,H   4,H  35)    -61.6473         0.001505   
    645. D(O  30,H  31,H   4,O   3)     -8.0753         0.001505   
    646. D(O  30,H  31,H   4,H  10)   -170.9169         0.001505   
    647. D(O  30,H  31,H   4,O   9)   -168.1880         0.001505   
    648. D(H  50,H  32,O  30,H  55)   -118.6144         0.393871   
    649. D(H  50,H  32,O  30,H  31)    130.4186         0.393871   
    650. D(H  34,O  33,O   3,H  19)     74.2869         0.001501   
    651. D(H  34,O  33,O   3,H   5)    -40.7967         0.001501   
    652. D(H  34,O  33,O   3,H   4)   -146.5318         0.001501   
    653. D(H  44,O  33,H  23,H  25)     40.9728         0.002149   
    654. D(H  44,O  33,H  23,H  53)    170.0596         0.002149   
    655. D(H  44,O  33,H  23,H  34)    114.8192         0.002149   
    656. D(H  35,O  33,H  23,H  25)    172.8287         0.002149   
    657. D(H  35,O  33,H  23,H  53)    -58.0845         0.002149   
    658. D(H  35,O  33,H  23,H  34)   -113.3249         0.002149   
    659. D(H  34,O  33,H  23,H  25)    -73.8464         0.002149   
    660. D(H  44,O  33,O  21,H  25)     38.5159         0.001502   
    661. D(H  44,O  33,O  21,H  22)    -74.6779         0.001502   
    662. D(H  35,O  33,O  21,H  53)    -54.8927         0.001502   
    663. D(H  34,O  33,O  21,H  25)    -75.4380         0.001502   
    664. D(H  34,O  33,O  21,H  53)     58.0302         0.001502   
    665. D(H  34,O  33,O  21,H  22)    171.3681         0.001502   
    666. D(H  35,O  33,O  21,H  22)     58.4452         0.001502   
    667. D(H  34,O  33,H  23,H  53)     55.2405         0.002149   
    668. D(H  44,O  33,O   3,H  19)    -40.8588         0.001501   
    669. D(H  44,O  33,O   3,H   5)   -155.9424         0.001501   
    670. D(H  35,O  33,O  21,H  25)    171.6390         0.001502   
    671. D(H  44,O  33,O   3,H   4)     98.3225         0.001501   
    672. D(H  23,O  33,O   3,H  19)   -174.2538         0.001501   
    673. D(H  23,O  33,O   3,H   5)     70.6627         0.001501   
    674. D(H  23,O  33,O   3,H   4)    -35.0724         0.001501   
    675. D(H  44,O  33,O  21,H  53)    171.9842         0.001502   
    676. D(H  44,H  34,O  33,H  23)    120.2727         0.526490   
    677. D(H  23,H  34,O  33,H  44)   -120.2727         0.526490   
    678. D(H  23,H  34,O  33,H  35)    121.1450         0.526490   
    679. D(H  38,H  34,O  33,H  23)    170.8465         0.526490   
    680. D(H  37,H  34,O  33,H  44)    -52.2888         0.526490   
    681. D(H  44,H  34,O  33,H  35)   -118.5824         0.526490   
    682. D(H  44,H  34,H  23,H  53)   -175.3676         0.001524   
    683. D(H  44,H  34,H  23,H  25)     72.8504         0.001524   
    684. D(H  38,H  34,H  23,H  25)    -55.1081         0.001524   
    685. D(H  37,H  34,O  33,H  35)   -170.8712         0.526490   
    686. D(H  38,H  34,H  23,H  53)     56.6739         0.001524   
    687. D(H  38,H  34,H  23,O  33)   -169.2292         0.001524   
    688. D(H  38,H  34,H  23,O  21)      7.0561         0.001524   
    689. D(H  37,H  34,H  23,H  25)    -37.4399         0.001524   
    690. D(H  44,H  34,H  23,O  21)    135.0146         0.001524   
    691. D(H  44,H  34,H  23,O  33)    -41.2707         0.001524   
    692. D(H  37,H  34,H  23,H  53)     74.3421         0.001524   
    693. D(H  37,H  34,O  33,H  23)     67.9839         0.526490   
    694. D(O  36,H  34,H  23,H  53)     46.6658         0.001524   
    695. D(O  33,H  34,H  23,H  25)    114.1211         0.001524   
    696. D(O  33,H  34,H  23,H  53)   -134.0969         0.001524   
    697. D(H  38,H  34,O  33,H  35)    -68.0086         0.526490   
    698. D(O  33,H  34,H  23,O  21)    176.2853         0.001524   
    699. D(H  38,H  34,O  33,H  44)     50.5738         0.526490   
    700. D(O  36,H  34,H  23,H  25)    -65.1162         0.001524   
    701. D(O  36,H  34,H  23,O  33)   -179.2373         0.001524   
    702. D(H  37,H  34,H  23,O  33)   -151.5610         0.001524   
    703. D(H  37,H  34,H  23,O  21)     24.7243         0.001524   
    704. D(O  36,H  34,H  23,O  21)     -2.9520         0.001524   
    705. D(O  33,H  35,H   4,O   9)     -1.4455         0.001563   
    706. D(H   4,H  35,O  33,H  44)    103.2959         0.429907   
    707. D(H   4,H  35,O  33,H  23)    -29.5429         0.429907   
    708. D(H   4,H  35,O  33,H  34)   -142.0102         0.429907   
    709. D(O   3,H  35,H   4,H  31)    134.9600         0.001563   
    710. D(O   3,H  35,H   4,H  10)   -146.3209         0.001563   
    711. D(O   3,H  35,H   4,O   9)   -175.8067         0.001563   
    712. D(O  33,H  35,H   4,H  31)    -50.6787         0.001563   
    713. D(O  33,H  35,H   4,H  10)     28.0403         0.001563   
    714. D(O  33,H  35,H   4,O   3)    174.3612         0.001563   
    715. D(H   4,H  35,O   3,H  19)   -139.2590         0.001979   
    716. D(H   4,H  35,O   3,H   5)    105.9182         0.001979   
    717. D(H   1,O  36,H  34,H  44)    173.0189         0.002219   
    718. D(H   1,O  36,H  34,H  23)    -67.1180         0.002219   
    719. D(H   1,O  36,H  34,H  38)    121.5373         0.002219   
    720. D(H   1,O  36,H  34,H  37)   -133.4185         0.002219   
    721. D(H  38,O  36,H  34,H  44)     51.4816         0.002219   
    722. D(H  38,O  36,H  34,H  23)    171.3447         0.002219   
    723. D(H  37,O  36,H  34,H  38)   -105.0442         0.002219   
    724. D(H  38,O  36,O  33,H  44)     51.5207         0.001502   
    725. D(H  37,O  36,O  33,H  23)     66.7091         0.001502   
    726. D(H  34,O  36,H   1,O   0)    -12.4673         0.001752   
    727. D(H  38,O  36,H   1,O   0)     82.7715         0.001752   
    728. D(H  37,O  36,H   1,O   0)   -110.3939         0.001752   
    729. D(H  37,O  36,O  33,H  44)    -53.4888         0.001502   
    730. D(H  38,O  36,O  33,H  35)    -66.9320         0.001502   
    731. D(H  38,O  36,O  33,H  23)    171.7186         0.001502   
    732. D(H  37,O  36,O  33,H  35)   -171.9414         0.001502   
    733. D(H   1,O  36,O  33,H  23)    -66.7313         0.001502   
    734. D(H   1,O  36,O  33,H  35)     54.6181         0.001502   
    735. D(H   1,O  36,O  33,H  44)    173.0708         0.001502   
    736. D(H  38,O  36,H  34,H  37)    105.0442         0.002219   
    737. D(H  37,O  36,H  34,H  44)    -53.5626         0.002219   
    738. D(H  37,O  36,H  34,H  23)     66.3005         0.002219   
    739. D(H  58,H  37,O  36,H   1)     85.3105         0.463787   
    740. D(H  58,H  37,O  36,H  34)    -10.4793         0.463787   
    741. D(O  57,H  37,O  36,H  34)     25.1089         0.463787   
    742. D(H  58,H  37,O  36,H  38)   -106.2746         0.463787   
    743. D(O  57,H  37,O  36,H  38)    -70.6864         0.463787   
    744. D(H  34,H  37,O  36,H   1)     95.7898         0.463787   
    745. D(H  34,H  37,O  36,H  38)    -95.7954         0.463787   
    746. D(H  58,H  37,H  34,H  38)   -144.6591         0.001550   
    747. D(H  58,H  37,H  34,O  36)    174.2032         0.001550   
    748. D(O  57,H  37,H  34,H  44)    -34.7988         0.001550   
    749. D(O  57,H  37,H  34,H  38)   -132.2533         0.001550   
    750. D(O  57,H  37,H  34,H  23)     58.0603         0.001550   
    751. D(O  57,H  37,H  34,O  36)   -173.3910         0.001550   
    752. D(O  57,H  37,H  34,O  33)      5.2464         0.001550   
    753. D(H  58,H  37,H  34,O  33)     -7.1594         0.001550   
    754. D(O  36,H  37,H  34,H  44)    138.5922         0.001550   
    755. D(O  57,H  37,O  36,H   1)    120.8987         0.463787   
    756. D(H  58,H  37,H  34,H  23)     45.6545         0.001550   
    757. D(O  36,H  37,H  34,H  23)   -128.5487         0.001550   
    758. D(O  36,H  37,H  34,H  38)     41.1377         0.001550   
    759. D(O  36,H  37,H  34,O  33)    178.6374         0.001550   
    760. D(H  58,H  37,H  34,H  44)    -47.2046         0.001550   
    761. D(O   6,H  38,O  36,H   1)   -117.4936         0.429907   
    762. D(O   6,H  38,O  36,H  37)     72.3969         0.429907   
    763. D(H  34,H  38,O  36,H   1)    -93.1499         0.429907   
    764. D(O   6,H  38,H  34,H  44)     33.5643         0.001553   
    765. D(O   6,H  38,H  34,H  23)    156.9632         0.001553   
    766. D(O   6,H  38,H  34,H  37)    133.1698         0.001553   
    767. D(O  36,H  38,H  34,H  23)    -16.8364         0.001553   
    768. D(O  36,H  38,H  34,H  37)    -40.6298         0.001553   
    769. D(O  36,H  38,H  34,O  33)   -178.8946         0.001553   
    770. D(O  36,H  38,H  34,H  44)   -140.2354         0.001553   
    771. D(H  34,H  38,O   6,H  41)    -75.2471         0.001825   
    772. D(H  34,H  38,O   6,H   8)    159.1573         0.001825   
    773. D(O   6,H  38,H  34,O  33)     -5.0950         0.001553   
    774. D(H  34,H  38,O   6,H   7)     33.1722         0.001825   
    775. D(H  34,H  38,O  36,H  37)     96.7405         0.429907   
    776. D(O  36,H  38,O   6,H  41)    -53.5854         0.001825   
    777. D(O  36,H  38,O   6,H   8)   -179.1810         0.001825   
    778. D(O  36,H  38,O   6,H   7)     54.8339         0.001825   
    779. D(O   6,H  38,O  36,H  34)    -24.3437         0.429907   
    780. D(O   6,H  38,H  34,O  36)    173.7997         0.001553   
    781. D(H  58,H  40,O  39,H  43)      3.3987         0.429907   
    782. D(O  57,H  40,O  39,H  43)    -40.5217         0.429907   
    783. D(O  57,H  40,O  39,H  41)     61.5970         0.429907   
    784. D(H  43,H  40,O  39,H  41)    102.1186         0.429907   
    785. D(H  58,H  40,O  39,H  41)    105.5173         0.429907   
    786. D(O   6,H  41,O  39,H  43)     48.0222         0.393871   
    787. D(O   6,H  41,O  39,H  40)    -55.8243         0.393871   
    788. D(H  43,H  41,O  39,H  40)   -103.8466         0.393871   
    789. D(H  43,H  41,O   6,H  38)     84.8624         0.001802   
    790. D(H  43,H  41,O   6,H   8)   -140.6415         0.001802   
    791. D(H  43,H  41,O   6,H   7)    -22.7710         0.001802   
    792. D(O  39,H  41,O   6,H  38)     41.8885         0.001802   
    793. D(O  39,H  41,O   6,H   8)    176.3846         0.001802   
    794. D(O  39,H  41,O   6,H   7)    -65.7449         0.001802   
    795. D(H  49,O  42,O  33,H  23)    126.8390         0.001501   
    796. D(H  49,O  42,O  33,H  35)     -7.1904         0.001501   
    797. D(H  17,O  42,O  33,H  23)      5.7053         0.001501   
    798. D(H  17,O  42,O  33,H  35)   -128.3241         0.001501   
    799. D(H  17,O  42,O  33,H  34)    117.8648         0.001501   
    800. D(H  43,O  42,O  33,H  35)    112.3355         0.001501   
    801. D(H  43,O  42,O  33,H  34)     -1.4755         0.001501   
    802. D(H  49,O  42,H  17,H  26)   -148.0349         0.002235   
    803. D(H  49,O  42,H  17,H  56)    -41.3602         0.002235   
    804. D(H  49,O  42,H  17,H  44)   -101.4968         0.002235   
    805. D(H  49,O  42,H  17,O  15)    -97.8695         0.002235   
    806. D(H  44,O  42,H  17,H  26)    -46.5381         0.002235   
    807. D(H  43,O  42,O  33,H  23)   -113.6350         0.001501   
    808. D(H  44,O  42,H  17,H  56)     60.1367         0.002235   
    809. D(H  44,O  42,H  17,O  15)      3.6274         0.002235   
    810. D(H  43,O  42,H  17,H  26)     65.4231         0.002235   
    811. D(H  49,O  42,O  33,H  34)   -121.0015         0.001501   
    812. D(H  43,O  42,H  17,H  56)    172.0978         0.002235   
    813. D(H  43,O  42,H  17,H  44)    111.9611         0.002235   
    814. D(H  43,O  42,H  17,O  15)    115.5885         0.002235   
    815. D(H  41,H  43,O  42,H  17)   -142.6242         0.463787   
    816. D(H  41,H  43,O  42,H  44)    -32.8451         0.463787   
    817. D(H  40,H  43,O  42,H  49)    143.7837         0.463787   
    818. D(H  40,H  43,O  42,H  44)     40.9499         0.463787   
    819. D(O  39,H  43,O  42,H  49)    113.0931         0.463787   
    820. D(O  39,H  43,O  42,H  17)    -99.5198         0.463787   
    821. D(O  39,H  43,O  42,H  44)     10.2593         0.463787   
    822. D(H  40,H  43,H  41,O   6)   -131.1397         0.001526   
    823. D(H  40,H  43,H  41,O  39)     39.1208         0.001526   
    824. D(O  39,H  43,H  41,O   6)   -170.2605         0.001526   
    825. D(O  42,H  43,H  41,O   6)    -12.0492         0.001526   
    826. D(O  42,H  43,H  41,O  39)    158.2113         0.001526   
    827. D(H  41,H  43,H  40,H  58)    141.5852         0.001522   
    828. D(H  41,H  43,H  40,O  57)    131.7991         0.001522   
    829. D(H  41,H  43,H  40,O  39)    -40.1373         0.001522   
    830. D(O  39,H  43,H  40,H  58)   -178.2775         0.001522   
    831. D(O  39,H  43,H  40,O  57)    171.9365         0.001522   
    832. D(O  42,H  43,H  40,H  58)     18.1770         0.001522   
    833. D(O  42,H  43,H  40,O  57)      8.3910         0.001522   
    834. D(O  42,H  43,H  40,O  39)   -163.5455         0.001522   
    835. D(H  40,H  43,O  42,H  17)    -68.8292         0.463787   
    836. D(H  41,H  43,O  39,H  40)    106.7532         0.002014   
    837. D(H  40,H  43,O  39,H  41)   -106.7532         0.002014   
    838. D(O  42,H  43,O  39,H  41)    -61.9326         0.002014   
    839. D(H  41,H  43,O  42,H  49)     69.9887         0.463787   
    840. D(O  42,H  43,O  39,H  40)     44.8206         0.002014   
    841. D(H  49,H  44,O  42,H  17)   -120.8026         0.495889   
    842. D(H  17,H  44,O  42,H  49)    120.8026         0.495889   
    843. D(H  17,H  44,O  42,H  43)   -120.1516         0.495889   
    844. D(H  34,H  44,O  42,H  49)   -126.7057         0.495889   
    845. D(H  34,H  44,O  42,H  43)     -7.6599         0.495889   
    846. D(H  49,H  44,H  34,H  23)    120.9892         0.001515   
    847. D(H  49,H  44,H  34,H  38)    -78.8471         0.001515   
    848. D(H  49,H  44,H  34,H  37)   -125.1843         0.001515   
    849. D(H  49,H  44,H  34,O  36)   -101.7307         0.001515   
    850. D(H  49,H  44,H  34,O  33)     78.1649         0.001515   
    851. D(H  17,H  44,H  34,H  23)    -39.8100         0.001515   
    852. D(H  17,H  44,H  34,H  37)     74.0165         0.001515   
    853. D(H  17,H  44,H  34,O  36)     97.4701         0.001515   
    854. D(H  17,H  44,H  34,O  33)    -82.6343         0.001515   
    855. D(O  33,H  44,H  34,H  38)   -157.0120         0.001515   
    856. D(O  33,H  44,H  34,H  37)    156.6508         0.001515   
    857. D(O  33,H  44,H  34,O  36)   -179.8957         0.001515   
    858. D(O  42,H  44,H  34,H  38)     29.6142         0.001515   
    859. D(O  42,H  44,H  34,H  37)    -16.7230         0.001515   
    860. D(O  42,H  44,H  34,O  36)      6.7306         0.001515   
    861. D(O  42,H  44,H  34,O  33)   -173.3738         0.001515   
    862. D(H  49,H  44,O  33,H  23)    126.3998         0.002026   
    863. D(H  49,H  44,O  33,H  35)     -7.1662         0.002026   
    864. D(H  49,H  44,O  33,H  34)   -120.7382         0.002026   
    865. D(H  17,H  44,O  33,H  23)      3.5680         0.002026   
    866. D(H  17,H  44,O  33,H  35)   -129.9980         0.002026   
    867. D(O  42,H  44,H  34,H  23)   -130.5495         0.001515   
    868. D(H  17,H  44,O  33,H  34)    116.4300         0.002026   
    869. D(H  34,H  44,O  33,H  23)   -112.8620         0.002026   
    870. D(H  34,H  44,O  33,H  35)    113.5720         0.002026   
    871. D(O  33,H  44,H  34,H  23)     42.8243         0.001515   
    872. D(H  49,H  44,H  17,H  26)   -174.5589         0.001531   
    873. D(H  49,H  44,H  17,H  56)    -81.8965         0.001531   
    874. D(H  49,H  44,H  17,O  42)     47.1117         0.001531   
    875. D(H  17,H  44,H  34,H  38)    120.3537         0.001515   
    876. D(H  49,H  44,H  17,O  15)   -131.9634         0.001531   
    877. D(H  34,H  44,H  17,H  26)     -8.2752         0.001531   
    878. D(H  34,H  44,H  17,H  56)     84.3872         0.001531   
    879. D(H  34,H  44,H  17,O  42)   -146.6046         0.001531   
    880. D(H  34,H  44,H  17,O  15)     34.3203         0.001531   
    881. D(O  33,H  44,H  17,H  26)    -38.1771         0.001531   
    882. D(O  33,H  44,H  17,H  56)     54.4854         0.001531   
    883. D(H  34,H  44,O  42,H  17)    112.4917         0.495889   
    884. D(O  33,H  44,H  17,O  42)   -176.5064         0.001531   
    885. D(O  33,H  44,H  17,O  15)      4.4184         0.001531   
    886. D(O  42,H  44,H  17,H  26)    138.3293         0.001531   
    887. D(H  49,H  44,O  42,H  43)    119.0458         0.495889   
    888. D(O  42,H  44,H  17,H  56)   -129.0082         0.001531   
    889. D(O  42,H  44,H  17,O  15)   -179.0752         0.001531   
    890. D(H   5,O  45,H  13,H  47)     99.6814         0.001752   
    891. D(H   5,O  45,H  13,O  12)     49.1556         0.001752   
    892. D(H  47,O  45,H  13,O  12)    -50.5258         0.001752   
    893. D(H  46,O  45,H  13,H  47)   -116.6332         0.001752   
    894. D(H  46,O  45,H  13,O  12)   -167.1590         0.001752   
    895. D(H  13,O  45,H   5,H  47)    -95.7679         0.001878   
    896. D(H  13,O  45,H   5,O   3)    -53.2124         0.001878   
    897. D(H  47,O  45,H   5,O   3)     42.5555         0.001878   
    898. D(H  46,O  45,H   5,H  47)    121.2228         0.001878   
    899. D(H  46,O  45,H   5,O   3)    163.7783         0.001878   
    900. D(O  45,H  47,H   2,O   0)    171.5514         0.001519   
    901. D(H  13,H  47,O   0,H   2)     -2.4788         0.002126   
    902. D(H  13,H  47,O   0,H   1)    114.2064         0.002126   
    903. D(H   5,H  47,O   0,H   2)    -79.3010         0.002126   
    904. D(H   5,H  47,O   0,H   1)     37.3842         0.002126   
    905. D(H   2,H  47,O   0,H   1)    116.6852         0.002126   
    906. D(O  45,H  47,O   0,H   2)    -31.0689         0.002126   
    907. D(O  45,H  47,H   2,O  51)     -4.4307         0.001519   
    908. D(O  45,H  47,O   0,H   1)     85.6163         0.002126   
    909. D(H  13,H  47,O  45,H   5)    -83.8220         0.495889   
    910. D(H   5,H  47,O  45,H  13)     83.8220         0.495889   
    911. D(H   5,H  47,O  45,H  46)   -139.6352         0.495889   
    912. D(H   2,H  47,O  45,H  13)      7.3801         0.495889   
    913. D(H   2,H  47,O  45,H  46)    143.9229         0.495889   
    914. D(O   0,H  47,O  45,H  13)     31.0577         0.495889   
    915. D(O   0,H  47,O  45,H   5)    -52.7643         0.495889   
    916. D(O   0,H  47,O  45,H  46)    167.6005         0.495889   
    917. D(H   5,H  47,H  13,O  45)    -60.9463         0.001518   
    918. D(H   5,H  47,H  13,O  12)     96.6254         0.001518   
    919. D(H   2,H  47,H  13,O  45)   -175.9598         0.001518   
    920. D(H   2,H  47,H  13,O  12)    -18.3880         0.001518   
    921. D(O   0,H  47,H  13,O  45)   -174.9020         0.001518   
    922. D(O   0,H  47,H  13,O  12)    -17.3303         0.001518   
    923. D(O  45,H  47,H  13,O  12)    157.5717         0.001518   
    924. D(H  13,H  47,H   5,O  45)     65.2917         0.001518   
    925. D(H  13,H  47,H   5,O   3)   -103.5069         0.001518   
    926. D(H   2,H  47,H   5,O  45)    144.6669         0.001518   
    927. D(H   2,H  47,H   5,O   3)    -24.1316         0.001518   
    928. D(O   0,H  47,H   5,O  45)    171.7249         0.001518   
    929. D(O   0,H  47,H   5,O   3)      2.9263         0.001518   
    930. D(O  45,H  47,H   5,O   3)   -168.7986         0.001518   
    931. D(H   2,H  47,O  45,H   5)    -76.4419         0.495889   
    932. D(H  13,H  47,H   2,O  51)      1.7707         0.001519   
    933. D(H  13,H  47,H   2,O   0)    177.7528         0.001519   
    934. D(H   5,H  47,H   2,O  51)    -62.9945         0.001519   
    935. D(H  13,H  47,O  45,H  46)    136.5429         0.495889   
    936. D(H   5,H  47,H   2,O   0)    112.9877         0.001519   
    937. D(O   0,H  47,H   2,O  51)   -175.9821         0.001519   
    938. D(H  50,O  48,H  20,H  49)    107.3949         0.001876   
    939. D(H  50,O  48,H  20,O  18)     47.3139         0.001876   
    940. D(H  49,O  48,H  20,H  50)   -107.3949         0.001876   
    941. D(H  49,O  48,H  20,O  18)    -60.0810         0.001876   
    942. D(H  20,H  49,O  48,H  50)   -113.4097         0.429907   
    943. D(H  44,H  49,O  48,H  50)    -56.5006         0.429907   
    944. D(O  42,H  49,O  48,H  20)     61.8661         0.429907   
    945. D(O  42,H  49,O  48,H  50)    -51.5435         0.429907   
    946. D(H  20,H  49,H  44,H  34)     13.2697         0.001534   
    947. D(H  20,H  49,H  44,O  33)     42.5866         0.001534   
    948. D(H  20,H  49,H  44,O  42)   -137.4731         0.001534   
    949. D(O  42,H  49,H  44,H  34)    150.7428         0.001534   
    950. D(O  42,H  49,H  44,O  33)   -179.9403         0.001534   
    951. D(O  48,H  49,H  44,H  17)    133.4449         0.001534   
    952. D(O  48,H  49,H  44,H  34)    -32.5127         0.001534   
    953. D(O  48,H  49,H  44,O  33)     -3.1958         0.001534   
    954. D(O  48,H  49,H  44,O  42)    176.7445         0.001534   
    955. D(H  20,H  49,O  42,H  17)    151.8461         0.001891   
    956. D(H  20,H  49,O  42,H  44)     46.7714         0.001891   
    957. D(H  20,H  49,O  42,H  43)    -61.9854         0.001891   
    958. D(H  44,H  49,O  42,H  17)    105.0746         0.001891   
    959. D(H  44,H  49,O  42,H  43)   -108.7569         0.001891   
    960. D(O  48,H  49,O  42,H  17)     97.4384         0.001891   
    961. D(O  48,H  49,O  42,H  44)     -7.6362         0.001891   
    962. D(O  48,H  49,O  42,H  43)   -116.3931         0.001891   
    963. D(O  42,H  49,H  44,H  17)    -43.2995         0.001534   
    964. D(H  44,H  49,H  20,H  50)   -109.2384         0.001534   
    965. D(H  44,H  49,H  20,O  48)   -144.2431         0.001534   
    966. D(H  44,H  49,H  20,O  18)     12.4438         0.001534   
    967. D(H  20,H  49,H  44,H  17)    179.2274         0.001534   
    968. D(O  42,H  49,H  20,H  50)   -128.5352         0.001534   
    969. D(O  42,H  49,H  20,O  48)   -163.5399         0.001534   
    970. D(O  42,H  49,H  20,O  18)     -6.8530         0.001534   
    971. D(H  44,H  49,O  48,H  20)     56.9091         0.429907   
    972. D(O  48,H  49,H  20,H  50)     35.0048         0.001534   
    973. D(O  48,H  49,H  20,O  18)    156.6869         0.001534   
    974. D(H  32,H  50,O  48,H  49)   -141.4710         0.429907   
    975. D(O  30,H  50,O  48,H  20)    -94.4177         0.429907   
    976. D(O  30,H  50,O  48,H  49)      6.1357         0.429907   
    977. D(H  20,H  50,O  48,H  49)    100.5535         0.429907   
    978. D(H  20,H  50,H  32,O  30)    -88.6182         0.001505   
    979. D(O  48,H  50,H  32,O  30)    169.9651         0.001505   
    980. D(H  32,H  50,O  30,H  55)    125.3671         0.001801   
    981. D(H  32,H  50,O  30,H  31)   -121.0150         0.001801   
    982. D(H  20,H  50,O  30,H  55)   -119.1177         0.001801   
    983. D(H  20,H  50,O  30,H  32)    115.5151         0.001801   
    984. D(H  20,H  50,O  30,H  31)     -5.4999         0.001801   
    985. D(O  48,H  50,O  30,H  55)    -31.7116         0.001801   
    986. D(O  48,H  50,O  30,H  32)   -157.0788         0.001801   
    987. D(O  48,H  50,O  30,H  31)     81.9062         0.001801   
    988. D(H  32,H  50,H  20,H  49)    159.6391         0.001507   
    989. D(H  32,H  50,H  20,O  48)   -157.4374         0.001507   
    990. D(H  32,H  50,H  20,O  18)     43.2539         0.001507   
    991. D(O  30,H  50,H  20,H  49)    127.0007         0.001507   
    992. D(O  30,H  50,H  20,O  48)    169.9242         0.001507   
    993. D(O  30,H  50,H  20,O  18)     10.6155         0.001507   
    994. D(O  48,H  50,H  20,H  49)    -42.9236         0.001507   
    995. D(H  32,H  50,O  48,H  20)    117.9755         0.429907   
    996. D(O  48,H  50,H  20,O  18)   -159.3087         0.001507   
    997. D(H   2,O  51,H  14,H  53)    109.1041         0.001798   
    998. D(H   2,O  51,H  14,H  10)     99.8775         0.001798   
    999. D(H   2,O  51,H  14,O  12)     42.3772         0.001798   
   1000. D(H  53,O  51,H  14,H  10)     -9.2267         0.001798   
   1001. D(H  53,O  51,H  14,O  12)    -66.7269         0.001798   
   1002. D(H  52,O  51,H  14,H  53)   -118.1932         0.001798   
   1003. D(H  52,O  51,H  14,H  10)   -127.4198         0.001798   
   1004. D(H  52,O  51,H  14,O  12)    175.0799         0.001798   
   1005. D(H  14,O  51,H   2,H  47)     -0.5696         0.001796   
   1006. D(H  14,O  51,H   2,O   0)    -16.9405         0.001796   
   1007. D(H  53,O  51,H   2,H  47)    103.2808         0.001796   
   1008. D(H  53,O  51,H   2,O   0)     86.9099         0.001796   
   1009. D(H  52,O  51,H   2,H  47)   -136.0577         0.001796   
   1010. D(H  52,O  51,H   2,O   0)   -152.4286         0.001796   
   1011. D(H  14,H  53,O  51,H  52)    132.2886         0.495889   
   1012. D(H  23,H  53,O  51,H  14)     62.4063         0.495889   
   1013. D(H  23,H  53,O  51,H   2)    -34.4912         0.495889   
   1014. D(H  22,H  53,O  51,H  14)    -26.4248         0.495889   
   1015. D(H  22,H  53,O  51,H   2)   -123.3222         0.495889   
   1016. D(H  22,H  53,O  51,H  52)    105.8639         0.495889   
   1017. D(O  21,H  53,O  51,H   2)    -53.7075         0.495889   
   1018. D(O  21,H  53,O  51,H  52)    175.4786         0.495889   
   1019. D(H  14,H  53,H  23,H  25)   -169.8874         0.001540   
   1020. D(H  14,H  53,H  23,H  34)     79.9701         0.001540   
   1021. D(H  14,H  53,H  23,O  33)     58.3289         0.001540   
   1022. D(H  14,H  53,H  23,O  21)   -127.0813         0.001540   
   1023. D(H  22,H  53,H  23,H  25)    -78.4068         0.001540   
   1024. D(H  22,H  53,H  23,O  33)    149.8094         0.001540   
   1025. D(H  22,H  53,H  23,O  21)    -35.6008         0.001540   
   1026. D(O  21,H  53,H  23,H  25)    -42.8061         0.001540   
   1027. D(O  21,H  53,H  23,O  33)   -174.5898         0.001540   
   1028. D(O  51,H  53,H  23,H  25)    142.2093         0.001540   
   1029. D(O  51,H  53,H  23,H  34)     32.0668         0.001540   
   1030. D(O  51,H  53,H  23,O  21)   -174.9846         0.001540   
   1031. D(H  14,H  53,H  22,H  29)      1.4928         0.001511   
   1032. D(H  14,H  53,H  22,O  27)    -23.7956         0.001511   
   1033. D(H  14,H  53,H  22,O  21)    141.9779         0.001511   
   1034. D(H  23,H  53,H  22,H  29)    -98.8411         0.001511   
   1035. D(H  23,H  53,H  22,O  27)   -124.1294         0.001511   
   1036. D(H  23,H  53,H  22,O  21)     41.6440         0.001511   
[...]
   4 H     1.0000    0     1.008          4.099165734988061          2.939833529485740          0.504865677904518
   5 H     1.0000    0     1.008          5.876460817331840          0.701378071803853          0.627527083161416
   6 O     8.0000    0    15.999          2.277215309161303         -5.057876885133414         -5.156311226565726
   7 H     1.0000    0     1.008          2.888561347739360         -3.359257772478029         -5.269768380536656
   8 H     1.0000    0     1.008          3.323711438083869         -5.993647043471882         -6.296970424529146
   9 O     8.0000    0    15.999          2.232357727187473          5.078530798092197          2.545304179533765
  10 H     1.0000    0     1.008          3.221608968150263          4.329835949210135          3.861648117016985
  11 H     1.0000    0     1.008          0.575675133437148          5.232826143241891          3.254895001115640
  12 O     8.0000    0    15.999          4.755605571306687          2.194356317291906          5.963539038534967
  13 H     1.0000    0     1.008          6.052101072698448          1.235766789920532          5.143704372197543
  14 H     1.0000    0     1.008          3.587253513994547          0.952846649650387          6.568130269944583
  15 O     8.0000    0    15.999         -6.963093009688111          1.887333759532969         -1.996558474984494
  16 H     1.0000    0     1.008         -8.346373824732238          2.049862169016624         -3.150699753975024
  17 H     1.0000    0     1.008         -5.600206931663499          1.260835972402177         -3.007481529888104
  18 O     8.0000    0    15.999          4.025241972992206         -0.260867773280477         -5.325265895432178
  19 H     1.0000    0     1.008          4.595114248800877          0.393038904052890         -3.737948968653645
  20 H     1.0000    0     1.008          2.952470411602192          1.034655180556460         -5.990626524116684
  21 O     8.0000    0    15.999         -2.490614276896097          0.056076167934990          4.128789233041501
  22 H     1.0000    0     1.008         -2.693669658561521          1.837750898464007          4.366122470433690
  23 H     1.0000    0     1.008         -1.572210834009194         -0.093048621950637          2.577589602511231
  24 O     8.0000    0    15.999         -6.234103374553819         -2.155082422509541          1.259729651134334
  25 H     1.0000    0     1.008         -5.143125681363552         -1.424515225101391          2.503901111419049
  26 H     1.0000    0     1.008         -6.721086215005077         -0.764262469465089          0.210734453885965
  27 O     8.0000    0    15.999         -2.642692481961907          5.231952409466611          4.370633208920838
  28 H     1.0000    0     1.008         -3.315511122703808          6.411323119714942          5.565757961235307
  29 H     1.0000    0     1.008         -3.483969492795708          5.628577919235377          2.819225935282973
  30 O     8.0000    0    15.999          0.284343217432556          6.558399351985091         -2.133156062458482
  31 H     1.0000    0     1.008          1.134921252427644          6.106216838742108         -0.602152691011882
  32 H     1.0000    0     1.008          0.876390843607691          8.226632783345442         -2.505177829292388
  33 O     8.0000    0    15.999          0.033972022449252         -0.618767805688203         -0.251160061157910
  34 H     1.0000    0     1.008          0.379065078491212         -2.393678204829064         -0.200888678372054
  35 H     1.0000    0     1.008          1.663235729345753          0.156576225696076         -0.378693312668886
  36 O     8.0000    0    15.999          0.987608331959220         -5.621192000229991         -0.147588688203146
  37 H     1.0000    0     1.008         -0.745035450915507         -6.124670902611132         -0.275564834828129
  38 H     1.0000    0     1.008          1.600619597206488         -5.669050977530545         -1.848720683082374
  39 O     8.0000    0    15.999         -2.912940024291669         -4.790255514109223         -5.775439138466009
  40 H     1.0000    0     1.008         -3.457704945150790         -5.467445677213985         -4.189069701473762
  41 H     1.0000    0     1.008         -1.117270133192923         -5.008086248676028         -5.768898890802814
  42 O     8.0000    0    15.999         -2.891743249706395          0.120012349367844         -4.429153756507317
  43 H     1.0000    0     1.008         -3.026950433382828         -1.534638467535073         -5.147327147271621
  44 H     1.0000    0     1.008         -1.818120366693049         -0.096752258405986         -2.989615510997434
  45 O     8.0000    0    15.999          7.665920501436683         -0.975705495062229          2.972591535174777
  46 H     1.0000    0     1.008          9.335285878751252         -1.672181220432203          2.980602443304435
  47 H     1.0000    0     1.008          6.581187483845002         -2.394548442610997          3.259231242291581
  48 O     8.0000    0    15.999          0.569056046399646          3.424107428626759         -6.358224290892990
  49 H     1.0000    0     1.008         -0.802305264362989          2.300209175505414         -6.000251919768857
  50 H     1.0000    0     1.008          0.578041278426692          4.584889224149149         -4.970986653886090
  51 O     8.0000    0    15.999          1.336374391995899         -1.646487200004377          7.049051624848673
  52 H     1.0000    0     1.008          0.667684028068901         -2.180976640523995          8.642506230932092
  53 H     1.0000    0     1.008         -0.107987455059863         -1.083524329859163          6.116949141477225
  54 O     8.0000    0    15.999         -4.594509158492795          6.169379498576563         -0.185862199764736
  55 H     1.0000    0     1.008         -3.082917583017152          6.283363791652550         -1.172787660288203
  56 H     1.0000    0     1.008         -5.481587915168718          4.752554910819653         -0.876964696742779
  57 O     8.0000    0    15.999         -4.120406237836074         -6.285479699107442         -0.901081778506370
  58 H     1.0000    0     1.008         -4.914333552562415         -4.845312836199109         -0.147741113513108
  59 H     1.0000    0     1.008         -5.240204163192036         -7.660013217542045         -0.542426535946484

--------------------------------
INTERNAL COORDINATES (ANGSTROEM)
--------------------------------
 O      0   0   0   0.000000     0.000     0.000
 H      1   0   0   0.957200     0.000     0.000
 H      1   2   0   0.957200   104.520     0.000
 O      2   1   3   3.988348    83.152    90.186
 H      4   2   1   0.957200   114.350   295.387
 H      4   2   1   0.957200    58.811    28.124
 O      2   1   3   4.099852   141.822   128.249
 H      7   2   1   0.957200    92.393   322.694
 H      7   2   1   0.957200   123.525    71.883
 O      5   4   2   1.850032   164.734   323.953
 H     10   5   4   0.957200    83.079    90.672
 H     10   5   4   0.957200   140.371   346.230
 O     11  10   5   1.781321   165.061   306.036
 H     13  11  10   0.957200   112.322    68.998
 H     13  11  10   0.957200   110.473   312.729
 O     12  10   5   5.174128   117.793   326.444
 H     16  12  10   0.957200   154.365   264.395
 H     16  12  10   0.957200    80.662     8.555
 O      8   7   2   1.746697   177.344     1.209
 H     19   8   7   0.957200   115.663     3.351
 H     19   8   7   0.957200   118.311   238.268
 O     12  10   5   3.217317   116.466    26.509
 H     22  12  10   0.957200    40.253   179.615
 H     22  12  10   0.957200    71.993   321.980
 O     22  12  10   2.756522   130.143   260.020
 H     25  22  12   0.957200    10.351   231.767
 H     25  22  12   0.957200   100.749   344.160
 O     23  22  12   1.796338   169.532    22.771
 H     28  23  22   0.957200   130.332   194.313
 H     28  23  22   0.957200   102.188    72.990
 O     10   5   4   2.793773    81.449   268.008
 H     31  10   5   0.957200     6.474   301.212
 H     31  10   5   0.957200   108.663   250.226
 O     24  22  12   1.743719   175.431   170.704
 H     34  24  22   0.957200   103.043   336.253
 H     34  24  22   0.957200   115.543   222.928
 O     35  34  24   1.738249   179.262   126.504
 H     37  35  34   0.957200    95.445   300.274
 H     37  35  34   0.957200    94.216    45.318
 O      7   2   1   2.769607   103.263   215.387
 H     40   7   2   0.957200   100.123   337.440
 H     40   7   2   0.957200     7.683   211.885
 O     18  16  12   1.727616   171.682    28.332
 H     43  18  16   0.957200   115.501   115.589
 H     43  18  16   0.957200   100.820     3.627
 O      6   4   2   1.795627   171.087   316.909
 H     46   6   4   0.957200   132.848   163.778
 H     46   6   4   0.957200   100.425    42.555
 O     21  19   8   1.796498   163.801    81.881
 H     49  21  19   0.957200    94.216   299.919
 H     49  21  19   0.957200   111.416    47.314
 O      3   1   2   1.827971   168.880   250.940
 H     52   3   1   0.957200   121.599   207.571
 H     52   3   1   0.957200   108.042    86.910
 O     30  28  23   1.719323   171.396   289.442
 H     55  30  28   0.957200   103.267   336.757
 H     55  30  28   0.957200   112.994    89.083
 O     38  37  35   1.818573   165.174    25.109
 H     58  38  37   0.957200   108.544   304.697
 H     58  38  37   0.957200   127.409   178.577

---------------------------
INTERNAL COORDINATES (A.U.)
---------------------------
 O      0   0   0   0.000000     0.000     0.000
 H      1   0   0   1.808846     0.000     0.000
 H      1   2   0   1.808846   104.520     0.000
 O      2   1   3   7.536885    83.152    90.186
 H      4   2   1   1.808846   114.350   295.387
 H      4   2   1   1.808846    58.811    28.124
 O      2   1   3   7.747598   141.822   128.249
 H      7   2   1   1.808846    92.393   322.694
 H      7   2   1   1.808846   123.525    71.883
 O      5   4   2   3.496053   164.734   323.953
 H     10   5   4   1.808846    83.079    90.672
 H     10   5   4   1.808846   140.371   346.230
 O     11  10   5   3.366209   165.061   306.036
 H     13  11  10   1.808846   112.322    68.998
 H     13  11  10   1.808846   110.473   312.729
 O     12  10   5   9.777684   117.793   326.444
 H     16  12  10   1.808846   154.365   264.395
 H     16  12  10   1.808846    80.662     8.555
 O      8   7   2   3.300779   177.344     1.209
 H     19   8   7   1.808846   115.663     3.351
 H     19   8   7   1.808846   118.311   238.268
 O     12  10   5   6.079849   116.466    26.509
 H     22  12  10   1.808846    40.253   179.615
 H     22  12  10   1.808846    71.993   321.980
 O     22  12  10   5.209072   130.143   260.020
 H     25  22  12   1.808846    10.351   231.767
 H     25  22  12   1.808846   100.749   344.160
 O     23  22  12   3.394587   169.532    22.771
 H     28  23  22   1.808846   130.332   194.313
 H     28  23  22   1.808846   102.188    72.990
 O     10   5   4   5.279466    81.449   268.008
 H     31  10   5   1.808846     6.474   301.212
 H     31  10   5   1.808846   108.663   250.226
 O     24  22  12   3.295152   175.431   170.704
 H     34  24  22   1.808846   103.043   336.253
 H     34  24  22   1.808846   115.543   222.928
 O     35  34  24   3.284815   179.262   126.504
 H     37  35  34   1.808846    95.445   300.274
 H     37  35  34   1.808846    94.216    45.318
 O      7   2   1   5.233799   103.263   215.387
 H     40   7   2   1.808846   100.123   337.440
 H     40   7   2   1.808846     7.683   211.885
 O     18  16  12   3.264721   171.682    28.332
 H     43  18  16   1.808846   115.501   115.589
 H     43  18  16   1.808846   100.820     3.627
 O      6   4   2   3.393244   171.087   316.909
 H     46   6   4   1.808846   132.848   163.778
 H     46   6   4   1.808846   100.425    42.555
 O     21  19   8   3.394889   163.801    81.881
 H     49  21  19   1.808846    94.216   299.919
 H     49  21  19   1.808846   111.416    47.314
 O      3   1   2   3.454365   168.880   250.940
 H     52   3   1   1.808846   121.599   207.571
 H     52   3   1   1.808846   108.042    86.910
 O     30  28  23   3.249049   171.396   289.442
 H     55  30  28   1.808846   103.267   336.757
 H     55  30  28   1.808846   112.994    89.083
 O     38  37  35   3.436606   165.174    25.109
 H     58  38  37   1.808846   108.544   304.697
 H     58  38  37   1.808846   127.409   178.577

---------------------
BASIS SET INFORMATION
---------------------
There are 2 groups of distinct atoms

 Group   1 Type O   : 7s4p1d contracted to 3s2p1d pattern {511/31/1}
 Group   2 Type H   : 4s1p contracted to 2s1p pattern {31/1}

Atom   0O    basis set group =>   1
Atom   1H    basis set group =>   2
Atom   2H    basis set group =>   2
Atom   3O    basis set group =>   1
Atom   4H    basis set group =>   2
Atom   5H    basis set group =>   2
Atom   6O    basis set group =>   1
Atom   7H    basis set group =>   2
Atom   8H    basis set group =>   2
Atom   9O    basis set group =>   1
Atom  10H    basis set group =>   2
Atom  11H    basis set group =>   2
Atom  12O    basis set group =>   1
Atom  13H    basis set group =>   2
Atom  14H    basis set group =>   2
Atom  15O    basis set group =>   1
Atom  16H    basis set group =>   2
Atom  17H    basis set group =>   2
Atom  18O    basis set group =>   1
Atom  19H    basis set group =>   2
Atom  20H    basis set group =>   2
Atom  21O    basis set group =>   1
Atom  22H    basis set group =>   2
Atom  23H    basis set group =>   2
Atom  24O    basis set group =>   1
Atom  25H    basis set group =>   2
Atom  26H    basis set group =>   2
Atom  27O    basis set group =>   1
Atom  28H    basis set group =>   2
Atom  29H    basis set group =>   2
Atom  30O    basis set group =>   1
Atom  31H    basis set group =>   2
Atom  32H    basis set group =>   2
Atom  33O    basis set group =>   1
Atom  34H    basis set group =>   2
Atom  35H    basis set group =>   2
Atom  36O    basis set group =>   1
Atom  37H    basis set group =>   2
Atom  38H    basis set group =>   2
Atom  39O    basis set group =>   1
Atom  40H    basis set group =>   2
Atom  41H    basis set group =>   2
Atom  42O    basis set group =>   1
Atom  43H    basis set group =>   2
Atom  44H    basis set group =>   2
Atom  45O    basis set group =>   1
Atom  46H    basis set group =>   2
Atom  47H    basis set group =>   2
Atom  48O    basis set group =>   1
Atom  49H    basis set group =>   2
Atom  50H    basis set group =>   2
Atom  51O    basis set group =>   1
Atom  52H    basis set group =>   2
Atom  53H    basis set group =>   2
Atom  54O    basis set group =>   1
Atom  55H    basis set group =>   2
Atom  56H    basis set group =>   2
Atom  57O    basis set group =>   1
Atom  58H    basis set group =>   2
Atom  59H    basis set group =>   2
-------------------------------
AUXILIARY BASIS SET INFORMATION
-------------------------------
There are 2 groups of distinct atoms

 Group   1 Type O   : 12s5p4d2f1g contracted to 6s4p3d1f1g pattern {711111/2111/211/2/1}
 Group   2 Type H   : 5s2p1d contracted to 3s1p1d pattern {311/2/1}

Atom   0O    basis set group =>   1
Atom   1H    basis set group =>   2
Atom   2H    basis set group =>   2
Atom   3O    basis set group =>   1
Atom   4H    basis set group =>   2
Atom   5H    basis set group =>   2
Atom   6O    basis set group =>   1
Atom   7H    basis set group =>   2
Atom   8H    basis set group =>   2
Atom   9O    basis set group =>   1
Atom  10H    basis set group =>   2
Atom  11H    basis set group =>   2
Atom  12O    basis set group =>   1
Atom  13H    basis set group =>   2
Atom  14H    basis set group =>   2
Atom  15O    basis set group =>   1
Atom  16H    basis set group =>   2
Atom  17H    basis set group =>   2
Atom  18O    basis set group =>   1
Atom  19H    basis set group =>   2
Atom  20H    basis set group =>   2
Atom  21O    basis set group =>   1
Atom  22H    basis set group =>   2
Atom  23H    basis set group =>   2
Atom  24O    basis set group =>   1
Atom  25H    basis set group =>   2
Atom  26H    basis set group =>   2
Atom  27O    basis set group =>   1
Atom  28H    basis set group =>   2
Atom  29H    basis set group =>   2
Atom  30O    basis set group =>   1
Atom  31H    basis set group =>   2
Atom  32H    basis set group =>   2
Atom  33O    basis set group =>   1
Atom  34H    basis set group =>   2
Atom  35H    basis set group =>   2
Atom  36O    basis set group =>   1
Atom  37H    basis set group =>   2
Atom  38H    basis set group =>   2
Atom  39O    basis set group =>   1
Atom  40H    basis set group =>   2
Atom  41H    basis set group =>   2
Atom  42O    basis set group =>   1
Atom  43H    basis set group =>   2
Atom  44H    basis set group =>   2
Atom  45O    basis set group =>   1
Atom  46H    basis set group =>   2
Atom  47H    basis set group =>   2
Atom  48O    basis set group =>   1
Atom  49H    basis set group =>   2
Atom  50H    basis set group =>   2
Atom  51O    basis set group =>   1
Atom  52H    basis set group =>   2
Atom  53H    basis set group =>   2
Atom  54O    basis set group =>   1
Atom  55H    basis set group =>   2
Atom  56H    basis set group =>   2
Atom  57O    basis set group =>   1
Atom  58H    basis set group =>   2
Atom  59H    basis set group =>   2
-------------------------------------------------------
Primary job  terminated normally, but 1 process returned
a non-zero exit code.. Per user-direction, the job has been aborted.
-------------------------------------------------------
/ihome/crc/install/orca/3.0.3/orca_gtoint_mpi: error while loading shared libraries: libmpi.so.1: cannot open shared object file: No such file or directory
/ihome/crc/install/orca/3.0.3/orca_gtoint_mpi: error while loading shared libraries: libmpi.so.1: cannot open shared object file: No such file or directory
/ihome/crc/install/orca/3.0.3/orca_gtoint_mpi: error while loading shared libraries: libmpi.so.1: cannot open shared object file: No such file or directory
/ihome/crc/install/orca/3.0.3/orca_gtoint_mpi: error while loading shared libraries: libmpi.so.1: cannot open shared object file: No such file or directory
/ihome/crc/install/orca/3.0.3/orca_gtoint_mpi: error while loading shared libraries: libmpi.so.1: cannot open shared object file: No such file or directory
/ihome/crc/install/orca/3.0.3/orca_gtoint_mpi: error while loading shared libraries: libmpi.so.1: cannot open shared object file: No such file or directory
/ihome/crc/install/orca/3.0.3/orca_gtoint_mpi: error while loading shared libraries: libmpi.so.1: cannot open shared object file: No such file or directory
/ihome/crc/install/orca/3.0.3/orca_gtoint_mpi: error while loading shared libraries: libmpi.so.1: cannot open shared object file: No such file or directory
/ihome/crc/install/orca/3.0.3/orca_gtoint_mpi: error while loading shared libraries: libmpi.so.1: cannot open shared object file: No such file or directory
/ihome/crc/install/orca/3.0.3/orca_gtoint_mpi: error while loading shared libraries: libmpi.so.1: cannot open shared object file: No such file or directory
/ihome/crc/install/orca/3.0.3/orca_gtoint_mpi: error while loading shared libraries: libmpi.so.1: cannot open shared object file: No such file or directory
/ihome/crc/install/orca/3.0.3/orca_gtoint_mpi: error while loading shared libraries: libmpi.so.1: cannot open shared object file: No such file or directory
--------------------------------------------------------------------------
mpirun detected that one or more processes exited with non-zero status, thus causing
the job to be terminated. The first process to do so was:

  Process name: [[41382,1],0]
  Exit code:    127
--------------------------------------------------------------------------
ORCA finished by error termination in ORCA_GTOInt
ORCA finished by error termination in ORCA_GTOInt
cp: cannot stat ‘/scratch/slurm-1318629/*.{prop}’: No such file or directory
