
                                 *****************
                                 * O   R   C   A *
                                 *****************

           --- An Ab Initio, DFT and Semiempirical electronic structure package ---

                  #######################################################
                  #                        -***-                        #
                  #          Department of theory and spectroscopy      #
                  #               Directorship: Frank Neese             #
                  #        Max Planck Institute fuer Kohlenforschung    #
                  #                Kaiser Wilhelm Platz 1               #
                  #                 D-45470 Muelheim/Ruhr               #
                  #                      Germany                        #
                  #                                                     #
                  #                  All rights reserved                #
                  #                        -***-                        #
                  #######################################################


                         Program Version 4.2.0 -  RELEASE  -


 With contributions from (in alphabetic order):
   Daniel Aravena         : Magnetic Suceptibility
   Michael Atanasov       : Ab Initio Ligand Field Theory (pilot matlab implementation)
   Alexander A. Auer      : GIAO ZORA, VPT2
   Ute Becker             : Parallelization
   Giovanni Bistoni       : ED, misc. LED, open-shell LED, HFLED
   Martin Brehm           : Molecular dynamics
   Dmytro Bykov           : SCF Hessian
   Vijay G. Chilkuri      : MRCI spin determinant printing, contributions to CSF-ICE
   Dipayan Datta          : RHF DLPNO-CCSD density
   Achintya Kumar Dutta   : EOM-CC, STEOM-CC
   Dmitry Ganyushin       : Spin-Orbit,Spin-Spin,Magnetic field MRCI
   Miquel Garcia          : C-PCM Hessian, Gaussian charge scheme
   Yang Guo               : DLPNO-NEVPT2, CIM, IAO-localization
   Andreas Hansen         : Spin unrestricted coupled pair/coupled cluster methods
   Benjamin Helmich-Paris : CASSCF linear response (MC-RPA)
   Lee Huntington         : MR-EOM, pCC
   Robert Izsak           : Overlap fitted RIJCOSX, COSX-SCS-MP3, EOM
   Christian Kollmar      : KDIIS, OOCD, Brueckner-CCSD(T), CCSD density
   Simone Kossmann        : Meta GGA functionals, TD-DFT gradient, OOMP2, MP2 Hessian
   Martin Krupicka        : AUTO-CI
   Lucas Lang             : DCDCAS
   Dagmar Lenk            : GEPOL surface, SMD
   Dimitrios Liakos       : Extrapolation schemes; Compound Job, initial MDCI parallelization
   Dimitrios Manganas     : Further ROCIS development; embedding schemes
   Dimitrios Pantazis     : SARC Basis sets
   Taras Petrenko         : DFT Hessian,TD-DFT gradient, ASA, ECA, R-Raman, ABS, FL, XAS/XES, NRVS
   Peter Pinski           : DLPNO-MP2, DLPNO-MP2 Gradient
   Christoph Reimann      : Effective Core Potentials
   Marius Retegan         : Local ZFS, SOC
   Christoph Riplinger    : Optimizer, TS searches, QM/MM, DLPNO-CCSD(T), (RO)-DLPNO pert. Triples
   Tobias Risthaus        : Range-separated hybrids, TD-DFT gradient, RPA, STAB
   Michael Roemelt        : Original ROCIS implementation
   Masaaki Saitow         : Open-shell DLPNO-CCSD energy and density
   Barbara Sandhoefer     : DKH picture change effects
   Avijit Sen             : IP-ROCIS
   Kantharuban Sivalingam : CASSCF convergence, NEVPT2, FIC-MRCI
   Bernardo de Souza      : ESD, SOC TD-DFT
   Georgi Stoychev        : AutoAux, RI-MP2 NMR
   Willem Van den Heuvel  : Paramagnetic NMR
   Boris Wezisla          : Elementary symmetry handling
   Frank Wennmohs         : Technical directorship


 We gratefully acknowledge several colleagues who have allowed us to
 interface, adapt or use parts of their codes:
   Stefan Grimme, W. Hujo, H. Kruse,             : VdW corrections, initial TS optimization,
                  C. Bannwarth                     DFT functionals, gCP, sTDA/sTD-DF
   Ed Valeev, F. Pavosevic, A. Kumar             : LibInt (2-el integral package), F12 methods
   Garnet Chan, S. Sharma, J. Yang, R. Olivares  : DMRG
   Ulf Ekstrom                                   : XCFun DFT Library
   Mihaly Kallay                                 : mrcc  (arbitrary order and MRCC methods)
   Andreas Klamt, Michael Diedenhofen            : otool_cosmo (COSMO solvation model)
   Jiri Pittner, Ondrej Demel                    : Mk-CCSD
   Frank Weinhold                                : gennbo (NPA and NBO analysis)
   Christopher J. Cramer and Donald G. Truhlar   : smd solvation model
   Lars Goerigk                                  : TD-DFT with DH, B97 family of functionals
   V. Asgeirsson, H. Jonsson                     : NEB implementation
   FAccTs GmbH                                   : IRC, NEB, NEB-TS, Multilevel, MM, QM/MM, CI optimization
   S Lehtola, MJT Oliveira, MAL Marques          : LibXC Library


 Your calculation uses the libint2 library for the computation of 2-el integrals
 For citations please refer to: http://libint.valeyev.net

 Your ORCA version has been built with support for libXC version: 4.2.3
 For citations please refer to: https://tddft.org/programs/libxc/

 This ORCA versions uses:
   CBLAS   interface :  Fast vector & matrix operations
   LAPACKE interface :  Fast linear algebra routines
   SCALAPACK package :  Parallel linear algebra routines


----- Orbital basis set information -----
Your calculation utilizes the basis: def2-TZVP
   F. Weigend and R. Ahlrichs, Phys. Chem. Chem. Phys. 7, 3297 (2005).

================================================================================
                                        WARNINGS
                       Please study these warnings very carefully!
================================================================================


WARNING: The frozen-core approximation for MP2-gradient calculations is turned on by default.

INFO   : the flag for use of LIBINT has been found!

================================================================================
                                       INPUT FILE
================================================================================
NAME = 12h2o.su.etal.mol0,1,2,5,8-orca.engrad-mp2.def2tzvp.frozencore.inp
|  1> # 12h2o.su.etal.mol0,1,2,5,8
|  2> ! MP2 def2-TZVP EnGrad TightSCF
|  3> 
|  4> %pal
|  5>     nprocs 6
|  6> end
|  7> 
|  8> %maxcore 8000
|  9> 
| 10> %scf
| 11>     ConvForced true
| 12> end
| 13> 
| 14> *xyz 0 1
| 15> O   1.794470000   0.923410000   2.768350000
| 16> H   2.338250000   1.359750000   3.430940000
| 17> H   0.879480000   1.303000000   2.865760000
| 18> O  -1.794470000  -0.923410000   2.768350000
| 19> H  -2.338250000  -1.359750000   3.430940000
| 20> H  -0.879480000  -1.303000000   2.865760000
| 21> O   0.923410000  -1.794470000  -2.768350000
| 22> H   1.359750000  -2.338250000  -3.430940000
| 23> H   1.303000000  -0.879480000  -2.865760000
| 24> O   0.885520000  -1.737840000   0.052730000
| 25> H   1.284090000  -0.839590000   0.017130000
| 26> H   1.032320000  -2.090180000  -0.841890000
| 27> O   1.752130000   0.741530000  -2.896280000
| 28> H   2.036450000   0.920500000  -1.984040000
| 29> H   0.921210000   1.242140000  -2.984230000
| 30> *
| 31> 
| 32>                          ****END OF INPUT****
================================================================================

                     *******************************
                     * Energy+Gradient Calculation *
                     *******************************

---------------------------------
CARTESIAN COORDINATES (ANGSTROEM)
---------------------------------
  O      1.794470    0.923410    2.768350
  H      2.338250    1.359750    3.430940
  H      0.879480    1.303000    2.865760
  O     -1.794470   -0.923410    2.768350
  H     -2.338250   -1.359750    3.430940
  H     -0.879480   -1.303000    2.865760
  O      0.923410   -1.794470   -2.768350
  H      1.359750   -2.338250   -3.430940
  H      1.303000   -0.879480   -2.865760
  O      0.885520   -1.737840    0.052730
  H      1.284090   -0.839590    0.017130
  H      1.032320   -2.090180   -0.841890
  O      1.752130    0.741530   -2.896280
  H      2.036450    0.920500   -1.984040
  H      0.921210    1.242140   -2.984230

----------------------------
CARTESIAN COORDINATES (A.U.)
----------------------------
  NO LB      ZA    FRAG     MASS         X           Y           Z
   0 O     8.0000    0    15.999    3.391057    1.744992    5.231423
   1 H     1.0000    0     1.008    4.418652    2.569555    6.483537
   2 H     1.0000    0     1.008    1.661976    2.462313    5.415502
   3 O     8.0000    0    15.999   -3.391057   -1.744992    5.231423
   4 H     1.0000    0     1.008   -4.418652   -2.569555    6.483537
   5 H     1.0000    0     1.008   -1.661976   -2.462313    5.415502
   6 O     8.0000    0    15.999    1.744992   -3.391057   -5.231423
   7 H     1.0000    0     1.008    2.569555   -4.418652   -6.483537
   8 H     1.0000    0     1.008    2.462313   -1.661976   -5.415502
   9 O     8.0000    0    15.999    1.673390   -3.284042    0.099645
  10 H     1.0000    0     1.008    2.426578   -1.586595    0.032371
  11 H     1.0000    0     1.008    1.950802   -3.949868   -1.590942
  12 O     8.0000    0    15.999    3.311046    1.401289   -5.473176
  13 H     1.0000    0     1.008    3.848333    1.739493   -3.749292
  14 H     1.0000    0     1.008    1.740835    2.347304   -5.639377

--------------------------------
INTERNAL COORDINATES (ANGSTROEM)
--------------------------------
 O      0   0   0     0.000000000000     0.00000000     0.00000000
 H      1   0   0     0.961828878803     0.00000000     0.00000000
 H      1   2   0     0.995381322057   106.21731035     0.00000000
 O      3   1   2     3.480861789658   117.35405144   223.81249033
 H      4   3   1     0.961828878803   134.84484566    98.22461471
 H      4   3   1     0.995381322057    62.29205096    12.66575463
 O      6   4   3     5.935920367146   102.58474291   273.48279218
 H      7   6   4     0.961828878803   146.97742434   224.01286022
 H      7   6   4     0.995381322057    97.62005672    87.72090689
 O      7   6   4     2.821902722526    17.32744736   169.52589616
 H     10   7   6     0.983350632989    88.66470709   258.45499027
 H     10   7   6     0.972645187106    21.75017499   124.29821266
 O      9   7   6     1.682356278379   171.61043709   321.17145860
 H     13   9   7     0.972136791249   103.79460456    70.64587838
 H     13   9   7     0.974050112161   105.61118924   321.69395179

---------------------------
INTERNAL COORDINATES (A.U.)
---------------------------
 O      0   0   0     0.000000000000     0.00000000     0.00000000
 H      1   0   0     1.817593168635     0.00000000     0.00000000
 H      1   2   0     1.880998097508   106.21731035     0.00000000
 O      3   1   2     6.577875492484   117.35405144   223.81249033
 H      4   3   1     1.817593168635   134.84484566    98.22461471
 H      4   3   1     1.880998097508    62.29205096    12.66575463
 O      6   4   3    11.217263846671   102.58474291   273.48279218
 H      7   6   4     1.817593168635   146.97742434   224.01286022
 H      7   6   4     1.880998097508    97.62005672    87.72090689
 O      7   6   4     5.332623322141    17.32744736   169.52589616
 H     10   7   6     1.858263389967    88.66470709   258.45499027
 H     10   7   6     1.838033029106    21.75017499   124.29821266
 O      9   7   6     3.179192625819   171.61043709   321.17145860
 H     13   9   7     1.837072300170   103.79460456    70.64587838
 H     13   9   7     1.840687952699   105.61118924   321.69395179

---------------------
BASIS SET INFORMATION
---------------------
There are 2 groups of distinct atoms

 Group   1 Type O   : 11s6p2d1f contracted to 5s3p2d1f pattern {62111/411/11/1}
 Group   2 Type H   : 5s1p contracted to 3s1p pattern {311/1}

Atom   0O    basis set group =>   1
Atom   1H    basis set group =>   2
Atom   2H    basis set group =>   2
Atom   3O    basis set group =>   1
Atom   4H    basis set group =>   2
Atom   5H    basis set group =>   2
Atom   6O    basis set group =>   1
Atom   7H    basis set group =>   2
Atom   8H    basis set group =>   2
Atom   9O    basis set group =>   1
Atom  10H    basis set group =>   2
Atom  11H    basis set group =>   2
Atom  12O    basis set group =>   1
Atom  13H    basis set group =>   2
Atom  14H    basis set group =>   2


           ************************************************************
           *        Program running with 6 parallel MPI-processes     *
           *              working on a common directory               *
           ************************************************************
------------------------------------------------------------------------------
                           ORCA GTO INTEGRAL CALCULATION
------------------------------------------------------------------------------

                         BASIS SET STATISTICS AND STARTUP INFO

 # of primitive gaussian shells          ...  160
 # of primitive gaussian functions       ...  310
 # of contracted shells                  ...   95
 # of contracted basis functions         ...  215
 Highest angular momentum                ...    3
 Maximum contraction depth               ...    6
 Integral package used                   ... LIBINT
 Integral threshhold            Thresh   ...  2.500e-11
 Primitive cut-off              TCut     ...  2.500e-12


------------------------------ INTEGRAL EVALUATION ----------------------------


 * One electron integrals 
 Pre-screening matrix                    ... done
 Shell pair data                         ... done (   0.001 sec)



           ************************************************************
           *        Program running with 6 parallel MPI-processes     *
           *              working on a common directory               *
           ************************************************************
-------------------------------------------------------------------------------
                                 ORCA SCF
-------------------------------------------------------------------------------

------------
SCF SETTINGS
------------
Hamiltonian:
 Ab initio Hamiltonian  Method          .... Hartree-Fock(GTOs)


General Settings:
 Integral files         IntName         .... 12h2o.su.etal.mol0,1,2,5,8-orca.engrad-mp2.def2tzvp.frozencore
 Hartree-Fock type      HFTyp           .... RHF
 Total Charge           Charge          ....    0
 Multiplicity           Mult            ....    1
 Number of Electrons    NEL             ....   50
 Basis Dimension        Dim             ....  215
 Nuclear Repulsion      ENuc            ....    171.1267106477 Eh

Convergence Acceleration:
 DIIS                   CNVDIIS         .... on
   Start iteration      DIISMaxIt       ....    12
   Startup error        DIISStart       ....  0.200000
   # of expansion vecs  DIISMaxEq       ....     5
   Bias factor          DIISBfac        ....   1.050
   Max. coefficient     DIISMaxC        ....  10.000
 Newton-Raphson         CNVNR           .... off
 SOSCF                  CNVSOSCF        .... on
   Start iteration      SOSCFMaxIt      ....   150
   Startup grad/error   SOSCFStart      ....  0.003300
 Level Shifting         CNVShift        .... on
   Level shift para.    LevelShift      ....    0.2500
   Turn off err/grad.   ShiftErr        ....    0.0010
 Zerner damping         CNVZerner       .... off
 Static damping         CNVDamp         .... on
   Fraction old density DampFac         ....    0.7000
   Max. Damping (<1)    DampMax         ....    0.9800
   Min. Damping (>=0)   DampMin         ....    0.0000
   Turn off err/grad.   DampErr         ....    0.1000
 Fernandez-Rico         CNVRico         .... off

SCF Procedure:
 Maximum # iterations   MaxIter         ....   125
 SCF integral mode      SCFMode         .... Direct
   Integral package                     .... LIBINT
 Reset frequency        DirectResetFreq ....    20
 Integral Threshold     Thresh          ....  2.500e-11 Eh
 Primitive CutOff       TCut            ....  2.500e-12 Eh

Convergence Tolerance:
 Convergence Check Mode ConvCheckMode   .... Total+1el-Energy
 Convergence forced     ConvForced      .... 1
 Energy Change          TolE            ....  1.000e-08 Eh
 1-El. energy change                    ....  1.000e-05 Eh
 Orbital Gradient       TolG            ....  1.000e-05
 Orbital Rotation angle TolX            ....  1.000e-05
 DIIS Error             TolErr          ....  5.000e-07


Diagonalization of the overlap matrix:
Smallest eigenvalue                        ... 4.362e-03
Time for diagonalization                   ...    0.009 sec
Threshold for overlap eigenvalues          ... 1.000e-08
Number of eigenvalues below threshold      ... 0
Time for construction of square roots      ...    0.006 sec
Total time needed                          ...    0.015 sec

-------------------
DFT GRID GENERATION
-------------------

General Integration Accuracy     IntAcc      ...  4.340
Radial Grid Type                 RadialGrid  ... Gauss-Chebyshev
Angular Grid (max. acc.)         AngularGrid ... Lebedev-110
Angular grid pruning method      GridPruning ... 3 (G Style)
Weight generation scheme         WeightScheme... Becke
Basis function cutoff            BFCut       ...    1.0000e-11
Integration weight cutoff        WCut        ...    1.0000e-14
Grids for H and He will be reduced by one unit

# of grid points (after initial pruning)     ...  16520 (   0.0 sec)
# of grid points (after weights+screening)   ...  15914 (   0.0 sec)
nearest neighbour list constructed           ...    0.0 sec
Grid point re-assignment to atoms done       ...    0.0 sec
Grid point division into batches done        ...    0.0 sec
Reduced shell lists constructed in    0.0 sec

Total number of grid points                  ...    15914
Total number of batches                      ...      254
Average number of points per batch           ...       62
Average number of grid points per atom       ...     1061
Average number of shells per batch           ...    39.64 (41.72%)
Average number of basis functions per batch  ...    76.91 (35.77%)
Average number of large shells per batch     ...    27.20 (68.64%)
Average number of large basis fcns per batch ...    54.25 (70.54%)
Maximum spatial batch extension              ...  14.53, 19.31, 17.28 au
Average spatial batch extension              ...   0.71,  0.81,  0.72 au

Time for grid setup =    0.040 sec

------------------------------
INITIAL GUESS: MODEL POTENTIAL
------------------------------
Loading Hartree-Fock densities                     ... done
Calculating cut-offs                               ... done
Setting up the integral package                    ... done
Initializing the effective Hamiltonian             ... done
Starting the Coulomb interaction                   ... done (   0.0 sec)
Reading the grid                                   ... done
Mapping shells                                     ... done
Starting the XC term evaluation                    ... done (   0.0 sec)
Transforming the Hamiltonian                       ... done (   0.0 sec)
Diagonalizing the Hamiltonian                      ... done (   0.0 sec)
Back transforming the eigenvectors                 ... done (   0.0 sec)
Now organizing SCF variables                       ... done
                      ------------------
                      INITIAL GUESS DONE (   0.1 sec)
                      ------------------
--------------
SCF ITERATIONS
--------------
ITER       Energy         Delta-E        Max-DP      RMS-DP      [F,P]     Damp
               ***  Starting incremental Fock matrix formation  ***
  0   -379.8196135813   0.000000000000 0.04338811  0.00108807  0.3496399 0.7000
  1   -380.0078674032  -0.188253821905 0.02895994  0.00075056  0.2165951 0.7000
                               ***Turning on DIIS***
  2   -380.1065307435  -0.098663340262 0.01684488  0.00041308  0.1638080 0.7000
  3   -380.9751345277  -0.868603784277 0.00775866  0.00018243  0.1218695 0.7000
  4   -380.7971816441   0.177952883626 0.01706383  0.00042006  0.0861797 0.0000
  5   -380.3342156822   0.462965961944 0.00204016  0.00006809  0.0058766 0.0000
                      *** Initiating the SOSCF procedure ***
                           *** Shutting down DIIS ***
                      *** Re-Reading the Fockian *** 
                      *** Removing any level shift *** 
ITER      Energy       Delta-E        Grad      Rot      Max-DP    RMS-DP
  6   -380.30519152   0.0290241632  0.000836  0.000836  0.001278  0.000041
               *** Restarting incremental Fock matrix formation ***
  7   -380.29581169   0.0093798264  0.000301  0.000424  0.000606  0.000018
  8   -380.29581914  -0.0000074472  0.000147  0.000351  0.000457  0.000015
  9   -380.29582090  -0.0000017639  0.000058  0.000042  0.000100  0.000003
 10   -380.29582105  -0.0000001467  0.000008  0.000008  0.000018  0.000000
                  ***Gradient check signals convergence***
              ***Rediagonalizing the Fockian in SOSCF/NRSCF***

               *****************************************************
               *                     SUCCESS                       *
               *           SCF CONVERGED AFTER  11 CYCLES          *
               *****************************************************


----------------
TOTAL SCF ENERGY
----------------

Total Energy       :         -380.29582105 Eh          -10348.37539 eV

Components:
Nuclear Repulsion  :          171.12671065 Eh            4656.59453 eV
Electronic Energy  :         -551.42253170 Eh          -15004.96993 eV
One Electron Energy:         -866.13803016 Eh          -23568.81402 eV
Two Electron Energy:          314.71549846 Eh            8563.84409 eV

Virial components:
Potential Energy   :         -760.01322782 Eh          -20681.01133 eV
Kinetic Energy     :          379.71740677 Eh           10332.63594 eV
Virial Ratio       :            2.00152328


---------------
SCF CONVERGENCE
---------------

  Last Energy change         ...   -3.3494e-09  Tolerance :   1.0000e-08
  Last MAX-Density change    ...    5.0690e-06  Tolerance :   1.0000e-07
  Last RMS-Density change    ...    1.4957e-07  Tolerance :   5.0000e-09
  Last Orbital Gradient      ...    1.6989e-06  Tolerance :   1.0000e-05
  Last Orbital Rotation      ...    2.8371e-06  Tolerance :   1.0000e-05

             **** THE GBW FILE WAS UPDATED (12h2o.su.etal.mol0,1,2,5,8-orca.engrad-mp2.def2tzvp.frozencore.gbw) ****
             **** DENSITY FILE WAS UPDATED (12h2o.su.etal.mol0,1,2,5,8-orca.engrad-mp2.def2tzvp.frozencore.scfp) ****
             **** ENERGY FILE WAS UPDATED (12h2o.su.etal.mol0,1,2,5,8-orca.engrad-mp2.def2tzvp.frozencore.en.tmp) ****
             **** THE GBW FILE WAS UPDATED (12h2o.su.etal.mol0,1,2,5,8-orca.engrad-mp2.def2tzvp.frozencore.gbw) ****
             **** DENSITY FILE WAS UPDATED (12h2o.su.etal.mol0,1,2,5,8-orca.engrad-mp2.def2tzvp.frozencore.scfp) ****
----------------
ORBITAL ENERGIES
----------------

  NO   OCC          E(Eh)            E(eV) 
   0   2.0000     -20.607851      -560.7681 
   1   2.0000     -20.566428      -559.6410 
   2   2.0000     -20.546466      -559.0978 
   3   2.0000     -20.540354      -558.9314 
   4   2.0000     -20.518344      -558.3325 
   5   2.0000      -1.393259       -37.9125 
   6   2.0000      -1.341713       -36.5099 
   7   2.0000      -1.325552       -36.0701 
   8   2.0000      -1.321847       -35.9693 
   9   2.0000      -1.296598       -35.2822 
  10   2.0000      -0.750456       -20.4210 
  11   2.0000      -0.711911       -19.3721 
  12   2.0000      -0.709972       -19.3193 
  13   2.0000      -0.689745       -18.7689 
  14   2.0000      -0.666053       -18.1242 
  15   2.0000      -0.630013       -17.1435 
  16   2.0000      -0.578405       -15.7392 
  17   2.0000      -0.577098       -15.7036 
  18   2.0000      -0.558476       -15.1969 
  19   2.0000      -0.545995       -14.8573 
  20   2.0000      -0.527050       -14.3418 
  21   2.0000      -0.509873       -13.8744 
  22   2.0000      -0.489862       -13.3298 
  23   2.0000      -0.486511       -13.2386 
  24   2.0000      -0.463739       -12.6190 
  25   0.0000       0.094696         2.5768 
  26   0.0000       0.120274         3.2728 
  27   0.0000       0.151722         4.1286 
  28   0.0000       0.164069         4.4645 
  29   0.0000       0.168239         4.5780 
  30   0.0000       0.203425         5.5355 
  31   0.0000       0.220611         6.0031 
  32   0.0000       0.247943         6.7469 
  33   0.0000       0.296498         8.0681 
  34   0.0000       0.323947         8.8150 
  35   0.0000       0.468606        12.7514 
  36   0.0000       0.475777        12.9465 
  37   0.0000       0.501097        13.6355 
  38   0.0000       0.531067        14.4511 
  39   0.0000       0.538201        14.6452 
  40   0.0000       0.550108        14.9692 
  41   0.0000       0.566990        15.4286 
  42   0.0000       0.576646        15.6913 
  43   0.0000       0.587638        15.9904 
  44   0.0000       0.591983        16.1087 
  45   0.0000       0.612745        16.6736 
  46   0.0000       0.625036        17.0081 
  47   0.0000       0.633283        17.2325 
  48   0.0000       0.636769        17.3274 
  49   0.0000       0.658125        17.9085 
  50   0.0000       0.666300        18.1309 
  51   0.0000       0.699943        19.0464 
  52   0.0000       0.716763        19.5041 
  53   0.0000       0.722766        19.6675 
  54   0.0000       0.743604        20.2345 
  55   0.0000       0.761890        20.7321 
  56   0.0000       0.770614        20.9695 
  57   0.0000       0.777970        21.1696 
  58   0.0000       0.801243        21.8029 
  59   0.0000       0.815041        22.1784 
  60   0.0000       0.844125        22.9698 
  61   0.0000       0.889208        24.1966 
  62   0.0000       0.903304        24.5802 
  63   0.0000       0.979534        26.6545 
  64   0.0000       1.020341        27.7649 
  65   0.0000       1.346914        36.6514 
  66   0.0000       1.378824        37.5197 
  67   0.0000       1.429296        38.8931 
  68   0.0000       1.432831        38.9893 
  69   0.0000       1.437871        39.1265 
  70   0.0000       1.444762        39.3140 
  71   0.0000       1.452917        39.5359 
  72   0.0000       1.455478        39.6056 
  73   0.0000       1.484401        40.3926 
  74   0.0000       1.505272        40.9605 
  75   0.0000       1.551966        42.2312 
  76   0.0000       1.566506        42.6268 
  77   0.0000       1.570848        42.7449 
  78   0.0000       1.595351        43.4117 
  79   0.0000       1.663198        45.2579 
  80   0.0000       1.773635        48.2631 
  81   0.0000       1.802699        49.0539 
  82   0.0000       1.807470        49.1838 
  83   0.0000       1.833146        49.8824 
  84   0.0000       1.885956        51.3195 
  85   0.0000       1.889381        51.4127 
  86   0.0000       1.906448        51.8771 
  87   0.0000       1.919859        52.2420 
  88   0.0000       1.979204        53.8569 
  89   0.0000       1.998773        54.3894 
  90   0.0000       2.004530        54.5460 
  91   0.0000       2.026193        55.1355 
  92   0.0000       2.035054        55.3766 
  93   0.0000       2.131899        58.0119 
  94   0.0000       2.143657        58.3319 
  95   0.0000       2.229232        60.6605 
  96   0.0000       2.297185        62.5096 
  97   0.0000       2.314491        62.9805 
  98   0.0000       2.317601        63.0651 
  99   0.0000       2.323178        63.2169 
 100   0.0000       2.341518        63.7159 
 101   0.0000       2.343116        63.7594 
 102   0.0000       2.350589        63.9628 
 103   0.0000       2.375428        64.6387 
 104   0.0000       2.386794        64.9480 
 105   0.0000       2.389111        65.0110 
 106   0.0000       2.406364        65.4805 
 107   0.0000       2.487342        67.6840 
 108   0.0000       2.504999        68.1645 
 109   0.0000       2.523200        68.6597 
 110   0.0000       2.557181        69.5844 
 111   0.0000       2.581364        70.2425 
 112   0.0000       2.606718        70.9324 
 113   0.0000       2.611538        71.0636 
 114   0.0000       2.649122        72.0863 
 115   0.0000       2.661990        72.4364 
 116   0.0000       2.708710        73.7078 
 117   0.0000       2.715312        73.8874 
 118   0.0000       2.753220        74.9189 
 119   0.0000       2.771452        75.4150 
 120   0.0000       2.886129        78.5356 
 121   0.0000       2.900376        78.9232 
 122   0.0000       2.915890        79.3454 
 123   0.0000       2.935767        79.8863 
 124   0.0000       2.939784        79.9956 
 125   0.0000       2.973681        80.9180 
 126   0.0000       2.988917        81.3326 
 127   0.0000       3.005728        81.7900 
 128   0.0000       3.025652        82.3322 
 129   0.0000       3.030868        82.4741 
 130   0.0000       3.050911        83.0195 
 131   0.0000       3.069731        83.5316 
 132   0.0000       3.098831        84.3235 
 133   0.0000       3.126781        85.0840 
 134   0.0000       3.154133        85.8283 
 135   0.0000       3.173761        86.3624 
 136   0.0000       3.189293        86.7851 
 137   0.0000       3.279805        89.2480 
 138   0.0000       3.309298        90.0506 
 139   0.0000       3.491919        95.0200 
 140   0.0000       3.979967       108.3004 
 141   0.0000       3.992261       108.6350 
 142   0.0000       4.003919       108.9522 
 143   0.0000       4.085356       111.1682 
 144   0.0000       4.105244       111.7094 
 145   0.0000       4.264937       116.0548 
 146   0.0000       4.307192       117.2046 
 147   0.0000       4.328561       117.7861 
 148   0.0000       4.350531       118.3840 
 149   0.0000       4.380156       119.1901 
 150   0.0000       5.500983       149.6894 
 151   0.0000       5.547479       150.9546 
 152   0.0000       5.567303       151.4940 
 153   0.0000       5.568697       151.5320 
 154   0.0000       5.590187       152.1167 
 155   0.0000       5.638072       153.4197 
 156   0.0000       5.641124       153.5028 
 157   0.0000       5.656374       153.9178 
 158   0.0000       5.659987       154.0161 
 159   0.0000       5.698396       155.0612 
 160   0.0000       5.788708       157.5187 
 161   0.0000       5.794290       157.6707 
 162   0.0000       5.810016       158.0986 
 163   0.0000       5.830164       158.6468 
 164   0.0000       5.841545       158.9565 
 165   0.0000       5.846535       159.0923 
 166   0.0000       5.852376       159.2512 
 167   0.0000       5.858789       159.4258 
 168   0.0000       5.866204       159.6275 
 169   0.0000       5.870727       159.7506 
 170   0.0000       5.909063       160.7938 
 171   0.0000       5.915454       160.9677 
 172   0.0000       5.934747       161.4927 
 173   0.0000       5.939714       161.6278 
 174   0.0000       5.946447       161.8110 
 175   0.0000       6.428014       174.9151 
 176   0.0000       6.441771       175.2895 
 177   0.0000       6.448850       175.4821 
 178   0.0000       6.481909       176.3817 
 179   0.0000       6.510612       177.1628 
 180   0.0000       6.674844       181.6317 
 181   0.0000       6.695803       182.2021 
 182   0.0000       6.713884       182.6941 
 183   0.0000       6.715359       182.7342 
 184   0.0000       6.739130       183.3810 
 185   0.0000       6.818576       185.5429 
 186   0.0000       6.833863       185.9589 
 187   0.0000       6.838278       186.0790 
 188   0.0000       6.872571       187.0122 
 189   0.0000       6.886741       187.3978 
 190   0.0000       6.887444       187.4169 
 191   0.0000       6.906733       187.9418 
 192   0.0000       6.910474       188.0436 
 193   0.0000       6.920897       188.3272 
 194   0.0000       6.939508       188.8336 
 195   0.0000       6.940861       188.8704 
 196   0.0000       6.949551       189.1069 
 197   0.0000       6.981621       189.9796 
 198   0.0000       7.006245       190.6496 
 199   0.0000       7.051381       191.8778 
 200   0.0000       7.371394       200.5858 
 201   0.0000       7.380636       200.8373 
 202   0.0000       7.392719       201.1661 
 203   0.0000       7.407771       201.5757 
 204   0.0000       7.462830       203.0739 
 205   0.0000       7.483400       203.6337 
 206   0.0000       7.486596       203.7206 
 207   0.0000       7.510668       204.3757 
 208   0.0000       7.561800       205.7670 
 209   0.0000       7.602496       206.8744 
 210   0.0000      44.809805      1219.3368 
 211   0.0000      44.856075      1220.5958 
 212   0.0000      44.883721      1221.3482 
 213   0.0000      44.974867      1223.8283 
 214   0.0000      44.987079      1224.1607 

                    ********************************
                    * MULLIKEN POPULATION ANALYSIS *
                    ********************************

-----------------------
MULLIKEN ATOMIC CHARGES
-----------------------
   0 O :   -0.708197
   1 H :    0.347460
   2 H :    0.361384
   3 O :   -0.710071
   4 H :    0.340494
   5 H :    0.369002
   6 O :   -0.758857
   7 H :    0.343496
   8 H :    0.391428
   9 O :   -0.715520
  10 H :    0.317509
  11 H :    0.385815
  12 O :   -0.705272
  13 H :    0.366317
  14 H :    0.375012
Sum of atomic charges:   -0.0000000

--------------------------------
MULLIKEN REDUCED ORBITAL CHARGES
--------------------------------
  0 O s       :     3.814498  s :     3.814498
      pz      :     1.720859  p :     4.866699
      px      :     1.352436
      py      :     1.793404
      dz2     :     0.004341  d :     0.025455
      dxz     :     0.004748
      dyz     :     0.005932
      dx2y2   :     0.002527
      dxy     :     0.007907
      f0      :     0.000091  f :     0.001546
      f+1     :     0.000345
      f-1     :     0.000192
      f+2     :     0.000070
      f-2     :     0.000358
      f+3     :     0.000098
      f-3     :     0.000392
  1 H s       :     0.606728  s :     0.606728
      pz      :     0.017178  p :     0.045812
      px      :     0.013592
      py      :     0.015042
  2 H s       :     0.596491  s :     0.596491
      pz      :     0.011236  p :     0.042125
      px      :     0.017826
      py      :     0.013063
  3 O s       :     3.814414  s :     3.814414
      pz      :     1.719422  p :     4.868689
      px      :     1.357048
      py      :     1.792220
      dz2     :     0.004493  d :     0.025421
      dxz     :     0.004960
      dyz     :     0.005889
      dx2y2   :     0.002522
      dxy     :     0.007558
      f0      :     0.000092  f :     0.001546
      f+1     :     0.000346
      f-1     :     0.000193
      f+2     :     0.000070
      f-2     :     0.000359
      f+3     :     0.000098
      f-3     :     0.000389
  4 H s       :     0.613537  s :     0.613537
      pz      :     0.017344  p :     0.045969
      px      :     0.013527
      py      :     0.015098
  5 H s       :     0.589001  s :     0.589001
      pz      :     0.011191  p :     0.041997
      px      :     0.017926
      py      :     0.012880
  6 O s       :     3.809418  s :     3.809418
      pz      :     1.708530  p :     4.924653
      px      :     1.809091
      py      :     1.407031
      dz2     :     0.003708  d :     0.023350
      dxz     :     0.005574
      dyz     :     0.004244
      dx2y2   :     0.002300
      dxy     :     0.007524
      f0      :     0.000079  f :     0.001436
      f+1     :     0.000178
      f-1     :     0.000313
      f+2     :     0.000070
      f-2     :     0.000348
      f+3     :     0.000358
      f-3     :     0.000090
  7 H s       :     0.610654  s :     0.610654
      pz      :     0.016840  p :     0.045850
      px      :     0.015044
      py      :     0.013965
  8 H s       :     0.551969  s :     0.551969
      pz      :     0.010548  p :     0.056603
      px      :     0.014225
      py      :     0.031830
  9 O s       :     3.810306  s :     3.810306
      pz      :     1.586735  p :     4.878593
      px      :     1.871762
      py      :     1.420096
      dz2     :     0.011044  d :     0.025150
      dxz     :     0.002620
      dyz     :     0.002809
      dx2y2   :     0.003192
      dxy     :     0.005484
      f0      :     0.000163  f :     0.001471
      f+1     :     0.000126
      f-1     :     0.000443
      f+2     :     0.000079
      f-2     :     0.000041
      f+3     :     0.000490
      f-3     :     0.000131
 10 H s       :     0.638327  s :     0.638327
      pz      :     0.010689  p :     0.044164
      px      :     0.015588
      py      :     0.017887
 11 H s       :     0.564892  s :     0.564892
      pz      :     0.024774  p :     0.049293
      px      :     0.013254
      py      :     0.011266
 12 O s       :     3.800236  s :     3.800236
      pz      :     1.526898  p :     4.877549
      px      :     1.559272
      py      :     1.791379
      dz2     :     0.012567  d :     0.026033
      dxz     :     0.001248
      dyz     :     0.002513
      dx2y2   :     0.002518
      dxy     :     0.007188
      f0      :     0.000250  f :     0.001454
      f+1     :     0.000395
      f-1     :     0.000164
      f+2     :     0.000051
      f-2     :     0.000057
      f+3     :     0.000054
      f-3     :     0.000483
 13 H s       :     0.589891  s :     0.589891
      pz      :     0.019407  p :     0.043792
      px      :     0.011746
      py      :     0.012640
 14 H s       :     0.581706  s :     0.581706
      pz      :     0.010119  p :     0.043282
      px      :     0.018534
      py      :     0.014628


                     *******************************
                     * LOEWDIN POPULATION ANALYSIS *
                     *******************************

----------------------
LOEWDIN ATOMIC CHARGES
----------------------
   0 O :   -0.340293
   1 H :    0.157539
   2 H :    0.183882
   3 O :   -0.341839
   4 H :    0.154437
   5 H :    0.186179
   6 O :   -0.343378
   7 H :    0.152274
   8 H :    0.152002
   9 O :   -0.348254
  10 H :    0.155737
  11 H :    0.155279
  12 O :   -0.276688
  13 H :    0.173154
  14 H :    0.179968

-------------------------------
LOEWDIN REDUCED ORBITAL CHARGES
-------------------------------
  0 O s       :     3.475473  s :     3.475473
      pz      :     1.706807  p :     4.830163
      px      :     1.352117
      py      :     1.771239
      dz2     :     0.004935  d :     0.032527
      dxz     :     0.007200
      dyz     :     0.006024
      dx2y2   :     0.003918
      dxy     :     0.010450
      f0      :     0.000077  f :     0.002129
      f+1     :     0.000463
      f-1     :     0.000278
      f+2     :     0.000036
      f-2     :     0.000624
      f+3     :     0.000092
      f-3     :     0.000560
  1 H s       :     0.679676  s :     0.679676
      pz      :     0.066030  p :     0.162785
      px      :     0.043937
      py      :     0.052817
  2 H s       :     0.668435  s :     0.668435
      pz      :     0.033319  p :     0.147683
      px      :     0.070778
      py      :     0.043587
  3 O s       :     3.475354  s :     3.475354
      pz      :     1.704983  p :     4.831852
      px      :     1.354040
      py      :     1.772829
      dz2     :     0.004987  d :     0.032505
      dxz     :     0.007499
      dyz     :     0.006039
      dx2y2   :     0.003880
      dxy     :     0.010100
      f0      :     0.000079  f :     0.002127
      f+1     :     0.000460
      f-1     :     0.000279
      f+2     :     0.000036
      f-2     :     0.000632
      f+3     :     0.000093
      f-3     :     0.000549
  4 H s       :     0.682809  s :     0.682809
      pz      :     0.066079  p :     0.162754
      px      :     0.043874
      py      :     0.052802
  5 H s       :     0.665850  s :     0.665850
      pz      :     0.033215  p :     0.147970
      px      :     0.071287
      py      :     0.043469
  6 O s       :     3.462338  s :     3.462338
      pz      :     1.677209  p :     4.849047
      px      :     1.780825
      py      :     1.391012
      dz2     :     0.004766  d :     0.029989
      dxz     :     0.005797
      dyz     :     0.006817
      dx2y2   :     0.003311
      dxy     :     0.009298
      f0      :     0.000085  f :     0.002005
      f+1     :     0.000264
      f-1     :     0.000432
      f+2     :     0.000034
      f-2     :     0.000618
      f+3     :     0.000487
      f-3     :     0.000085
  7 H s       :     0.682932  s :     0.682932
      pz      :     0.065857  p :     0.164793
      px      :     0.053334
      py      :     0.045602
  8 H s       :     0.653893  s :     0.653893
      pz      :     0.033693  p :     0.194105
      px      :     0.047641
      py      :     0.112771
  9 O s       :     3.472141  s :     3.472141
      pz      :     1.573443  p :     4.842075
      px      :     1.832288
      py      :     1.436345
      dz2     :     0.014252  d :     0.031934
      dxz     :     0.001676
      dyz     :     0.003831
      dx2y2   :     0.004732
      dxy     :     0.007442
      f0      :     0.000337  f :     0.002105
      f+1     :     0.000202
      f-1     :     0.000725
      f+2     :     0.000045
      f-2     :     0.000041
      f+3     :     0.000674
      f-3     :     0.000079
 10 H s       :     0.691575  s :     0.691575
      pz      :     0.030983  p :     0.152688
      px      :     0.049470
      py      :     0.072236
 11 H s       :     0.672268  s :     0.672268
      pz      :     0.094327  p :     0.172453
      px      :     0.042733
      py      :     0.035392
 12 O s       :     3.459097  s :     3.459097
      pz      :     1.517951  p :     4.781742
      px      :     1.533931
      py      :     1.729860
      dz2     :     0.016813  d :     0.033648
      dxz     :     0.001982
      dyz     :     0.002007
      dx2y2   :     0.003689
      dxy     :     0.009157
      f0      :     0.000458  f :     0.002200
      f+1     :     0.000589
      f-1     :     0.000346
      f+2     :     0.000022
      f-2     :     0.000048
      f+3     :     0.000027
      f-3     :     0.000708
 13 H s       :     0.668057  s :     0.668057
      pz      :     0.081364  p :     0.158789
      px      :     0.035656
      py      :     0.041769
 14 H s       :     0.662373  s :     0.662373
      pz      :     0.029644  p :     0.157659
      px      :     0.073071
      py      :     0.054945


                      *****************************
                      * MAYER POPULATION ANALYSIS *
                      *****************************

  NA   - Mulliken gross atomic population
  ZA   - Total nuclear charge
  QA   - Mulliken gross atomic charge
  VA   - Mayer's total valence
  BVA  - Mayer's bonded valence
  FA   - Mayer's free valence

  ATOM       NA         ZA         QA         VA         BVA        FA
  0 O      8.7082     8.0000    -0.7082     1.7670     1.7670     0.0000
  1 H      0.6525     1.0000     0.3475     0.8939     0.8939     0.0000
  2 H      0.6386     1.0000     0.3614     0.8834     0.8834     0.0000
  3 O      8.7101     8.0000    -0.7101     1.7649     1.7649    -0.0000
  4 H      0.6595     1.0000     0.3405     0.8987     0.8987     0.0000
  5 H      0.6310     1.0000     0.3690     0.8784     0.8784    -0.0000
  6 O      8.7589     8.0000    -0.7589     1.7040     1.7040    -0.0000
  7 H      0.6565     1.0000     0.3435     0.8979     0.8979    -0.0000
  8 H      0.6086     1.0000     0.3914     0.8813     0.8813     0.0000
  9 O      8.7155     8.0000    -0.7155     1.7523     1.7523    -0.0000
 10 H      0.6825     1.0000     0.3175     0.9169     0.9169    -0.0000
 11 H      0.6142     1.0000     0.3858     0.8824     0.8824    -0.0000
 12 O      8.7053     8.0000    -0.7053     1.7767     1.7767    -0.0000
 13 H      0.6337     1.0000     0.3663     0.8822     0.8822    -0.0000
 14 H      0.6250     1.0000     0.3750     0.8727     0.8727    -0.0000

  Mayer bond orders larger than 0.100000
B(  0-O ,  1-H ) :   0.8882 B(  0-O ,  2-H ) :   0.8747 B(  3-O ,  4-H ) :   0.8929 
B(  3-O ,  5-H ) :   0.8688 B(  6-O ,  7-H ) :   0.8896 B(  6-O ,  8-H ) :   0.8115 
B(  9-O , 10-H ) :   0.9061 B(  9-O , 11-H ) :   0.8447 B( 12-O , 13-H ) :   0.8727 
B( 12-O , 14-H ) :   0.8672 

-------
TIMINGS
-------

Total SCF time: 0 days 0 hours 0 min 5 sec 

Total time                  ....       5.367 sec
Sum of individual times     ....       5.197 sec  ( 96.8%)

Fock matrix formation       ....       4.749 sec  ( 88.5%)
Diagonalization             ....       0.110 sec  (  2.1%)
Density matrix formation    ....       0.005 sec  (  0.1%)
Population analysis         ....       0.025 sec  (  0.5%)
Initial guess               ....       0.099 sec  (  1.8%)
Orbital Transformation      ....       0.000 sec  (  0.0%)
Orbital Orthonormalization  ....       0.000 sec  (  0.0%)
DIIS solution               ....       0.042 sec  (  0.8%)
SOSCF solution              ....       0.127 sec  (  2.4%)


           ************************************************************
           *        Program running with 6 parallel MPI-processes     *
           *              working on a common directory               *
           ************************************************************

------------------------------------------------------------------------------
                                ORCA  MP2 
------------------------------------------------------------------------------

Freezing NCore=10 chemical core electrons
MP2 will be done in the AO integral direct mode
The Q1-step will be done using symmetric double matrices
Dimension of the basis                    ...  215
Memory devoted for MP2                    ... 8000 MB   
Memory needed for all in one shot         ...  153 MB
Number of MOs that can be treated together...  209      
MP2 density construction                  ... relaxed
The MP2 gradient is requested => amplitudes will be stored on disk
Total number of MOs              ...   20
Number of MOs treated per batch  ...    4 
Number of batches necessary      ...    1 
OPERATORS   0/  0 PASS   0
-----------------------------------------------
 MP2 CORRELATION ENERGY   :     -1.285408419 Eh
-----------------------------------------------


---------------------
MP2 DENSITY FORMATION
---------------------

Completing the external part of the density      ... done
Storing the unrelaxed density                    ... done

Calculating G(D)                                 ... done
Completing the Lagrangian                        ... done
Solving the Z-vector equations                   ... 

------------------------------------------------------------------------------
                           ORCA CP-SCF CALCULATION
------------------------------------------------------------------------------

Input orbitals are from        ... 12h2o.su.etal.mol0,1,2,5,8-orca.engrad-mp2.def2tzvp.frozencore.gbw
Input Perturbation             ... 12h2o.su.etal.mol0,1,2,5,8-orca.engrad-mp2.def2tzvp.frozencore.pin.tmp
Wavefunction output            ... 12h2o.su.etal.mol0,1,2,5,8-orca.engrad-mp2.def2tzvp.frozencore.pout.tmp
Perturbation mode              ... Real perturbation (singlet)
Solver                         ... POPLE
Max. number of iterations      ... 128
Convergence tolerance          ... 1.000e-08
Integral handling              ... Direct
Number of perturbations        ... 1
Number of operators            ... 1
Orbital ranges used for CP-SCF:
 Operator 0:  Orbitals   0... 24  to  25...214
Variables per vector in CP-SCF ... 4750
Number of vectors sought       ... 1
     CP-SCF ITERATION   0: 
     CP-SCF ITERATION   1:      0.000595196942
     CP-SCF ITERATION   2:      0.000013223323
     CP-SCF ITERATION   3:      0.000000631271
     CP-SCF ITERATION   4:      0.000000050715
     CP-SCF ITERATION   5:      0.000000003709
                                                 ... done
Finalizing the relaxed density                   ... done
Transforming P to the AO basis                   ... done
Storing the relaxed density                      ... done

------------------------------------
ENERGY WEIGHTED DENSITY FINALIZATION
------------------------------------

Gathering the parts of the W-matrix              ...                                                      done
Forming the Z-density                            ... done
Transforming Z to the AO basis                   ... done
Calculating G(Z)                                 ... done
Finalizing the W-matrix                          ...                                                      done
Transforming W to the AO basis and storing       ... done

                *********************************************
                * UNRELAXED MP2 DENSITY POPULATION ANALYSIS *
                *********************************************

------------------------------------------------------------------------------
                           ORCA POPULATION ANALYSIS
------------------------------------------------------------------------------
Input electron density              ... 12h2o.su.etal.mol0,1,2,5,8-orca.engrad-mp2.def2tzvp.frozencore.pmp2ur
BaseName (.gbw .S,...)              ... 12h2o.su.etal.mol0,1,2,5,8-orca.engrad-mp2.def2tzvp.frozencore

                    ********************************
                    * MULLIKEN POPULATION ANALYSIS *
                    ********************************

-----------------------
MULLIKEN ATOMIC CHARGES
-----------------------
   0 O :   -0.703365
   1 H :    0.345332
   2 H :    0.358690
   3 O :   -0.705207
   4 H :    0.338345
   5 H :    0.366274
   6 O :   -0.752987
   7 H :    0.341211
   8 H :    0.386908
   9 O :   -0.710157
  10 H :    0.314848
  11 H :    0.382739
  12 O :   -0.699102
  13 H :    0.363830
  14 H :    0.372641
Sum of atomic charges:   -0.0000000

--------------------------------
MULLIKEN REDUCED ORBITAL CHARGES
--------------------------------
  0 O s       :     3.809714  s :     3.809714
      pz      :     1.710440  p :     4.837733
      px      :     1.345056
      py      :     1.782237
      dz2     :     0.009692  d :     0.051833
      dxz     :     0.009989
      dyz     :     0.011214
      dx2y2   :     0.007843
      dxy     :     0.013095
      f0      :     0.000457  f :     0.004084
      f+1     :     0.000703
      f-1     :     0.000554
      f+2     :     0.000435
      f-2     :     0.000720
      f+3     :     0.000465
      f-3     :     0.000748
  1 H s       :     0.607228  s :     0.607228
      pz      :     0.017670  p :     0.047440
      px      :     0.013992
      py      :     0.015778
  2 H s       :     0.597608  s :     0.597608
      pz      :     0.012082  p :     0.043702
      px      :     0.017770
      py      :     0.013850
  3 O s       :     3.809627  s :     3.809627
      pz      :     1.708993  p :     4.839707
      px      :     1.349641
      py      :     1.781074
      dz2     :     0.009834  d :     0.051789
      dxz     :     0.010196
      dyz     :     0.011158
      dx2y2   :     0.007837
      dxy     :     0.012763
      f0      :     0.000459  f :     0.004084
      f+1     :     0.000704
      f-1     :     0.000555
      f+2     :     0.000435
      f-2     :     0.000721
      f+3     :     0.000465
      f-3     :     0.000746
  4 H s       :     0.614035  s :     0.614035
      pz      :     0.017853  p :     0.047620
      px      :     0.013937
      py      :     0.015830
  5 H s       :     0.590174  s :     0.590174
      pz      :     0.012038  p :     0.043552
      px      :     0.017868
      py      :     0.013646
  6 O s       :     3.804486  s :     3.804486
      pz      :     1.697648  p :     4.893758
      px      :     1.797689
      py      :     1.398422
      dz2     :     0.009330  d :     0.050727
      dxz     :     0.010993
      dyz     :     0.009716
      dx2y2   :     0.007819
      dxy     :     0.012868
      f0      :     0.000451  f :     0.004016
      f+1     :     0.000544
      f-1     :     0.000679
      f+2     :     0.000439
      f-2     :     0.000715
      f+3     :     0.000724
      f-3     :     0.000464
  7 H s       :     0.611267  s :     0.611267
      pz      :     0.017332  p :     0.047521
      px      :     0.015778
      py      :     0.014411
  8 H s       :     0.554813  s :     0.554813
      pz      :     0.011377  p :     0.058279
      px      :     0.014969
      py      :     0.031933
  9 O s       :     3.805406  s :     3.805406
      pz      :     1.576891  p :     4.848922
      px      :     1.860161
      py      :     1.411870
      dz2     :     0.016192  d :     0.051802
      dxz     :     0.008134
      dyz     :     0.008122
      dx2y2   :     0.008564
      dxy     :     0.010791
      f0      :     0.000546  f :     0.004026
      f+1     :     0.000498
      f-1     :     0.000808
      f+2     :     0.000440
      f-2     :     0.000404
      f+3     :     0.000838
      f-3     :     0.000491
 10 H s       :     0.639211  s :     0.639211
      pz      :     0.011580  p :     0.045941
      px      :     0.016399
      py      :     0.017962
 11 H s       :     0.566460  s :     0.566460
      pz      :     0.024856  p :     0.050801
      px      :     0.014095
      py      :     0.011849
 12 O s       :     3.795054  s :     3.795054
      pz      :     1.517783  p :     4.846999
      px      :     1.550080
      py      :     1.779136
      dz2     :     0.017628  d :     0.053013
      dxz     :     0.006617
      dyz     :     0.008064
      dx2y2   :     0.008131
      dxy     :     0.012574
      f0      :     0.000630  f :     0.004036
      f+1     :     0.000759
      f-1     :     0.000540
      f+2     :     0.000413
      f-2     :     0.000423
      f+3     :     0.000429
      f-3     :     0.000843
 13 H s       :     0.590826  s :     0.590826
      pz      :     0.019479  p :     0.045344
      px      :     0.012407
      py      :     0.013458
 14 H s       :     0.582557  s :     0.582557
      pz      :     0.010868  p :     0.044802
      px      :     0.018694
      py      :     0.015240


                     *******************************
                     * LOEWDIN POPULATION ANALYSIS *
                     *******************************

----------------------
LOEWDIN ATOMIC CHARGES
----------------------
   0 O :   -0.337458
   1 H :    0.156429
   2 H :    0.182211
   3 O :   -0.339059
   4 H :    0.153292
   5 H :    0.184480
   6 O :   -0.340148
   7 H :    0.150960
   8 H :    0.149451
   9 O :   -0.345217
  10 H :    0.153873
  11 H :    0.153294
  12 O :   -0.272493
  13 H :    0.171725
  14 H :    0.178659

-------------------------------
LOEWDIN REDUCED ORBITAL CHARGES
-------------------------------
  0 O s       :     3.471726  s :     3.471726
      pz      :     1.696406  p :     4.800928
      px      :     1.344228
      py      :     1.760294
      dz2     :     0.010370  d :     0.059946
      dxz     :     0.012660
      dyz     :     0.011588
      dx2y2   :     0.009347
      dxy     :     0.015981
      f0      :     0.000454  f :     0.004859
      f+1     :     0.000868
      f-1     :     0.000659
      f+2     :     0.000408
      f-2     :     0.001029
      f+3     :     0.000473
      f-3     :     0.000969
  1 H s       :     0.677680  s :     0.677680
      pz      :     0.067274  p :     0.165891
      px      :     0.044790
      py      :     0.053828
  2 H s       :     0.666992  s :     0.666992
      pz      :     0.034147  p :     0.150797
      px      :     0.072063
      py      :     0.044587
  3 O s       :     3.471612  s :     3.471612
      pz      :     1.694596  p :     4.802672
      px      :     1.346150
      py      :     1.761926
      dz2     :     0.010415  d :     0.059917
      dxz     :     0.012953
      dyz     :     0.011598
      dx2y2   :     0.009309
      dxy     :     0.015643
      f0      :     0.000456  f :     0.004857
      f+1     :     0.000866
      f-1     :     0.000660
      f+2     :     0.000408
      f-2     :     0.001037
      f+3     :     0.000473
      f-3     :     0.000957
  4 H s       :     0.680780  s :     0.680780
      pz      :     0.067367  p :     0.165928
      px      :     0.044745
      py      :     0.053816
  5 H s       :     0.664507  s :     0.664507
      pz      :     0.034042  p :     0.151013
      px      :     0.072534
      py      :     0.044437
  6 O s       :     3.458674  s :     3.458674
      pz      :     1.665844  p :     4.818207
      px      :     1.769781
      py      :     1.382582
      dz2     :     0.010481  d :     0.058484
      dxz     :     0.011550
      dyz     :     0.012502
      dx2y2   :     0.008938
      dxy     :     0.015013
      f0      :     0.000469  f :     0.004783
      f+1     :     0.000649
      f-1     :     0.000847
      f+2     :     0.000411
      f-2     :     0.001029
      f+3     :     0.000906
      f-3     :     0.000472
  7 H s       :     0.681005  s :     0.681005
      pz      :     0.067133  p :     0.168035
      px      :     0.054357
      py      :     0.046545
  8 H s       :     0.653934  s :     0.653934
      pz      :     0.034540  p :     0.196615
      px      :     0.048536
      py      :     0.113539
  9 O s       :     3.468356  s :     3.468356
      pz      :     1.563598  p :     4.812286
      px      :     1.821067
      py      :     1.427621
      dz2     :     0.020015  d :     0.059721
      dxz     :     0.007117
      dyz     :     0.009182
      dx2y2   :     0.010326
      dxy     :     0.013082
      f0      :     0.000750  f :     0.004853
      f+1     :     0.000590
      f-1     :     0.001159
      f+2     :     0.000414
      f-2     :     0.000411
      f+3     :     0.001078
      f-3     :     0.000451
 10 H s       :     0.689884  s :     0.689884
      pz      :     0.031850  p :     0.156243
      px      :     0.050507
      py      :     0.073886
 11 H s       :     0.671449  s :     0.671449
      pz      :     0.095620  p :     0.175257
      px      :     0.043515
      py      :     0.036122
 12 O s       :     3.455222  s :     3.455222
      pz      :     1.508561  p :     4.750654
      px      :     1.524555
      py      :     1.717538
      dz2     :     0.022575  d :     0.061638
      dxz     :     0.007293
      dyz     :     0.007483
      dx2y2   :     0.009272
      dxy     :     0.015016
      f0      :     0.000879  f :     0.004978
      f+1     :     0.001008
      f-1     :     0.000745
      f+2     :     0.000389
      f-2     :     0.000421
      f+3     :     0.000407
      f-3     :     0.001128
 13 H s       :     0.666460  s :     0.666460
      pz      :     0.082855  p :     0.161815
      px      :     0.036383
      py      :     0.042577
 14 H s       :     0.660737  s :     0.660737
      pz      :     0.030360  p :     0.160604
      px      :     0.074311
      py      :     0.055933


                      *****************************
                      * MAYER POPULATION ANALYSIS *
                      *****************************

  NA   - Mulliken gross atomic population
  ZA   - Total nuclear charge
  QA   - Mulliken gross atomic charge
  VA   - Mayer's total valence
  BVA  - Mayer's bonded valence
  FA   - Mayer's free valence

  ATOM       NA         ZA         QA         VA         BVA        FA
  0 O      8.7034     8.0000    -0.7034     2.0726     1.6853     0.3874
  1 H      0.6547     1.0000     0.3453     0.8997     0.8534     0.0462
  2 H      0.6413     1.0000     0.3587     0.8894     0.8414     0.0480
  3 O      8.7052     8.0000    -0.7052     2.0707     1.6833     0.3873
  4 H      0.6617     1.0000     0.3383     0.9046     0.8577     0.0469
  5 H      0.6337     1.0000     0.3663     0.8844     0.8370     0.0474
  6 O      8.7530     8.0000    -0.7530     2.0178     1.6251     0.3927
  7 H      0.6588     1.0000     0.3412     0.9038     0.8565     0.0473
  8 H      0.6131     1.0000     0.3869     0.8889     0.8424     0.0465
  9 O      8.7102     8.0000    -0.7102     2.0598     1.6703     0.3895
 10 H      0.6852     1.0000     0.3148     0.9236     0.8723     0.0513
 11 H      0.6173     1.0000     0.3827     0.8886     0.8443     0.0443
 12 O      8.6991     8.0000    -0.6991     2.0821     1.6966     0.3855
 13 H      0.6362     1.0000     0.3638     0.8880     0.8420     0.0460
 14 H      0.6274     1.0000     0.3726     0.8782     0.8331     0.0451

  Mayer bond orders larger than 0.100000
B(  0-O ,  1-H ) :   0.8482 B(  0-O ,  2-H ) :   0.8333 B(  3-O ,  4-H ) :   0.8523 
B(  3-O ,  5-H ) :   0.8279 B(  6-O ,  7-H ) :   0.8489 B(  6-O ,  8-H ) :   0.7745 
B(  9-O , 10-H ) :   0.8620 B(  9-O , 11-H ) :   0.8077 B( 12-O , 13-H ) :   0.8331 
B( 12-O , 14-H ) :   0.8280 


                *******************************************
                * RELAXED MP2 DENSITY POPULATION ANALYSIS *
                *******************************************

------------------------------------------------------------------------------
                           ORCA POPULATION ANALYSIS
------------------------------------------------------------------------------
Input electron density              ... 12h2o.su.etal.mol0,1,2,5,8-orca.engrad-mp2.def2tzvp.frozencore.pmp2re
BaseName (.gbw .S,...)              ... 12h2o.su.etal.mol0,1,2,5,8-orca.engrad-mp2.def2tzvp.frozencore

                    ********************************
                    * MULLIKEN POPULATION ANALYSIS *
                    ********************************

-----------------------
MULLIKEN ATOMIC CHARGES
-----------------------
   0 O :   -0.689425
   1 H :    0.338982
   2 H :    0.351679
   3 O :   -0.691738
   4 H :    0.332347
   5 H :    0.358326
   6 O :   -0.729915
   7 H :    0.334701
   8 H :    0.365376
   9 O :   -0.691929
  10 H :    0.307664
  11 H :    0.366537
  12 O :   -0.676521
  13 H :    0.357352
  14 H :    0.366567
Sum of atomic charges:   -0.0000000

--------------------------------
MULLIKEN REDUCED ORBITAL CHARGES
--------------------------------
  0 O s       :     3.814585  s :     3.814585
      pz      :     1.704252  p :     4.821305
      px      :     1.341607
      py      :     1.775446
      dz2     :     0.009400  d :     0.049524
      dxz     :     0.009400
      dyz     :     0.010918
      dx2y2   :     0.007588
      dxy     :     0.012218
      f0      :     0.000455  f :     0.004011
      f+1     :     0.000684
      f-1     :     0.000546
      f+2     :     0.000435
      f-2     :     0.000699
      f+3     :     0.000463
      f-3     :     0.000727
  1 H s       :     0.612872  s :     0.612872
      pz      :     0.017783  p :     0.048146
      px      :     0.013941
      py      :     0.016422
  2 H s       :     0.603971  s :     0.603971
      pz      :     0.012956  p :     0.044351
      px      :     0.016754
      py      :     0.014640
  3 O s       :     3.814268  s :     3.814268
      pz      :     1.703366  p :     4.823957
      px      :     1.345940
      py      :     1.774652
      dz2     :     0.009548  d :     0.049502
      dxz     :     0.009594
      dyz     :     0.010873
      dx2y2   :     0.007574
      dxy     :     0.011914
      f0      :     0.000456  f :     0.004012
      f+1     :     0.000686
      f-1     :     0.000547
      f+2     :     0.000435
      f-2     :     0.000700
      f+3     :     0.000463
      f-3     :     0.000725
  4 H s       :     0.619297  s :     0.619297
      pz      :     0.018030  p :     0.048356
      px      :     0.013872
      py      :     0.016454
  5 H s       :     0.597514  s :     0.597514
      pz      :     0.012914  p :     0.044161
      px      :     0.016878
      py      :     0.014369
  6 O s       :     3.806585  s :     3.806585
      pz      :     1.687018  p :     4.870539
      px      :     1.792713
      py      :     1.390808
      dz2     :     0.009177  d :     0.048841
      dxz     :     0.010679
      dyz     :     0.009147
      dx2y2   :     0.007706
      dxy     :     0.012132
      f0      :     0.000449  f :     0.003950
      f+1     :     0.000536
      f-1     :     0.000661
      f+2     :     0.000439
      f-2     :     0.000696
      f+3     :     0.000707
      f-3     :     0.000462
  7 H s       :     0.616988  s :     0.616988
      pz      :     0.017465  p :     0.048311
      px      :     0.016424
      py      :     0.014423
  8 H s       :     0.576061  s :     0.576061
      pz      :     0.012131  p :     0.058563
      px      :     0.015521
      py      :     0.030911
  9 O s       :     3.807092  s :     3.807092
      pz      :     1.571135  p :     4.831303
      px      :     1.855517
      py      :     1.404652
      dz2     :     0.015099  d :     0.049580
      dxz     :     0.008158
      dyz     :     0.007874
      dx2y2   :     0.008242
      dxy     :     0.010207
      f0      :     0.000533  f :     0.003955
      f+1     :     0.000492
      f-1     :     0.000779
      f+2     :     0.000440
      f-2     :     0.000403
      f+3     :     0.000818
      f-3     :     0.000491
 10 H s       :     0.645478  s :     0.645478
      pz      :     0.012455  p :     0.046858
      px      :     0.017256
      py      :     0.017146
 11 H s       :     0.582106  s :     0.582106
      pz      :     0.024157  p :     0.051357
      px      :     0.014983
      py      :     0.012218
 12 O s       :     3.797497  s :     3.797497
      pz      :     1.513347  p :     4.824154
      px      :     1.546417
      py      :     1.764390
      dz2     :     0.016283  d :     0.050911
      dxz     :     0.006563
      dyz     :     0.008052
      dx2y2   :     0.008098
      dxy     :     0.011915
      f0      :     0.000611  f :     0.003960
      f+1     :     0.000738
      f-1     :     0.000530
      f+2     :     0.000414
      f-2     :     0.000421
      f+3     :     0.000429
      f-3     :     0.000818
 13 H s       :     0.596693  s :     0.596693
      pz      :     0.018714  p :     0.045955
      px      :     0.012926
      py      :     0.014315
 14 H s       :     0.588079  s :     0.588079
      pz      :     0.011501  p :     0.045354
      px      :     0.018171
      py      :     0.015682


                     *******************************
                     * LOEWDIN POPULATION ANALYSIS *
                     *******************************

----------------------
LOEWDIN ATOMIC CHARGES
----------------------
   0 O :   -0.340325
   1 H :    0.158239
   2 H :    0.183522
   3 O :   -0.342041
   4 H :    0.155160
   5 H :    0.185294
   6 O :   -0.338026
   7 H :    0.152749
   8 H :    0.142466
   9 O :   -0.346750
  10 H :    0.155150
  11 H :    0.148759
  12 O :   -0.267516
  13 H :    0.173014
  14 H :    0.180305

-------------------------------
LOEWDIN REDUCED ORBITAL CHARGES
-------------------------------
  0 O s       :     3.473834  s :     3.473834
      pz      :     1.695627  p :     4.803043
      px      :     1.349275
      py      :     1.758141
      dz2     :     0.010181  d :     0.058569
      dxz     :     0.012262
      dyz     :     0.011524
      dx2y2   :     0.009116
      dxy     :     0.015486
      f0      :     0.000456  f :     0.004878
      f+1     :     0.000875
      f-1     :     0.000659
      f+2     :     0.000408
      f-2     :     0.001028
      f+3     :     0.000475
      f-3     :     0.000976
  1 H s       :     0.675879  s :     0.675879
      pz      :     0.067364  p :     0.165882
      px      :     0.044034
      py      :     0.054484
  2 H s       :     0.665615  s :     0.665615
      pz      :     0.034879  p :     0.150863
      px      :     0.070589
      py      :     0.045395
  3 O s       :     3.473753  s :     3.473753
      pz      :     1.693727  p :     4.804858
      px      :     1.351062
      py      :     1.760069
      dz2     :     0.010236  d :     0.058553
      dxz     :     0.012540
      dyz     :     0.011539
      dx2y2   :     0.009069
      dxy     :     0.015170
      f0      :     0.000458  f :     0.004877
      f+1     :     0.000873
      f-1     :     0.000660
      f+2     :     0.000409
      f-2     :     0.001036
      f+3     :     0.000476
      f-3     :     0.000965
  4 H s       :     0.678824  s :     0.678824
      pz      :     0.067584  p :     0.166016
      px      :     0.044003
      py      :     0.054429
  5 H s       :     0.663692  s :     0.663692
      pz      :     0.034817  p :     0.151013
      px      :     0.071028
      py      :     0.045168
  6 O s       :     3.460378  s :     3.460378
      pz      :     1.660654  p :     4.815011
      px      :     1.768323
      py      :     1.386034
      dz2     :     0.010526  d :     0.057817
      dxz     :     0.011486
      dyz     :     0.012156
      dx2y2   :     0.008928
      dxy     :     0.014721
      f0      :     0.000472  f :     0.004821
      f+1     :     0.000650
      f-1     :     0.000858
      f+2     :     0.000412
      f-2     :     0.001030
      f+3     :     0.000922
      f-3     :     0.000477
  7 H s       :     0.679036  s :     0.679036
      pz      :     0.067167  p :     0.168215
      px      :     0.054982
      py      :     0.046066
  8 H s       :     0.660638  s :     0.660638
      pz      :     0.035170  p :     0.196897
      px      :     0.049142
      py      :     0.112584
  9 O s       :     3.469752  s :     3.469752
      pz      :     1.564141  p :     4.813625
      px      :     1.818829
      py      :     1.430656
      dz2     :     0.019498  d :     0.058499
      dxz     :     0.007175
      dyz     :     0.008969
      dx2y2   :     0.010102
      dxy     :     0.012757
      f0      :     0.000751  f :     0.004874
      f+1     :     0.000590
      f-1     :     0.001169
      f+2     :     0.000416
      f-2     :     0.000410
      f+3     :     0.001085
      f-3     :     0.000453
 10 H s       :     0.687905  s :     0.687905
      pz      :     0.032534  p :     0.156945
      px      :     0.051371
      py      :     0.073039
 11 H s       :     0.675612  s :     0.675612
      pz      :     0.095064  p :     0.175629
      px      :     0.044461
      py      :     0.036104
 12 O s       :     3.456686  s :     3.456686
      pz      :     1.510759  p :     4.745219
      px      :     1.526420
      py      :     1.708040
      dz2     :     0.021865  d :     0.060616
      dxz     :     0.007156
      dyz     :     0.007522
      dx2y2   :     0.009333
      dxy     :     0.014740
      f0      :     0.000877  f :     0.004995
      f+1     :     0.001015
      f-1     :     0.000745
      f+2     :     0.000391
      f-2     :     0.000421
      f+3     :     0.000409
      f-3     :     0.001136
 13 H s       :     0.665152  s :     0.665152
      pz      :     0.081971  p :     0.161834
      px      :     0.036552
      py      :     0.043310
 14 H s       :     0.659286  s :     0.659286
      pz      :     0.030645  p :     0.160409
      px      :     0.073459
      py      :     0.056304


                      *****************************
                      * MAYER POPULATION ANALYSIS *
                      *****************************

  NA   - Mulliken gross atomic population
  ZA   - Total nuclear charge
  QA   - Mulliken gross atomic charge
  VA   - Mayer's total valence
  BVA  - Mayer's bonded valence
  FA   - Mayer's free valence

  ATOM       NA         ZA         QA         VA         BVA        FA
  0 O      8.6894     8.0000    -0.6894     2.0788     1.6963     0.3825
  1 H      0.6610     1.0000     0.3390     0.9042     0.8578     0.0463
  2 H      0.6483     1.0000     0.3517     0.8956     0.8476     0.0480
  3 O      8.6917     8.0000    -0.6917     2.0761     1.6936     0.3825
  4 H      0.6677     1.0000     0.3323     0.9088     0.8619     0.0469
  5 H      0.6417     1.0000     0.3583     0.8918     0.8445     0.0474
  6 O      8.7299     8.0000    -0.7299     2.0400     1.6528     0.3872
  7 H      0.6653     1.0000     0.3347     0.9081     0.8607     0.0474
  8 H      0.6346     1.0000     0.3654     0.9148     0.8691     0.0457
  9 O      8.6919     8.0000    -0.6919     2.0710     1.6866     0.3843
 10 H      0.6923     1.0000     0.3077     0.9305     0.8793     0.0512
 11 H      0.6335     1.0000     0.3665     0.9111     0.8672     0.0439
 12 O      8.6765     8.0000    -0.6765     2.1108     1.7310     0.3797
 13 H      0.6426     1.0000     0.3574     0.8939     0.8480     0.0460
 14 H      0.6334     1.0000     0.3666     0.8827     0.8375     0.0452

  Mayer bond orders larger than 0.100000
B(  0-O ,  1-H ) :   0.8523 B(  0-O ,  2-H ) :   0.8373 B(  3-O ,  4-H ) :   0.8563 
B(  3-O ,  5-H ) :   0.8324 B(  6-O ,  7-H ) :   0.8517 B(  6-O ,  8-H ) :   0.7748 
B(  9-O , 10-H ) :   0.8646 B(  9-O , 11-H ) :   0.8130 B( 12-O , 13-H ) :   0.8365 
B( 12-O , 14-H ) :   0.8317 


----------------------------------
MP2 DERIVATIVE INTEGRAL GENERATION
----------------------------------


Input Wavefunction Amplitudes       ... 12h2o.su.etal.mol0,1,2,5,8-orca.engrad-mp2.def2tzvp.frozencore.mp2tsaa.tmp
Input Correlated Electron Density   ... 12h2o.su.etal.mol0,1,2,5,8-orca.engrad-mp2.def2tzvp.frozencore.pmp2re
Input Energy Weighted Density       ... 12h2o.su.etal.mol0,1,2,5,8-orca.engrad-mp2.def2tzvp.frozencore.wmp2.tmp
Input SCF Electron Density          ... 12h2o.su.etal.mol0,1,2,5,8-orca.engrad-mp2.def2tzvp.frozencore.scfp

One-Electron Terms    ...
                        ... One-Electron Terms done
Prescreening matrices              ... done

Batch handling in the gradient evaluation:
Memory available                      ... 8000.0 MB
Memory per occupied orbital in Q2     ...    7.1 MB
Memory per occupied orbital in Q3     ...    0.1 MB
Total memory requirement per |i>      ...    7.1 MB
Max. Number of orbitals possible      ...   1121
Number of orbitals treated per batch  ...     20
Number of batches to be done          ...      1
Batch   0: i=    5 ...    24

---------------------------------------
MP2 TOTAL ENERGY:     -381.581229473 Eh
---------------------------------------

The final MP2 gradient
  0:   0.02666508  -0.00864609   0.00197772
  1:   0.00248833  -0.00161567  -0.00133294
  2:  -0.02791204   0.01076614   0.00038471
  3:  -0.02629284   0.00547563  -0.00218197
  4:  -0.00277456   0.00204697  -0.00074461
  5:   0.02794310  -0.00842509   0.00395687
  6:  -0.00596842  -0.00812840   0.00019315
  7:  -0.00035560  -0.00109117   0.00070765
  8:   0.00645231   0.01799669   0.00276115
  9:  -0.01092210  -0.01650165  -0.00117201
 10:   0.00831735   0.02000098  -0.00314740
 11:   0.00429238  -0.00401153   0.00017779
 12:   0.00531466  -0.01088110  -0.00902335
 13:  -0.00008368  -0.00084036   0.00686704
 14:  -0.00716394   0.00385464   0.00057620

-----------------------------------
NORM OF THE MP2 GRADIENT:  0.070902
-----------------------------------

-------------------------   --------------------
FINAL SINGLE POINT ENERGY      -381.581229472740
-------------------------   --------------------


                            ***************************************
                            *     ORCA property calculations      *
                            ***************************************

                                    ---------------------
                                    Active property flags
                                    ---------------------
   (+) Dipole Moment


------------------------------------------------------------------------------
                       ORCA ELECTRIC PROPERTIES CALCULATION
------------------------------------------------------------------------------

Dipole Moment Calculation                       ... on
Quadrupole Moment Calculation                   ... off
Polarizability Calculation                      ... off
GBWName                                         ... 12h2o.su.etal.mol0,1,2,5,8-orca.engrad-mp2.def2tzvp.frozencore.gbw
Electron density file                           ... 12h2o.su.etal.mol0,1,2,5,8-orca.engrad-mp2.def2tzvp.frozencore.scfp
The origin for moment calculation is the CENTER OF MASS  = ( 1.363114, -1.020996 -0.014590)

-------------
DIPOLE MOMENT
-------------
                                X             Y             Z
Electronic contribution:     -0.03280       0.05528      -0.27411
Nuclear contribution   :      0.67812       1.32903       0.54442
                        -----------------------------------------
Total Dipole Moment    :      0.64533       1.38432       0.27032
                        -----------------------------------------
Magnitude (a.u.)       :      1.55108
Magnitude (Debye)      :      3.94253



--------------------
Rotational spectrum 
--------------------
 
Rotational constants in cm-1:     0.069264     0.025286     0.020703 
Rotational constants in MHz :  2076.488567   758.064353   620.645526 

 Dipole components along the rotational axes: 
x,y,z [a.u.] :     0.169689    -1.485534    -0.412600 
x,y,z [Debye]:     0.431316    -3.775927    -1.048747 

 

                         *** MP2 UNRELAXED DENSITY ***

------------------------------------------------------------------------------
                       ORCA ELECTRIC PROPERTIES CALCULATION
------------------------------------------------------------------------------

Dipole Moment Calculation                       ... on
Quadrupole Moment Calculation                   ... off
Polarizability Calculation                      ... off
GBWName                                         ... 12h2o.su.etal.mol0,1,2,5,8-orca.engrad-mp2.def2tzvp.frozencore.gbw
Electron density file                           ... 12h2o.su.etal.mol0,1,2,5,8-orca.engrad-mp2.def2tzvp.frozencore.pmp2ur
The origin for moment calculation is the CENTER OF MASS  = ( 1.363114, -1.020996 -0.014590)

-------------
DIPOLE MOMENT
-------------
                                X             Y             Z
Electronic contribution:     -0.03961       0.04411      -0.28180
Nuclear contribution   :      0.67812       1.32903       0.54442
                        -----------------------------------------
Total Dipole Moment    :      0.63852       1.37314       0.26263
                        -----------------------------------------
Magnitude (a.u.)       :      1.53695
Magnitude (Debye)      :      3.90660



--------------------
Rotational spectrum 
--------------------
 
Rotational constants in cm-1:     0.069264     0.025286     0.020703 
Rotational constants in MHz :  2076.488567   758.064353   620.645526 

 Dipole components along the rotational axes: 
x,y,z [a.u.] :     0.163476    -1.471716    -0.411739 
x,y,z [Debye]:     0.415522    -3.740804    -1.046558 

 

                           *** MP2 RELAXED DENSITY ***

------------------------------------------------------------------------------
                       ORCA ELECTRIC PROPERTIES CALCULATION
------------------------------------------------------------------------------

Dipole Moment Calculation                       ... on
Quadrupole Moment Calculation                   ... off
Polarizability Calculation                      ... off
GBWName                                         ... 12h2o.su.etal.mol0,1,2,5,8-orca.engrad-mp2.def2tzvp.frozencore.gbw
Electron density file                           ... 12h2o.su.etal.mol0,1,2,5,8-orca.engrad-mp2.def2tzvp.frozencore.pmp2re
The origin for moment calculation is the CENTER OF MASS  = ( 1.363114, -1.020996 -0.014590)

-------------
DIPOLE MOMENT
-------------
                                X             Y             Z
Electronic contribution:     -0.04768       0.04525      -0.29941
Nuclear contribution   :      0.67812       1.32903       0.54442
                        -----------------------------------------
Total Dipole Moment    :      0.63044       1.37428       0.24501
                        -----------------------------------------
Magnitude (a.u.)       :      1.53171
Magnitude (Debye)      :      3.89330



--------------------
Rotational spectrum 
--------------------
 
Rotational constants in cm-1:     0.069264     0.025286     0.020703 
Rotational constants in MHz :  2076.488567   758.064353   620.645526 

 Dipole components along the rotational axes: 
x,y,z [a.u.] :     0.148869    -1.464752    -0.422465 
x,y,z [Debye]:     0.378394    -3.723104    -1.073820 

 

Timings for individual modules:

Sum of individual times         ...       23.930 sec (=   0.399 min)
GTO integral calculation        ...        0.918 sec (=   0.015 min)   3.8 %
SCF iterations                  ...        6.030 sec (=   0.101 min)  25.2 %
MP2 module                      ...       16.982 sec (=   0.283 min)  71.0 %
                             ****ORCA TERMINATED NORMALLY****
TOTAL RUN TIME: 0 days 0 hours 0 minutes 25 seconds 119 msec
