
                                 *****************
                                 * O   R   C   A *
                                 *****************

           --- An Ab Initio, DFT and Semiempirical electronic structure package ---

                  #######################################################
                  #                        -***-                        #
                  #          Department of theory and spectroscopy      #
                  #               Directorship: Frank Neese             #
                  #        Max Planck Institute fuer Kohlenforschung    #
                  #                Kaiser Wilhelm Platz 1               #
                  #                 D-45470 Muelheim/Ruhr               #
                  #                      Germany                        #
                  #                                                     #
                  #                  All rights reserved                #
                  #                        -***-                        #
                  #######################################################


                         Program Version 4.2.0 -  RELEASE  -


 With contributions from (in alphabetic order):
   Daniel Aravena         : Magnetic Suceptibility
   Michael Atanasov       : Ab Initio Ligand Field Theory (pilot matlab implementation)
   Alexander A. Auer      : GIAO ZORA, VPT2
   Ute Becker             : Parallelization
   Giovanni Bistoni       : ED, misc. LED, open-shell LED, HFLED
   Martin Brehm           : Molecular dynamics
   Dmytro Bykov           : SCF Hessian
   Vijay G. Chilkuri      : MRCI spin determinant printing, contributions to CSF-ICE
   Dipayan Datta          : RHF DLPNO-CCSD density
   Achintya Kumar Dutta   : EOM-CC, STEOM-CC
   Dmitry Ganyushin       : Spin-Orbit,Spin-Spin,Magnetic field MRCI
   Miquel Garcia          : C-PCM Hessian, Gaussian charge scheme
   Yang Guo               : DLPNO-NEVPT2, CIM, IAO-localization
   Andreas Hansen         : Spin unrestricted coupled pair/coupled cluster methods
   Benjamin Helmich-Paris : CASSCF linear response (MC-RPA)
   Lee Huntington         : MR-EOM, pCC
   Robert Izsak           : Overlap fitted RIJCOSX, COSX-SCS-MP3, EOM
   Christian Kollmar      : KDIIS, OOCD, Brueckner-CCSD(T), CCSD density
   Simone Kossmann        : Meta GGA functionals, TD-DFT gradient, OOMP2, MP2 Hessian
   Martin Krupicka        : AUTO-CI
   Lucas Lang             : DCDCAS
   Dagmar Lenk            : GEPOL surface, SMD
   Dimitrios Liakos       : Extrapolation schemes; Compound Job, initial MDCI parallelization
   Dimitrios Manganas     : Further ROCIS development; embedding schemes
   Dimitrios Pantazis     : SARC Basis sets
   Taras Petrenko         : DFT Hessian,TD-DFT gradient, ASA, ECA, R-Raman, ABS, FL, XAS/XES, NRVS
   Peter Pinski           : DLPNO-MP2, DLPNO-MP2 Gradient
   Christoph Reimann      : Effective Core Potentials
   Marius Retegan         : Local ZFS, SOC
   Christoph Riplinger    : Optimizer, TS searches, QM/MM, DLPNO-CCSD(T), (RO)-DLPNO pert. Triples
   Tobias Risthaus        : Range-separated hybrids, TD-DFT gradient, RPA, STAB
   Michael Roemelt        : Original ROCIS implementation
   Masaaki Saitow         : Open-shell DLPNO-CCSD energy and density
   Barbara Sandhoefer     : DKH picture change effects
   Avijit Sen             : IP-ROCIS
   Kantharuban Sivalingam : CASSCF convergence, NEVPT2, FIC-MRCI
   Bernardo de Souza      : ESD, SOC TD-DFT
   Georgi Stoychev        : AutoAux, RI-MP2 NMR
   Willem Van den Heuvel  : Paramagnetic NMR
   Boris Wezisla          : Elementary symmetry handling
   Frank Wennmohs         : Technical directorship


 We gratefully acknowledge several colleagues who have allowed us to
 interface, adapt or use parts of their codes:
   Stefan Grimme, W. Hujo, H. Kruse,             : VdW corrections, initial TS optimization,
                  C. Bannwarth                     DFT functionals, gCP, sTDA/sTD-DF
   Ed Valeev, F. Pavosevic, A. Kumar             : LibInt (2-el integral package), F12 methods
   Garnet Chan, S. Sharma, J. Yang, R. Olivares  : DMRG
   Ulf Ekstrom                                   : XCFun DFT Library
   Mihaly Kallay                                 : mrcc  (arbitrary order and MRCC methods)
   Andreas Klamt, Michael Diedenhofen            : otool_cosmo (COSMO solvation model)
   Jiri Pittner, Ondrej Demel                    : Mk-CCSD
   Frank Weinhold                                : gennbo (NPA and NBO analysis)
   Christopher J. Cramer and Donald G. Truhlar   : smd solvation model
   Lars Goerigk                                  : TD-DFT with DH, B97 family of functionals
   V. Asgeirsson, H. Jonsson                     : NEB implementation
   FAccTs GmbH                                   : IRC, NEB, NEB-TS, Multilevel, MM, QM/MM, CI optimization
   S Lehtola, MJT Oliveira, MAL Marques          : LibXC Library


 Your calculation uses the libint2 library for the computation of 2-el integrals
 For citations please refer to: http://libint.valeyev.net

 Your ORCA version has been built with support for libXC version: 4.2.3
 For citations please refer to: https://tddft.org/programs/libxc/

 This ORCA versions uses:
   CBLAS   interface :  Fast vector & matrix operations
   LAPACKE interface :  Fast linear algebra routines
   SCALAPACK package :  Parallel linear algebra routines


----- Orbital basis set information -----
Your calculation utilizes the basis: def2-TZVP
   F. Weigend and R. Ahlrichs, Phys. Chem. Chem. Phys. 7, 3297 (2005).

================================================================================
                                        WARNINGS
                       Please study these warnings very carefully!
================================================================================


WARNING: The frozen-core approximation for MP2-gradient calculations is turned on by default.

INFO   : the flag for use of LIBINT has been found!

================================================================================
                                       INPUT FILE
================================================================================
NAME = 12h2o.su.etal.mol0,1,7,8,9,10-orca.engrad-mp2.def2tzvp.frozencore.inp
|  1> # 12h2o.su.etal.mol0,1,7,8,9,10
|  2> ! MP2 def2-TZVP EnGrad TightSCF
|  3> 
|  4> %pal
|  5>     nprocs 6
|  6> end
|  7> 
|  8> %maxcore 8000
|  9> 
| 10> %scf
| 11>     ConvForced true
| 12> end
| 13> 
| 14> *xyz 0 1
| 15> O   1.794470000   0.923410000   2.768350000
| 16> H   2.338250000   1.359750000   3.430940000
| 17> H   0.879480000   1.303000000   2.865760000
| 18> O  -1.794470000  -0.923410000   2.768350000
| 19> H  -2.338250000  -1.359750000   3.430940000
| 20> H  -0.879480000  -1.303000000   2.865760000
| 21> O  -1.737840000  -0.885520000  -0.052730000
| 22> H  -2.090180000  -1.032320000   0.841890000
| 23> H  -0.839590000  -1.284090000  -0.017130000
| 24> O   1.752130000   0.741530000  -2.896280000
| 25> H   2.036450000   0.920500000  -1.984040000
| 26> H   0.921210000   1.242140000  -2.984230000
| 27> O   0.741530000  -1.752130000   2.896280000
| 28> H   0.920500000  -2.036450000   1.984040000
| 29> H   1.242140000  -0.921210000   2.984230000
| 30> O  -0.923410000   1.794470000  -2.768350000
| 31> H  -1.359750000   2.338250000  -3.430940000
| 32> H  -1.303000000   0.879480000  -2.865760000
| 33> *
| 34> 
| 35>                          ****END OF INPUT****
================================================================================

                     *******************************
                     * Energy+Gradient Calculation *
                     *******************************

---------------------------------
CARTESIAN COORDINATES (ANGSTROEM)
---------------------------------
  O      1.794470    0.923410    2.768350
  H      2.338250    1.359750    3.430940
  H      0.879480    1.303000    2.865760
  O     -1.794470   -0.923410    2.768350
  H     -2.338250   -1.359750    3.430940
  H     -0.879480   -1.303000    2.865760
  O     -1.737840   -0.885520   -0.052730
  H     -2.090180   -1.032320    0.841890
  H     -0.839590   -1.284090   -0.017130
  O      1.752130    0.741530   -2.896280
  H      2.036450    0.920500   -1.984040
  H      0.921210    1.242140   -2.984230
  O      0.741530   -1.752130    2.896280
  H      0.920500   -2.036450    1.984040
  H      1.242140   -0.921210    2.984230
  O     -0.923410    1.794470   -2.768350
  H     -1.359750    2.338250   -3.430940
  H     -1.303000    0.879480   -2.865760

----------------------------
CARTESIAN COORDINATES (A.U.)
----------------------------
  NO LB      ZA    FRAG     MASS         X           Y           Z
   0 O     8.0000    0    15.999    3.391057    1.744992    5.231423
   1 H     1.0000    0     1.008    4.418652    2.569555    6.483537
   2 H     1.0000    0     1.008    1.661976    2.462313    5.415502
   3 O     8.0000    0    15.999   -3.391057   -1.744992    5.231423
   4 H     1.0000    0     1.008   -4.418652   -2.569555    6.483537
   5 H     1.0000    0     1.008   -1.661976   -2.462313    5.415502
   6 O     8.0000    0    15.999   -3.284042   -1.673390   -0.099645
   7 H     1.0000    0     1.008   -3.949868   -1.950802    1.590942
   8 H     1.0000    0     1.008   -1.586595   -2.426578   -0.032371
   9 O     8.0000    0    15.999    3.311046    1.401289   -5.473176
  10 H     1.0000    0     1.008    3.848333    1.739493   -3.749292
  11 H     1.0000    0     1.008    1.740835    2.347304   -5.639377
  12 O     8.0000    0    15.999    1.401289   -3.311046    5.473176
  13 H     1.0000    0     1.008    1.739493   -3.848333    3.749292
  14 H     1.0000    0     1.008    2.347304   -1.740835    5.639377
  15 O     8.0000    0    15.999   -1.744992    3.391057   -5.231423
  16 H     1.0000    0     1.008   -2.569555    4.418652   -6.483537
  17 H     1.0000    0     1.008   -2.462313    1.661976   -5.415502

--------------------------------
INTERNAL COORDINATES (ANGSTROEM)
--------------------------------
 O      0   0   0     0.000000000000     0.00000000     0.00000000
 H      1   0   0     0.961828878803     0.00000000     0.00000000
 H      1   2   0     0.995381322057   106.21731035     0.00000000
 O      3   1   2     3.480861789658   117.35405144   223.81249033
 H      4   3   1     0.961828878803   134.84484566    98.22461471
 H      4   3   1     0.995381322057    62.29205096    12.66575463
 O      4   3   1     2.821902722526    90.22758737   277.30842366
 H      7   4   3     0.972645187106    21.75017499   197.82916336
 H      7   4   3     0.983350632989    88.66470709    63.67238574
 O      9   7   4     4.371458985888   109.26312757   223.52974092
 H     10   9   7     0.972136791249    68.94031212   113.05951721
 H     10   9   7     0.974050112161    77.98689035     2.91174493
 O      6   4   3     1.682356278379   171.61043709   328.33166207
 H     13   6   4     0.972136791249   103.79460456   289.35412162
 H     13   6   4     0.974050112161   105.61118924    38.30604821
 O     12  10   9     1.937600461318   161.54375213   354.62347450
 H     16  12  10     0.961828878803   121.08403650   202.75419110
 H     16  12  10     0.995381322057    95.17003195   315.21089530

---------------------------
INTERNAL COORDINATES (A.U.)
---------------------------
 O      0   0   0     0.000000000000     0.00000000     0.00000000
 H      1   0   0     1.817593168635     0.00000000     0.00000000
 H      1   2   0     1.880998097508   106.21731035     0.00000000
 O      3   1   2     6.577875492484   117.35405144   223.81249033
 H      4   3   1     1.817593168635   134.84484566    98.22461471
 H      4   3   1     1.880998097508    62.29205096    12.66575463
 O      4   3   1     5.332623322141    90.22758737   277.30842366
 H      7   4   3     1.838033029106    21.75017499   197.82916336
 H      7   4   3     1.858263389967    88.66470709    63.67238574
 O      9   7   4     8.260860288997   109.26312757   223.52974092
 H     10   9   7     1.837072300170    68.94031212   113.05951721
 H     10   9   7     1.840687952699    77.98689035     2.91174493
 O      6   4   3     3.179192625819   171.61043709   328.33166207
 H     13   6   4     1.837072300170   103.79460456   289.35412162
 H     13   6   4     1.840687952699   105.61118924    38.30604821
 O     12  10   9     3.661534228851   161.54375213   354.62347450
 H     16  12  10     1.817593168635   121.08403650   202.75419110
 H     16  12  10     1.880998097508    95.17003195   315.21089530

---------------------
BASIS SET INFORMATION
---------------------
There are 2 groups of distinct atoms

 Group   1 Type O   : 11s6p2d1f contracted to 5s3p2d1f pattern {62111/411/11/1}
 Group   2 Type H   : 5s1p contracted to 3s1p pattern {311/1}

Atom   0O    basis set group =>   1
Atom   1H    basis set group =>   2
Atom   2H    basis set group =>   2
Atom   3O    basis set group =>   1
Atom   4H    basis set group =>   2
Atom   5H    basis set group =>   2
Atom   6O    basis set group =>   1
Atom   7H    basis set group =>   2
Atom   8H    basis set group =>   2
Atom   9O    basis set group =>   1
Atom  10H    basis set group =>   2
Atom  11H    basis set group =>   2
Atom  12O    basis set group =>   1
Atom  13H    basis set group =>   2
Atom  14H    basis set group =>   2
Atom  15O    basis set group =>   1
Atom  16H    basis set group =>   2
Atom  17H    basis set group =>   2


           ************************************************************
           *        Program running with 6 parallel MPI-processes     *
           *              working on a common directory               *
           ************************************************************
------------------------------------------------------------------------------
                           ORCA GTO INTEGRAL CALCULATION
------------------------------------------------------------------------------

                         BASIS SET STATISTICS AND STARTUP INFO

 # of primitive gaussian shells          ...  192
 # of primitive gaussian functions       ...  372
 # of contracted shells                  ...  114
 # of contracted basis functions         ...  258
 Highest angular momentum                ...    3
 Maximum contraction depth               ...    6
 Integral package used                   ... LIBINT
 Integral threshhold            Thresh   ...  2.500e-11
 Primitive cut-off              TCut     ...  2.500e-12


------------------------------ INTEGRAL EVALUATION ----------------------------


 * One electron integrals 
 Pre-screening matrix                    ... done
 Shell pair data                         ... done (   0.001 sec)



           ************************************************************
           *        Program running with 6 parallel MPI-processes     *
           *              working on a common directory               *
           ************************************************************
-------------------------------------------------------------------------------
                                 ORCA SCF
-------------------------------------------------------------------------------

------------
SCF SETTINGS
------------
Hamiltonian:
 Ab initio Hamiltonian  Method          .... Hartree-Fock(GTOs)


General Settings:
 Integral files         IntName         .... 12h2o.su.etal.mol0,1,7,8,9,10-orca.engrad-mp2.def2tzvp.frozencore
 Hartree-Fock type      HFTyp           .... RHF
 Total Charge           Charge          ....    0
 Multiplicity           Mult            ....    1
 Number of Electrons    NEL             ....   60
 Basis Dimension        Dim             ....  258
 Nuclear Repulsion      ENuc            ....    242.3552951647 Eh

Convergence Acceleration:
 DIIS                   CNVDIIS         .... on
   Start iteration      DIISMaxIt       ....    12
   Startup error        DIISStart       ....  0.200000
   # of expansion vecs  DIISMaxEq       ....     5
   Bias factor          DIISBfac        ....   1.050
   Max. coefficient     DIISMaxC        ....  10.000
 Newton-Raphson         CNVNR           .... off
 SOSCF                  CNVSOSCF        .... on
   Start iteration      SOSCFMaxIt      ....   150
   Startup grad/error   SOSCFStart      ....  0.003300
 Level Shifting         CNVShift        .... on
   Level shift para.    LevelShift      ....    0.2500
   Turn off err/grad.   ShiftErr        ....    0.0010
 Zerner damping         CNVZerner       .... off
 Static damping         CNVDamp         .... on
   Fraction old density DampFac         ....    0.7000
   Max. Damping (<1)    DampMax         ....    0.9800
   Min. Damping (>=0)   DampMin         ....    0.0000
   Turn off err/grad.   DampErr         ....    0.1000
 Fernandez-Rico         CNVRico         .... off

SCF Procedure:
 Maximum # iterations   MaxIter         ....   125
 SCF integral mode      SCFMode         .... Direct
   Integral package                     .... LIBINT
 Reset frequency        DirectResetFreq ....    20
 Integral Threshold     Thresh          ....  2.500e-11 Eh
 Primitive CutOff       TCut            ....  2.500e-12 Eh

Convergence Tolerance:
 Convergence Check Mode ConvCheckMode   .... Total+1el-Energy
 Convergence forced     ConvForced      .... 1
 Energy Change          TolE            ....  1.000e-08 Eh
 1-El. energy change                    ....  1.000e-05 Eh
 Orbital Gradient       TolG            ....  1.000e-05
 Orbital Rotation angle TolX            ....  1.000e-05
 DIIS Error             TolErr          ....  5.000e-07


Diagonalization of the overlap matrix:
Smallest eigenvalue                        ... 4.165e-03
Time for diagonalization                   ...    0.014 sec
Threshold for overlap eigenvalues          ... 1.000e-08
Number of eigenvalues below threshold      ... 0
Time for construction of square roots      ...    0.009 sec
Total time needed                          ...    0.023 sec

-------------------
DFT GRID GENERATION
-------------------

General Integration Accuracy     IntAcc      ...  4.340
Radial Grid Type                 RadialGrid  ... Gauss-Chebyshev
Angular Grid (max. acc.)         AngularGrid ... Lebedev-110
Angular grid pruning method      GridPruning ... 3 (G Style)
Weight generation scheme         WeightScheme... Becke
Basis function cutoff            BFCut       ...    1.0000e-11
Integration weight cutoff        WCut        ...    1.0000e-14
Grids for H and He will be reduced by one unit

# of grid points (after initial pruning)     ...  19824 (   0.0 sec)
# of grid points (after weights+screening)   ...  18914 (   0.0 sec)
nearest neighbour list constructed           ...    0.0 sec
Grid point re-assignment to atoms done       ...    0.0 sec
Grid point division into batches done        ...    0.0 sec
Reduced shell lists constructed in    0.0 sec

Total number of grid points                  ...    18914
Total number of batches                      ...      303
Average number of points per batch           ...       62
Average number of grid points per atom       ...     1051
Average number of shells per batch           ...    50.19 (44.03%)
Average number of basis functions per batch  ...    98.00 (37.98%)
Average number of large shells per batch     ...    33.63 (67.01%)
Average number of large basis fcns per batch ...    65.83 (67.17%)
Maximum spatial batch extension              ...  14.53, 15.72, 17.28 au
Average spatial batch extension              ...   0.62,  0.66,  0.64 au

Time for grid setup =    0.052 sec

------------------------------
INITIAL GUESS: MODEL POTENTIAL
------------------------------
Loading Hartree-Fock densities                     ... done
Calculating cut-offs                               ... done
Setting up the integral package                    ... done
Initializing the effective Hamiltonian             ... done
Starting the Coulomb interaction                   ... done (   0.0 sec)
Reading the grid                                   ... done
Mapping shells                                     ... done
Starting the XC term evaluation                    ... done (   0.0 sec)
Transforming the Hamiltonian                       ... done (   0.0 sec)
Diagonalizing the Hamiltonian                      ... done (   0.0 sec)
Back transforming the eigenvectors                 ... done (   0.0 sec)
Now organizing SCF variables                       ... done
                      ------------------
                      INITIAL GUESS DONE (   0.2 sec)
                      ------------------
--------------
SCF ITERATIONS
--------------
ITER       Energy         Delta-E        Max-DP      RMS-DP      [F,P]     Damp
               ***  Starting incremental Fock matrix formation  ***
  0   -455.8198064098   0.000000000000 0.04339718  0.00097626  0.3492902 0.7000
  1   -456.0363351539  -0.216528744072 0.02891858  0.00067333  0.2163186 0.7000
                               ***Turning on DIIS***
  2   -456.1503567364  -0.114021582528 0.01681504  0.00037252  0.1636347 0.7000
  3   -457.1679484973  -1.017591760956 0.00772865  0.00016635  0.1217954 0.7000
  4   -456.9598601781   0.208088319255 0.01701574  0.00038306  0.0861599 0.0000
  5   -456.4120345580   0.547825620050 0.00208658  0.00006197  0.0058877 0.0000
                      *** Initiating the SOSCF procedure ***
                           *** Shutting down DIIS ***
                      *** Re-Reading the Fockian *** 
                      *** Removing any level shift *** 
ITER      Energy       Delta-E        Grad      Rot      Max-DP    RMS-DP
  6   -456.37959862   0.0324359363  0.000917  0.000917  0.001365  0.000038
               *** Restarting incremental Fock matrix formation ***
  7   -456.36962557   0.0099730549  0.000303  0.000435  0.000651  0.000017
  8   -456.36963451  -0.0000089414  0.000142  0.000355  0.000500  0.000014
  9   -456.36963666  -0.0000021477  0.000059  0.000045  0.000095  0.000002
 10   -456.36963683  -0.0000001753  0.000009  0.000007  0.000018  0.000000
                  ***Gradient check signals convergence***
              ***Rediagonalizing the Fockian in SOSCF/NRSCF***

               *****************************************************
               *                     SUCCESS                       *
               *           SCF CONVERGED AFTER  11 CYCLES          *
               *****************************************************


----------------
TOTAL SCF ENERGY
----------------

Total Energy       :         -456.36963684 Eh          -12418.44916 eV

Components:
Nuclear Repulsion  :          242.35529516 Eh            6594.82286 eV
Electronic Energy  :         -698.72493200 Eh          -19013.27202 eV
One Electron Energy:        -1113.04826928 Eh          -30287.58320 eV
Two Electron Energy:          414.32333728 Eh           11274.31118 eV

Virial components:
Potential Energy   :         -912.06806589 Eh          -24818.63383 eV
Kinetic Energy     :          455.69842905 Eh           12400.18467 eV
Virial Ratio       :            2.00147292


---------------
SCF CONVERGENCE
---------------

  Last Energy change         ...   -4.1333e-09  Tolerance :   1.0000e-08
  Last MAX-Density change    ...    4.0960e-06  Tolerance :   1.0000e-07
  Last RMS-Density change    ...    1.2555e-07  Tolerance :   5.0000e-09
  Last Orbital Gradient      ...    1.9682e-06  Tolerance :   1.0000e-05
  Last Orbital Rotation      ...    2.4210e-06  Tolerance :   1.0000e-05

             **** THE GBW FILE WAS UPDATED (12h2o.su.etal.mol0,1,7,8,9,10-orca.engrad-mp2.def2tzvp.frozencore.gbw) ****
             **** DENSITY FILE WAS UPDATED (12h2o.su.etal.mol0,1,7,8,9,10-orca.engrad-mp2.def2tzvp.frozencore.scfp) ****
             **** ENERGY FILE WAS UPDATED (12h2o.su.etal.mol0,1,7,8,9,10-orca.engrad-mp2.def2tzvp.frozencore.en.tmp) ****
             **** THE GBW FILE WAS UPDATED (12h2o.su.etal.mol0,1,7,8,9,10-orca.engrad-mp2.def2tzvp.frozencore.gbw) ****
             **** DENSITY FILE WAS UPDATED (12h2o.su.etal.mol0,1,7,8,9,10-orca.engrad-mp2.def2tzvp.frozencore.scfp) ****
----------------
ORBITAL ENERGIES
----------------

  NO   OCC          E(Eh)            E(eV) 
   0   2.0000     -20.602184      -560.6139 
   1   2.0000     -20.584447      -560.1313 
   2   2.0000     -20.573608      -559.8363 
   3   2.0000     -20.545822      -559.0802 
   4   2.0000     -20.530656      -558.6676 
   5   2.0000     -20.524717      -558.5059 
   6   2.0000      -1.382544       -37.6209 
   7   2.0000      -1.370895       -37.3039 
   8   2.0000      -1.351377       -36.7728 
   9   2.0000      -1.330572       -36.2067 
  10   2.0000      -1.308508       -35.6063 
  11   2.0000      -1.306985       -35.5649 
  12   2.0000      -0.749200       -20.3868 
  13   2.0000      -0.731959       -19.9176 
  14   2.0000      -0.718399       -19.5486 
  15   2.0000      -0.714020       -19.4295 
  16   2.0000      -0.677910       -18.4469 
  17   2.0000      -0.675750       -18.3881 
  18   2.0000      -0.630550       -17.1581 
  19   2.0000      -0.605996       -16.4900 
  20   2.0000      -0.591898       -16.1064 
  21   2.0000      -0.576720       -15.6934 
  22   2.0000      -0.551833       -15.0161 
  23   2.0000      -0.547817       -14.9069 
  24   2.0000      -0.543010       -14.7761 
  25   2.0000      -0.519824       -14.1451 
  26   2.0000      -0.511645       -13.9226 
  27   2.0000      -0.493373       -13.4254 
  28   2.0000      -0.476172       -12.9573 
  29   2.0000      -0.472486       -12.8570 
  30   0.0000       0.091628         2.4933 
  31   0.0000       0.121067         3.2944 
  32   0.0000       0.132438         3.6038 
  33   0.0000       0.156408         4.2561 
  34   0.0000       0.175674         4.7803 
  35   0.0000       0.188616         5.1325 
  36   0.0000       0.199764         5.4359 
  37   0.0000       0.229366         6.2414 
  38   0.0000       0.271388         7.3848 
  39   0.0000       0.291407         7.9296 
  40   0.0000       0.300532         8.1779 
  41   0.0000       0.332871         9.0579 
  42   0.0000       0.448160        12.1951 
  43   0.0000       0.475869        12.9491 
  44   0.0000       0.485497        13.2110 
  45   0.0000       0.501953        13.6588 
  46   0.0000       0.516404        14.0521 
  47   0.0000       0.530481        14.4351 
  48   0.0000       0.541979        14.7480 
  49   0.0000       0.548950        14.9377 
  50   0.0000       0.558593        15.2001 
  51   0.0000       0.575539        15.6612 
  52   0.0000       0.582888        15.8612 
  53   0.0000       0.595777        16.2119 
  54   0.0000       0.614603        16.7242 
  55   0.0000       0.627700        17.0806 
  56   0.0000       0.630110        17.1462 
  57   0.0000       0.639037        17.3891 
  58   0.0000       0.649198        17.6656 
  59   0.0000       0.653552        17.7841 
  60   0.0000       0.670150        18.2357 
  61   0.0000       0.697530        18.9808 
  62   0.0000       0.727408        19.7938 
  63   0.0000       0.731678        19.9100 
  64   0.0000       0.738247        20.0887 
  65   0.0000       0.757083        20.6013 
  66   0.0000       0.769025        20.9262 
  67   0.0000       0.774134        21.0653 
  68   0.0000       0.795287        21.6409 
  69   0.0000       0.805205        21.9107 
  70   0.0000       0.848530        23.0897 
  71   0.0000       0.853419        23.2227 
  72   0.0000       0.896655        24.3992 
  73   0.0000       0.907697        24.6997 
  74   0.0000       0.917869        24.9765 
  75   0.0000       0.962027        26.1781 
  76   0.0000       0.993760        27.0416 
  77   0.0000       1.030462        28.0403 
  78   0.0000       1.348275        36.6884 
  79   0.0000       1.385486        37.7010 
  80   0.0000       1.398190        38.0467 
  81   0.0000       1.400161        38.1003 
  82   0.0000       1.413731        38.4696 
  83   0.0000       1.415532        38.5186 
  84   0.0000       1.437436        39.1146 
  85   0.0000       1.452675        39.5293 
  86   0.0000       1.456310        39.6282 
  87   0.0000       1.482905        40.3519 
  88   0.0000       1.491756        40.5927 
  89   0.0000       1.500949        40.8429 
  90   0.0000       1.537347        41.8333 
  91   0.0000       1.558362        42.4052 
  92   0.0000       1.564480        42.5717 
  93   0.0000       1.609062        43.7848 
  94   0.0000       1.614033        43.9201 
  95   0.0000       1.653091        44.9829 
  96   0.0000       1.783999        48.5451 
  97   0.0000       1.812249        49.3138 
  98   0.0000       1.820655        49.5425 
  99   0.0000       1.850188        50.3462 
 100   0.0000       1.856325        50.5132 
 101   0.0000       1.875071        51.0233 
 102   0.0000       1.886048        51.3220 
 103   0.0000       1.900163        51.7061 
 104   0.0000       1.957716        53.2722 
 105   0.0000       1.969029        53.5800 
 106   0.0000       1.990519        54.1648 
 107   0.0000       2.000500        54.4364 
 108   0.0000       2.029469        55.2246 
 109   0.0000       2.040100        55.5140 
 110   0.0000       2.050260        55.7904 
 111   0.0000       2.108266        57.3688 
 112   0.0000       2.132268        58.0220 
 113   0.0000       2.153817        58.6083 
 114   0.0000       2.230980        60.7080 
 115   0.0000       2.287588        62.2484 
 116   0.0000       2.293436        62.4076 
 117   0.0000       2.308616        62.8206 
 118   0.0000       2.321532        63.1721 
 119   0.0000       2.327493        63.3343 
 120   0.0000       2.336521        63.5800 
 121   0.0000       2.348266        63.8996 
 122   0.0000       2.352355        64.0108 
 123   0.0000       2.375516        64.6411 
 124   0.0000       2.379978        64.7625 
 125   0.0000       2.391482        65.0755 
 126   0.0000       2.399272        65.2875 
 127   0.0000       2.410697        65.5984 
 128   0.0000       2.496949        67.9454 
 129   0.0000       2.506866        68.2153 
 130   0.0000       2.522804        68.6490 
 131   0.0000       2.543264        69.2057 
 132   0.0000       2.569217        69.9119 
 133   0.0000       2.579628        70.1952 
 134   0.0000       2.594528        70.6007 
 135   0.0000       2.633322        71.6563 
 136   0.0000       2.635381        71.7124 
 137   0.0000       2.648369        72.0658 
 138   0.0000       2.658590        72.3439 
 139   0.0000       2.687505        73.1307 
 140   0.0000       2.699418        73.4549 
 141   0.0000       2.722381        74.0798 
 142   0.0000       2.740590        74.5752 
 143   0.0000       2.778382        75.6036 
 144   0.0000       2.867585        78.0309 
 145   0.0000       2.911454        79.2247 
 146   0.0000       2.919973        79.4565 
 147   0.0000       2.941401        80.0396 
 148   0.0000       2.955788        80.4311 
 149   0.0000       2.973878        80.9233 
 150   0.0000       2.983820        81.1939 
 151   0.0000       2.991379        81.3996 
 152   0.0000       3.001226        81.6675 
 153   0.0000       3.005374        81.7804 
 154   0.0000       3.028561        82.4113 
 155   0.0000       3.044730        82.8513 
 156   0.0000       3.066389        83.4407 
 157   0.0000       3.074212        83.6536 
 158   0.0000       3.089586        84.0719 
 159   0.0000       3.118972        84.8715 
 160   0.0000       3.139597        85.4328 
 161   0.0000       3.205768        87.2334 
 162   0.0000       3.221669        87.6661 
 163   0.0000       3.272194        89.0409 
 164   0.0000       3.277759        89.1923 
 165   0.0000       3.304259        89.9135 
 166   0.0000       3.322767        90.4171 
 167   0.0000       3.508642        95.4750 
 168   0.0000       3.958338       107.7118 
 169   0.0000       3.988044       108.5202 
 170   0.0000       4.023562       109.4867 
 171   0.0000       4.065186       110.6193 
 172   0.0000       4.075368       110.8964 
 173   0.0000       4.111918       111.8910 
 174   0.0000       4.273674       116.2926 
 175   0.0000       4.300255       117.0159 
 176   0.0000       4.303762       117.1113 
 177   0.0000       4.336784       118.0099 
 178   0.0000       4.349976       118.3689 
 179   0.0000       4.381974       119.2396 
 180   0.0000       5.509186       149.9126 
 181   0.0000       5.519828       150.2021 
 182   0.0000       5.538180       150.7015 
 183   0.0000       5.562421       151.3612 
 184   0.0000       5.577726       151.7776 
 185   0.0000       5.581388       151.8773 
 186   0.0000       5.605657       152.5377 
 187   0.0000       5.634228       153.3151 
 188   0.0000       5.647207       153.6683 
 189   0.0000       5.669561       154.2766 
 190   0.0000       5.686540       154.7386 
 191   0.0000       5.687183       154.7561 
 192   0.0000       5.774643       157.1360 
 193   0.0000       5.798812       157.7937 
 194   0.0000       5.802952       157.9063 
 195   0.0000       5.809394       158.0817 
 196   0.0000       5.830335       158.6515 
 197   0.0000       5.837455       158.8452 
 198   0.0000       5.842890       158.9931 
 199   0.0000       5.855041       159.3238 
 200   0.0000       5.861030       159.4867 
 201   0.0000       5.866902       159.6465 
 202   0.0000       5.870682       159.7494 
 203   0.0000       5.880897       160.0273 
 204   0.0000       5.897821       160.4879 
 205   0.0000       5.900455       160.5596 
 206   0.0000       5.911233       160.8528 
 207   0.0000       5.927828       161.3044 
 208   0.0000       5.930934       161.3889 
 209   0.0000       5.942004       161.6901 
 210   0.0000       6.392506       173.9489 
 211   0.0000       6.420710       174.7164 
 212   0.0000       6.461879       175.8367 
 213   0.0000       6.483235       176.4178 
 214   0.0000       6.498573       176.8352 
 215   0.0000       6.519410       177.4022 
 216   0.0000       6.660127       181.2313 
 217   0.0000       6.684492       181.8943 
 218   0.0000       6.685010       181.9084 
 219   0.0000       6.711648       182.6332 
 220   0.0000       6.733006       183.2144 
 221   0.0000       6.741678       183.4504 
 222   0.0000       6.829225       185.8327 
 223   0.0000       6.842537       186.1949 
 224   0.0000       6.853448       186.4918 
 225   0.0000       6.861486       186.7105 
 226   0.0000       6.869342       186.9243 
 227   0.0000       6.875064       187.0800 
 228   0.0000       6.898656       187.7220 
 229   0.0000       6.904374       187.8776 
 230   0.0000       6.905069       187.8965 
 231   0.0000       6.911814       188.0800 
 232   0.0000       6.912577       188.1008 
 233   0.0000       6.944732       188.9758 
 234   0.0000       6.953814       189.2229 
 235   0.0000       6.969018       189.6366 
 236   0.0000       6.978017       189.8815 
 237   0.0000       6.989090       190.1828 
 238   0.0000       6.996566       190.3862 
 239   0.0000       7.079331       192.6384 
 240   0.0000       7.343114       199.8163 
 241   0.0000       7.358451       200.2336 
 242   0.0000       7.377167       200.7429 
 243   0.0000       7.430723       202.2002 
 244   0.0000       7.437192       202.3763 
 245   0.0000       7.455090       202.8633 
 246   0.0000       7.484635       203.6673 
 247   0.0000       7.488111       203.7619 
 248   0.0000       7.523459       204.7237 
 249   0.0000       7.564602       205.8433 
 250   0.0000       7.573334       206.0809 
 251   0.0000       7.590150       206.5385 
 252   0.0000      44.847886      1220.3730 
 253   0.0000      44.859867      1220.6990 
 254   0.0000      44.938875      1222.8490 
 255   0.0000      44.951071      1223.1808 
 256   0.0000      44.972160      1223.7547 
 257   0.0000      44.984367      1224.0869 

                    ********************************
                    * MULLIKEN POPULATION ANALYSIS *
                    ********************************

-----------------------
MULLIKEN ATOMIC CHARGES
-----------------------
   0 O :   -0.730340
   1 H :    0.366580
   2 H :    0.381860
   3 O :   -0.769711
   4 H :    0.345537
   5 H :    0.394550
   6 O :   -0.719714
   7 H :    0.390451
   8 H :    0.317015
   9 O :   -0.729889
  10 H :    0.335894
  11 H :    0.377752
  12 O :   -0.731156
  13 H :    0.356726
  14 H :    0.399174
  15 O :   -0.720397
  16 H :    0.355392
  17 H :    0.380275
Sum of atomic charges:   -0.0000000

--------------------------------
MULLIKEN REDUCED ORBITAL CHARGES
--------------------------------
  0 O s       :     3.809153  s :     3.809153
      pz      :     1.738084  p :     4.895203
      px      :     1.377581
      py      :     1.779538
      dz2     :     0.004414  d :     0.024483
      dxz     :     0.005005
      dyz     :     0.005528
      dx2y2   :     0.002584
      dxy     :     0.006952
      f0      :     0.000093  f :     0.001500
      f+1     :     0.000352
      f-1     :     0.000183
      f+2     :     0.000061
      f-2     :     0.000356
      f+3     :     0.000091
      f-3     :     0.000365
  1 H s       :     0.588146  s :     0.588146
      pz      :     0.017331  p :     0.045274
      px      :     0.013280
      py      :     0.014664
  2 H s       :     0.576956  s :     0.576956
      pz      :     0.010941  p :     0.041184
      px      :     0.018126
      py      :     0.012117
  3 O s       :     3.809577  s :     3.809577
      pz      :     1.710351  p :     4.935694
      px      :     1.416469
      py      :     1.808875
      dz2     :     0.003657  d :     0.023014
      dxz     :     0.004255
      dyz     :     0.005455
      dx2y2   :     0.002264
      dxy     :     0.007382
      f0      :     0.000079  f :     0.001426
      f+1     :     0.000311
      f-1     :     0.000176
      f+2     :     0.000069
      f-2     :     0.000348
      f+3     :     0.000089
      f-3     :     0.000354
  4 H s       :     0.608728  s :     0.608728
      pz      :     0.016854  p :     0.045735
      px      :     0.013942
      py      :     0.014939
  5 H s       :     0.548756  s :     0.548756
      pz      :     0.010334  p :     0.056694
      px      :     0.032269
      py      :     0.014091
  6 O s       :     3.809541  s :     3.809541
      pz      :     1.591546  p :     4.883699
      px      :     1.421034
      py      :     1.871118
      dz2     :     0.010994  d :     0.025002
      dxz     :     0.002762
      dyz     :     0.002569
      dx2y2   :     0.003194
      dxy     :     0.005483
      f0      :     0.000163  f :     0.001472
      f+1     :     0.000444
      f-1     :     0.000125
      f+2     :     0.000079
      f-2     :     0.000041
      f+3     :     0.000131
      f-3     :     0.000490
  7 H s       :     0.560380  s :     0.560380
      pz      :     0.024835  p :     0.049169
      px      :     0.011195
      py      :     0.013139
  8 H s       :     0.638876  s :     0.638876
      pz      :     0.010631  p :     0.044108
      px      :     0.017918
      py      :     0.015559
  9 O s       :     3.808430  s :     3.808430
      pz      :     1.491836  p :     4.894697
      px      :     1.576650
      py      :     1.826212
      dz2     :     0.011896  d :     0.025271
      dxz     :     0.001253
      dyz     :     0.002972
      dx2y2   :     0.001997
      dxy     :     0.007152
      f0      :     0.000274  f :     0.001491
      f+1     :     0.000381
      f-1     :     0.000170
      f+2     :     0.000057
      f-2     :     0.000056
      f+3     :     0.000065
      f-3     :     0.000488
 10 H s       :     0.619285  s :     0.619285
      pz      :     0.018682  p :     0.044821
      px      :     0.012335
      py      :     0.013804
 11 H s       :     0.572030  s :     0.572030
      pz      :     0.009867  p :     0.050219
      px      :     0.023919
      py      :     0.016432
 12 O s       :     3.795090  s :     3.795090
      pz      :     1.518166  p :     4.909771
      px      :     1.792533
      py      :     1.599073
      dz2     :     0.012304  d :     0.024896
      dxz     :     0.002366
      dyz     :     0.001257
      dx2y2   :     0.002332
      dxy     :     0.006637
      f0      :     0.000252  f :     0.001398
      f+1     :     0.000157
      f-1     :     0.000388
      f+2     :     0.000051
      f-2     :     0.000056
      f+3     :     0.000445
      f-3     :     0.000048
 13 H s       :     0.599364  s :     0.599364
      pz      :     0.019145  p :     0.043910
      px      :     0.012885
      py      :     0.011881
 14 H s       :     0.551622  s :     0.551622
      pz      :     0.009461  p :     0.049203
      px      :     0.015428
      py      :     0.024314
 15 O s       :     3.809559  s :     3.809559
      pz      :     1.731422  p :     4.884594
      px      :     1.779361
      py      :     1.373811
      dz2     :     0.004457  d :     0.024734
      dxz     :     0.005615
      dyz     :     0.005061
      dx2y2   :     0.002570
      dxy     :     0.007030
      f0      :     0.000094  f :     0.001510
      f+1     :     0.000186
      f-1     :     0.000352
      f+2     :     0.000062
      f-2     :     0.000356
      f+3     :     0.000369
      f-3     :     0.000092
 16 H s       :     0.599078  s :     0.599078
      pz      :     0.017277  p :     0.045530
      px      :     0.014897
      py      :     0.013356
 17 H s       :     0.578528  s :     0.578528
      pz      :     0.011004  p :     0.041197
      px      :     0.012153
      py      :     0.018040


                     *******************************
                     * LOEWDIN POPULATION ANALYSIS *
                     *******************************

----------------------
LOEWDIN ATOMIC CHARGES
----------------------
   0 O :   -0.317655
   1 H :    0.165762
   2 H :    0.193361
   3 O :   -0.348426
   4 H :    0.152880
   5 H :    0.152011
   6 O :   -0.350520
   7 H :    0.157005
   8 H :    0.156325
   9 O :   -0.351099
  10 H :    0.159045
  11 H :    0.154036
  12 O :   -0.289445
  13 H :    0.167750
  14 H :    0.162391
  15 O :   -0.316184
  16 H :    0.160456
  17 H :    0.192308

-------------------------------
LOEWDIN REDUCED ORBITAL CHARGES
-------------------------------
  0 O s       :     3.467238  s :     3.467238
      pz      :     1.712461  p :     4.816998
      px      :     1.363389
      py      :     1.741148
      dz2     :     0.005010  d :     0.031358
      dxz     :     0.007090
      dyz     :     0.005441
      dx2y2   :     0.004345
      dxy     :     0.009471
      f0      :     0.000078  f :     0.002061
      f+1     :     0.000456
      f-1     :     0.000270
      f+2     :     0.000033
      f-2     :     0.000609
      f+3     :     0.000090
      f-3     :     0.000525
  1 H s       :     0.670781  s :     0.670781
      pz      :     0.066470  p :     0.163457
      px      :     0.044510
      py      :     0.052477
  2 H s       :     0.657963  s :     0.657963
      pz      :     0.033240  p :     0.148675
      px      :     0.072051
      py      :     0.043384
  3 O s       :     3.461699  s :     3.461699
      pz      :     1.677590  p :     4.855290
      px      :     1.396000
      py      :     1.781700
      dz2     :     0.004661  d :     0.029451
      dxz     :     0.006798
      dyz     :     0.005681
      dx2y2   :     0.003265
      dxy     :     0.009046
      f0      :     0.000084  f :     0.001987
      f+1     :     0.000429
      f-1     :     0.000261
      f+2     :     0.000034
      f-2     :     0.000617
      f+3     :     0.000084
      f-3     :     0.000478
  4 H s       :     0.682248  s :     0.682248
      pz      :     0.065843  p :     0.164873
      px      :     0.045772
      py      :     0.053257
  5 H s       :     0.651683  s :     0.651683
      pz      :     0.033513  p :     0.196306
      px      :     0.114989
      py      :     0.047805
  6 O s       :     3.472052  s :     3.472052
      pz      :     1.575815  p :     4.844713
      px      :     1.436731
      py      :     1.832167
      dz2     :     0.014068  d :     0.031655
      dxz     :     0.003725
      dyz     :     0.001634
      dx2y2   :     0.004764
      dxy     :     0.007465
      f0      :     0.000334  f :     0.002100
      f+1     :     0.000725
      f-1     :     0.000200
      f+2     :     0.000045
      f-2     :     0.000040
      f+3     :     0.000078
      f-3     :     0.000677
  7 H s       :     0.670343  s :     0.670343
      pz      :     0.094734  p :     0.172653
      px      :     0.035354
      py      :     0.042565
  8 H s       :     0.691050  s :     0.691050
      pz      :     0.031030  p :     0.152625
      px      :     0.072114
      py      :     0.049481
  9 O s       :     3.467301  s :     3.467301
      pz      :     1.504449  p :     4.850074
      px      :     1.549998
      py      :     1.795627
      dz2     :     0.016235  d :     0.031596
      dxz     :     0.002221
      dyz     :     0.002449
      dx2y2   :     0.001991
      dxy     :     0.008700
      f0      :     0.000503  f :     0.002129
      f+1     :     0.000583
      f-1     :     0.000319
      f+2     :     0.000025
      f-2     :     0.000050
      f+3     :     0.000002
      f-3     :     0.000646
 10 H s       :     0.682917  s :     0.682917
      pz      :     0.079212  p :     0.158038
      px      :     0.036333
      py      :     0.042493
 11 H s       :     0.672609  s :     0.672609
      pz      :     0.029470  p :     0.173355
      px      :     0.085963
      py      :     0.057922
 12 O s       :     3.452702  s :     3.452702
      pz      :     1.513607  p :     4.802943
      px      :     1.732819
      py      :     1.556516
      dz2     :     0.016347  d :     0.031693
      dxz     :     0.001908
      dyz     :     0.002082
      dx2y2   :     0.003355
      dxy     :     0.008001
      f0      :     0.000473  f :     0.002108
      f+1     :     0.000333
      f-1     :     0.000575
      f+2     :     0.000021
      f-2     :     0.000051
      f+3     :     0.000629
      f-3     :     0.000026
 13 H s       :     0.673053  s :     0.673053
      pz      :     0.080353  p :     0.159198
      px      :     0.042106
      py      :     0.036739
 14 H s       :     0.662737  s :     0.662737
      pz      :     0.029376  p :     0.174872
      px      :     0.057995
      py      :     0.087501
 15 O s       :     3.468520  s :     3.468520
      pz      :     1.709566  p :     4.813644
      px      :     1.742216
      py      :     1.361862
      dz2     :     0.005078  d :     0.031935
      dxz     :     0.005624
      dyz     :     0.007319
      dx2y2   :     0.004281
      dxy     :     0.009633
      f0      :     0.000080  f :     0.002085
      f+1     :     0.000276
      f-1     :     0.000458
      f+2     :     0.000034
      f-2     :     0.000619
      f+3     :     0.000529
      f-3     :     0.000090
 16 H s       :     0.676140  s :     0.676140
      pz      :     0.066378  p :     0.163404
      px      :     0.052750
      py      :     0.044276
 17 H s       :     0.659258  s :     0.659258
      pz      :     0.033146  p :     0.148434
      px      :     0.043289
      py      :     0.071999


                      *****************************
                      * MAYER POPULATION ANALYSIS *
                      *****************************

  NA   - Mulliken gross atomic population
  ZA   - Total nuclear charge
  QA   - Mulliken gross atomic charge
  VA   - Mayer's total valence
  BVA  - Mayer's bonded valence
  FA   - Mayer's free valence

  ATOM       NA         ZA         QA         VA         BVA        FA
  0 O      8.7303     8.0000    -0.7303     1.7634     1.7634    -0.0000
  1 H      0.6334     1.0000     0.3666     0.8806     0.8806    -0.0000
  2 H      0.6181     1.0000     0.3819     0.8683     0.8683    -0.0000
  3 O      8.7697     8.0000    -0.7697     1.6903     1.6903    -0.0000
  4 H      0.6545     1.0000     0.3455     0.8967     0.8967    -0.0000
  5 H      0.6054     1.0000     0.3946     0.8833     0.8833     0.0000
  6 O      8.7197     8.0000    -0.7197     1.7488     1.7488     0.0000
  7 H      0.6095     1.0000     0.3905     0.8796     0.8796     0.0000
  8 H      0.6830     1.0000     0.3170     0.9167     0.9167     0.0000
  9 O      8.7299     8.0000    -0.7299     1.7399     1.7399    -0.0000
 10 H      0.6641     1.0000     0.3359     0.9005     0.9005    -0.0000
 11 H      0.6222     1.0000     0.3778     0.8902     0.8902    -0.0000
 12 O      8.7312     8.0000    -0.7312     1.7458     1.7458     0.0000
 13 H      0.6433     1.0000     0.3567     0.8881     0.8881     0.0000
 14 H      0.6008     1.0000     0.3992     0.8728     0.8728     0.0000
 15 O      8.7204     8.0000    -0.7204     1.7681     1.7681    -0.0000
 16 H      0.6446     1.0000     0.3554     0.8885     0.8885     0.0000
 17 H      0.6197     1.0000     0.3803     0.8694     0.8694     0.0000

  Mayer bond orders larger than 0.100000
B(  0-O ,  1-H ) :   0.8734 B(  0-O ,  2-H ) :   0.8580 B(  3-O ,  4-H ) :   0.8884 
B(  3-O ,  5-H ) :   0.7980 B(  6-O ,  7-H ) :   0.8406 B(  6-O ,  8-H ) :   0.9071 
B(  9-O , 10-H ) :   0.8974 B(  9-O , 11-H ) :   0.8488 B( 12-O , 13-H ) :   0.8803 
B( 12-O , 14-H ) :   0.8259 B( 15-O , 16-H ) :   0.8808 B( 15-O , 17-H ) :   0.8592 


-------
TIMINGS
-------

Total SCF time: 0 days 0 hours 0 min 11 sec 

Total time                  ....      11.965 sec
Sum of individual times     ....      11.595 sec  ( 96.9%)

Fock matrix formation       ....      10.704 sec  ( 89.5%)
Diagonalization             ....       0.232 sec  (  1.9%)
Density matrix formation    ....       0.073 sec  (  0.6%)
Population analysis         ....       0.141 sec  (  1.2%)
Initial guess               ....       0.119 sec  (  1.0%)
Orbital Transformation      ....       0.000 sec  (  0.0%)
Orbital Orthonormalization  ....       0.000 sec  (  0.0%)
DIIS solution               ....       0.100 sec  (  0.8%)
SOSCF solution              ....       0.173 sec  (  1.4%)


           ************************************************************
           *        Program running with 6 parallel MPI-processes     *
           *              working on a common directory               *
           ************************************************************

------------------------------------------------------------------------------
                                ORCA  MP2 
------------------------------------------------------------------------------

Freezing NCore=12 chemical core electrons
MP2 will be done in the AO integral direct mode
The Q1-step will be done using symmetric double matrices
Dimension of the basis                    ...  258
Memory devoted for MP2                    ... 8000 MB   
Memory needed for all in one shot         ...  264 MB
Number of MOs that can be treated together...  120      
MP2 density construction                  ... relaxed
The MP2 gradient is requested => amplitudes will be stored on disk
Total number of MOs              ...   24
Number of MOs treated per batch  ...    4 
Number of batches necessary      ...    1 
OPERATORS   0/  0 PASS   0
-----------------------------------------------
 MP2 CORRELATION ENERGY   :     -1.545318066 Eh
-----------------------------------------------


---------------------
MP2 DENSITY FORMATION
---------------------

Completing the external part of the density      ... done
Storing the unrelaxed density                    ... done

Calculating G(D)                                 ... done
Completing the Lagrangian                        ... done
Solving the Z-vector equations                   ... 

------------------------------------------------------------------------------
                           ORCA CP-SCF CALCULATION
------------------------------------------------------------------------------

Input orbitals are from        ... 12h2o.su.etal.mol0,1,7,8,9,10-orca.engrad-mp2.def2tzvp.frozencore.gbw
Input Perturbation             ... 12h2o.su.etal.mol0,1,7,8,9,10-orca.engrad-mp2.def2tzvp.frozencore.pin.tmp
Wavefunction output            ... 12h2o.su.etal.mol0,1,7,8,9,10-orca.engrad-mp2.def2tzvp.frozencore.pout.tmp
Perturbation mode              ... Real perturbation (singlet)
Solver                         ... POPLE
Max. number of iterations      ... 128
Convergence tolerance          ... 1.000e-08
Integral handling              ... Direct
Number of perturbations        ... 1
Number of operators            ... 1
Orbital ranges used for CP-SCF:
 Operator 0:  Orbitals   0... 29  to  30...257
Variables per vector in CP-SCF ... 6840
Number of vectors sought       ... 1
     CP-SCF ITERATION   0: 
     CP-SCF ITERATION   1:      0.000749738661
     CP-SCF ITERATION   2:      0.000017391402
     CP-SCF ITERATION   3:      0.000000687738
     CP-SCF ITERATION   4:      0.000000067225
     CP-SCF ITERATION   5:      0.000000005841
                                                 ... done
Finalizing the relaxed density                   ... done
Transforming P to the AO basis                   ... done
Storing the relaxed density                      ... done

------------------------------------
ENERGY WEIGHTED DENSITY FINALIZATION
------------------------------------

Gathering the parts of the W-matrix              ...                                                      done
Forming the Z-density                            ... done
Transforming Z to the AO basis                   ... done
Calculating G(Z)                                 ... done
Finalizing the W-matrix                          ...                                                      done
Transforming W to the AO basis and storing       ... done

                *********************************************
                * UNRELAXED MP2 DENSITY POPULATION ANALYSIS *
                *********************************************

------------------------------------------------------------------------------
                           ORCA POPULATION ANALYSIS
------------------------------------------------------------------------------
Input electron density              ... 12h2o.su.etal.mol0,1,7,8,9,10-orca.engrad-mp2.def2tzvp.frozencore.pmp2ur
BaseName (.gbw .S,...)              ... 12h2o.su.etal.mol0,1,7,8,9,10-orca.engrad-mp2.def2tzvp.frozencore

                    ********************************
                    * MULLIKEN POPULATION ANALYSIS *
                    ********************************

-----------------------
MULLIKEN ATOMIC CHARGES
-----------------------
   0 O :   -0.724744
   1 H :    0.364417
   2 H :    0.379087
   3 O :   -0.763690
   4 H :    0.343244
   5 H :    0.389700
   6 O :   -0.714353
   7 H :    0.387349
   8 H :    0.314354
   9 O :   -0.724766
  10 H :    0.333511
  11 H :    0.374482
  12 O :   -0.724475
  13 H :    0.354235
  14 H :    0.395873
  15 O :   -0.714929
  16 H :    0.353186
  17 H :    0.377520
Sum of atomic charges:   -0.0000000

--------------------------------
MULLIKEN REDUCED ORBITAL CHARGES
--------------------------------
  0 O s       :     3.804285  s :     3.804285
      pz      :     1.727442  p :     4.865084
      px      :     1.369898
      py      :     1.767744
      dz2     :     0.009798  d :     0.051321
      dxz     :     0.010288
      dyz     :     0.010922
      dx2y2   :     0.008030
      dxy     :     0.012283
      f0      :     0.000462  f :     0.004055
      f+1     :     0.000712
      f-1     :     0.000548
      f+2     :     0.000429
      f-2     :     0.000719
      f+3     :     0.000461
      f-3     :     0.000724
  1 H s       :     0.588768  s :     0.588768
      pz      :     0.017805  p :     0.046815
      px      :     0.013663
      py      :     0.015347
  2 H s       :     0.578232  s :     0.578232
      pz      :     0.011770  p :     0.042681
      px      :     0.018061
      py      :     0.012850
  3 O s       :     3.804629  s :     3.804629
      pz      :     1.699443  p :     4.904591
      px      :     1.407734
      py      :     1.797414
      dz2     :     0.009291  d :     0.050463
      dxz     :     0.009738
      dyz     :     0.010883
      dx2y2   :     0.007798
      dxy     :     0.012753
      f0      :     0.000451  f :     0.004008
      f+1     :     0.000678
      f-1     :     0.000542
      f+2     :     0.000439
      f-2     :     0.000714
      f+3     :     0.000463
      f-3     :     0.000720
  4 H s       :     0.609358  s :     0.609358
      pz      :     0.017341  p :     0.047397
      px      :     0.014392
      py      :     0.015665
  5 H s       :     0.551948  s :     0.551948
      pz      :     0.011153  p :     0.058352
      px      :     0.032373
      py      :     0.014826
  6 O s       :     3.804651  s :     3.804651
      pz      :     1.581678  p :     4.854003
      px      :     1.412804
      py      :     1.859521
      dz2     :     0.016150  d :     0.051672
      dxz     :     0.008079
      dyz     :     0.008086
      dx2y2   :     0.008567
      dxy     :     0.010791
      f0      :     0.000547  f :     0.004027
      f+1     :     0.000810
      f-1     :     0.000497
      f+2     :     0.000440
      f-2     :     0.000405
      f+3     :     0.000491
      f-3     :     0.000838
  7 H s       :     0.561987  s :     0.561987
      pz      :     0.024919  p :     0.050664
      px      :     0.011773
      py      :     0.013972
  8 H s       :     0.639760  s :     0.639760
      pz      :     0.011519  p :     0.045886
      px      :     0.017994
      py      :     0.016373
  9 O s       :     3.803574  s :     3.803574
      pz      :     1.483042  p :     4.865227
      px      :     1.567384
      py      :     1.814801
      dz2     :     0.016911  d :     0.051914
      dxz     :     0.006632
      dyz     :     0.008399
      dx2y2   :     0.007538
      dxy     :     0.012435
      f0      :     0.000648  f :     0.004051
      f+1     :     0.000746
      f-1     :     0.000540
      f+2     :     0.000415
      f-2     :     0.000421
      f+3     :     0.000435
      f-3     :     0.000845
 10 H s       :     0.619956  s :     0.619956
      pz      :     0.018787  p :     0.046533
      px      :     0.013062
      py      :     0.014684
 11 H s       :     0.573730  s :     0.573730
      pz      :     0.010636  p :     0.051788
      px      :     0.024108
      py      :     0.017043
 12 O s       :     3.789839  s :     3.789839
      pz      :     1.509051  p :     4.878399
      px      :     1.779930
      py      :     1.589418
      dz2     :     0.017421  d :     0.052241
      dxz     :     0.007960
      dyz     :     0.006700
      dx2y2   :     0.008045
      dxy     :     0.012116
      f0      :     0.000632  f :     0.003996
      f+1     :     0.000533
      f-1     :     0.000756
      f+2     :     0.000415
      f-2     :     0.000424
      f+3     :     0.000811
      f-3     :     0.000426
 13 H s       :     0.600245  s :     0.600245
      pz      :     0.019232  p :     0.045520
      px      :     0.013713
      py      :     0.012575
 14 H s       :     0.553453  s :     0.553453
      pz      :     0.010199  p :     0.050675
      px      :     0.015974
      py      :     0.024502
 15 O s       :     3.804684  s :     3.804684
      pz      :     1.720817  p :     4.854661
      px      :     1.767640
      py      :     1.366203
      dz2     :     0.009835  d :     0.051521
      dxz     :     0.010995
      dyz     :     0.010337
      dx2y2   :     0.008012
      dxy     :     0.012342
      f0      :     0.000462  f :     0.004063
      f+1     :     0.000550
      f-1     :     0.000712
      f+2     :     0.000429
      f-2     :     0.000719
      f+3     :     0.000728
      f-3     :     0.000462
 16 H s       :     0.599697  s :     0.599697
      pz      :     0.017768  p :     0.047117
      px      :     0.015599
      py      :     0.013750
 17 H s       :     0.579773  s :     0.579773
      pz      :     0.011838  p :     0.042707
      px      :     0.012887
      py      :     0.017981


                     *******************************
                     * LOEWDIN POPULATION ANALYSIS *
                     *******************************

----------------------
LOEWDIN ATOMIC CHARGES
----------------------
   0 O :   -0.313844
   1 H :    0.164688
   2 H :    0.191706
   3 O :   -0.345196
   4 H :    0.151564
   5 H :    0.149359
   6 O :   -0.347528
   7 H :    0.155024
   8 H :    0.154504
   9 O :   -0.348554
  10 H :    0.157617
  11 H :    0.151976
  12 O :   -0.285297
  13 H :    0.166241
  14 H :    0.160295
  15 O :   -0.312470
  16 H :    0.159300
  17 H :    0.190614

-------------------------------
LOEWDIN REDUCED ORBITAL CHARGES
-------------------------------
  0 O s       :     3.463458  s :     3.463458
      pz      :     1.701906  p :     4.786357
      px      :     1.355339
      py      :     1.729111
      dz2     :     0.010517  d :     0.059222
      dxz     :     0.012588
      dyz     :     0.011111
      dx2y2   :     0.009883
      dxy     :     0.015123
      f0      :     0.000456  f :     0.004808
      f+1     :     0.000864
      f-1     :     0.000655
      f+2     :     0.000408
      f-2     :     0.001015
      f+3     :     0.000474
      f-3     :     0.000937
  1 H s       :     0.668915  s :     0.668915
      pz      :     0.067654  p :     0.166397
      px      :     0.045317
      py      :     0.053426
  2 H s       :     0.656678  s :     0.656678
      pz      :     0.034053  p :     0.151616
      px      :     0.073232
      py      :     0.044331
  3 O s       :     3.458060  s :     3.458060
      pz      :     1.666204  p :     4.824349
      px      :     1.387531
      py      :     1.770614
      dz2     :     0.010388  d :     0.058021
      dxz     :     0.012495
      dyz     :     0.011446
      dx2y2   :     0.008908
      dxy     :     0.014783
      f0      :     0.000468  f :     0.004766
      f+1     :     0.000844
      f-1     :     0.000646
      f+2     :     0.000411
      f-2     :     0.001028
      f+3     :     0.000472
      f-3     :     0.000897
  4 H s       :     0.680337  s :     0.680337
      pz      :     0.067112  p :     0.168099
      px      :     0.046720
      py      :     0.054267
  5 H s       :     0.651892  s :     0.651892
      pz      :     0.034350  p :     0.198749
      px      :     0.115719
      py      :     0.048680
  6 O s       :     3.468285  s :     3.468285
      pz      :     1.565987  p :     4.814943
      px      :     1.428006
      py      :     1.820950
      dz2     :     0.019834  d :     0.059452
      dxz     :     0.009079
      dyz     :     0.007077
      dx2y2   :     0.010357
      dxy     :     0.013105
      f0      :     0.000747  f :     0.004848
      f+1     :     0.001158
      f-1     :     0.000588
      f+2     :     0.000413
      f-2     :     0.000411
      f+3     :     0.000450
      f-3     :     0.001081
  7 H s       :     0.669564  s :     0.669564
      pz      :     0.096000  p :     0.175412
      px      :     0.036075
      py      :     0.043337
  8 H s       :     0.689315  s :     0.689315
      pz      :     0.031894  p :     0.156181
      px      :     0.073767
      py      :     0.050520
  9 O s       :     3.463602  s :     3.463602
      pz      :     1.495291  p :     4.820748
      px      :     1.540744
      py      :     1.784714
      dz2     :     0.021963  d :     0.059321
      dxz     :     0.007535
      dyz     :     0.007816
      dx2y2   :     0.007499
      dxy     :     0.014507
      f0      :     0.000919  f :     0.004882
      f+1     :     0.001002
      f-1     :     0.000712
      f+2     :     0.000389
      f-2     :     0.000422
      f+3     :     0.000377
      f-3     :     0.001061
 10 H s       :     0.681018  s :     0.681018
      pz      :     0.080906  p :     0.161365
      px      :     0.037130
      py      :     0.043329
 11 H s       :     0.671823  s :     0.671823
      pz      :     0.030209  p :     0.176201
      px      :     0.087132
      py      :     0.058860
 12 O s       :     3.448902  s :     3.448902
      pz      :     1.504174  p :     4.771430
      px      :     1.720310
      py      :     1.546946
      dz2     :     0.022173  d :     0.060062
      dxz     :     0.007428
      dyz     :     0.007467
      dx2y2   :     0.009020
      dxy     :     0.013974
      f0      :     0.000894  f :     0.004903
      f+1     :     0.000733
      f-1     :     0.000997
      f+2     :     0.000390
      f-2     :     0.000426
      f+3     :     0.001054
      f-3     :     0.000409
 13 H s       :     0.671396  s :     0.671396
      pz      :     0.081927  p :     0.162363
      px      :     0.042919
      py      :     0.037518
 14 H s       :     0.662146  s :     0.662146
      pz      :     0.030098  p :     0.177559
      px      :     0.058870
      py      :     0.088590
 15 O s       :     3.464737  s :     3.464737
      pz      :     1.699012  p :     4.783133
      px      :     1.730258
      py      :     1.353863
      dz2     :     0.010581  d :     0.059768
      dxz     :     0.011287
      dyz     :     0.012810
      dx2y2   :     0.009815
      dxy     :     0.015275
      f0      :     0.000458  f :     0.004832
      f+1     :     0.000660
      f-1     :     0.000865
      f+2     :     0.000408
      f-2     :     0.001025
      f+3     :     0.000941
      f-3     :     0.000474
 16 H s       :     0.674241  s :     0.674241
      pz      :     0.067610  p :     0.166458
      px      :     0.053735
      py      :     0.045113
 17 H s       :     0.657998  s :     0.657998
      pz      :     0.033965  p :     0.151388
      px      :     0.044240
      py      :     0.073183


                      *****************************
                      * MAYER POPULATION ANALYSIS *
                      *****************************

  NA   - Mulliken gross atomic population
  ZA   - Total nuclear charge
  QA   - Mulliken gross atomic charge
  VA   - Mayer's total valence
  BVA  - Mayer's bonded valence
  FA   - Mayer's free valence

  ATOM       NA         ZA         QA         VA         BVA        FA
  0 O      8.7247     8.0000    -0.7247     2.0728     1.6833     0.3895
  1 H      0.6356     1.0000     0.3644     0.8861     0.8413     0.0448
  2 H      0.6209     1.0000     0.3791     0.8743     0.8277     0.0466
  3 O      8.7637     8.0000    -0.7637     2.0059     1.6120     0.3939
  4 H      0.6568     1.0000     0.3432     0.9026     0.8554     0.0472
  5 H      0.6103     1.0000     0.3897     0.8912     0.8446     0.0467
  6 O      8.7144     8.0000    -0.7144     2.0569     1.6673     0.3896
  7 H      0.6127     1.0000     0.3873     0.8858     0.8419     0.0439
  8 H      0.6856     1.0000     0.3144     0.9234     0.8720     0.0514
  9 O      8.7248     8.0000    -0.7248     2.0473     1.6602     0.3871
 10 H      0.6665     1.0000     0.3335     0.9066     0.8582     0.0484
 11 H      0.6255     1.0000     0.3745     0.8967     0.8517     0.0450
 12 O      8.7245     8.0000    -0.7245     2.0552     1.6672     0.3880
 13 H      0.6458     1.0000     0.3542     0.8941     0.8471     0.0470
 14 H      0.6041     1.0000     0.3959     0.8790     0.8355     0.0435
 15 O      8.7149     8.0000    -0.7149     2.0763     1.6873     0.3890
 16 H      0.6468     1.0000     0.3532     0.8942     0.8483     0.0459
 17 H      0.6225     1.0000     0.3775     0.8753     0.8286     0.0466

  Mayer bond orders larger than 0.100000
B(  0-O ,  1-H ) :   0.8346 B(  0-O ,  2-H ) :   0.8179 B(  3-O ,  4-H ) :   0.8478 
B(  3-O ,  5-H ) :   0.7617 B(  6-O ,  7-H ) :   0.8039 B(  6-O ,  8-H ) :   0.8630 
B(  9-O , 10-H ) :   0.8556 B(  9-O , 11-H ) :   0.8114 B( 12-O , 13-H ) :   0.8399 
B( 12-O , 14-H ) :   0.7900 B( 15-O , 16-H ) :   0.8411 B( 15-O , 17-H ) :   0.8190 



                *******************************************
                * RELAXED MP2 DENSITY POPULATION ANALYSIS *
                *******************************************

------------------------------------------------------------------------------
                           ORCA POPULATION ANALYSIS
------------------------------------------------------------------------------
Input electron density              ... 12h2o.su.etal.mol0,1,7,8,9,10-orca.engrad-mp2.def2tzvp.frozencore.pmp2re
BaseName (.gbw .S,...)              ... 12h2o.su.etal.mol0,1,7,8,9,10-orca.engrad-mp2.def2tzvp.frozencore

                    ********************************
                    * MULLIKEN POPULATION ANALYSIS *
                    ********************************

-----------------------
MULLIKEN ATOMIC CHARGES
-----------------------
   0 O :   -0.704380
   1 H :    0.358145
   2 H :    0.372082
   3 O :   -0.739458
   4 H :    0.336594
   5 H :    0.365622
   6 O :   -0.696189
   7 H :    0.370726
   8 H :    0.307897
   9 O :   -0.708247
  10 H :    0.327620
  11 H :    0.357706
  12 O :   -0.696891
  13 H :    0.348455
  14 H :    0.378989
  15 O :   -0.695536
  16 H :    0.346834
  17 H :    0.370032
Sum of atomic charges:   -0.0000000

--------------------------------
MULLIKEN REDUCED ORBITAL CHARGES
--------------------------------
  0 O s       :     3.807339  s :     3.807339
      pz      :     1.722515  p :     4.843919
      px      :     1.366952
      py      :     1.754452
      dz2     :     0.009524  d :     0.049141
      dxz     :     0.009713
      dyz     :     0.010668
      dx2y2   :     0.007742
      dxy     :     0.011494
      f0      :     0.000460  f :     0.003981
      f+1     :     0.000694
      f-1     :     0.000540
      f+2     :     0.000428
      f-2     :     0.000698
      f+3     :     0.000459
      f-3     :     0.000702
  1 H s       :     0.594384  s :     0.594384
      pz      :     0.017940  p :     0.047471
      px      :     0.013575
      py      :     0.015956
  2 H s       :     0.584724  s :     0.584724
      pz      :     0.012588  p :     0.043193
      px      :     0.017095
      py      :     0.013510
  3 O s       :     3.806465  s :     3.806465
      pz      :     1.688720  p :     4.880460
      px      :     1.400033
      py      :     1.791707
      dz2     :     0.009138  d :     0.048592
      dxz     :     0.009167
      dyz     :     0.010567
      dx2y2   :     0.007683
      dxy     :     0.012038
      f0      :     0.000449  f :     0.003941
      f+1     :     0.000660
      f-1     :     0.000534
      f+2     :     0.000439
      f-2     :     0.000695
      f+3     :     0.000461
      f-3     :     0.000703
  4 H s       :     0.615239  s :     0.615239
      pz      :     0.017477  p :     0.048167
      px      :     0.014420
      py      :     0.016269
  5 H s       :     0.575817  s :     0.575817
      pz      :     0.011879  p :     0.058561
      px      :     0.031312
      py      :     0.015369
  6 O s       :     3.806068  s :     3.806068
      pz      :     1.575890  p :     4.836707
      px      :     1.405951
      py      :     1.854866
      dz2     :     0.015066  d :     0.049458
      dxz     :     0.007837
      dyz     :     0.008109
      dx2y2   :     0.008242
      dxy     :     0.010203
      f0      :     0.000534  f :     0.003955
      f+1     :     0.000780
      f-1     :     0.000491
      f+2     :     0.000440
      f-2     :     0.000403
      f+3     :     0.000491
      f-3     :     0.000817
  7 H s       :     0.578072  s :     0.578072
      pz      :     0.024235  p :     0.051202
      px      :     0.012128
      py      :     0.014839
  8 H s       :     0.645318  s :     0.645318
      pz      :     0.012380  p :     0.046785
      px      :     0.017170
      py      :     0.017235
  9 O s       :     3.804767  s :     3.804767
      pz      :     1.475949  p :     4.849701
      px      :     1.565388
      py      :     1.808364
      dz2     :     0.015574  d :     0.049800
      dxz     :     0.006564
      dyz     :     0.008352
      dx2y2   :     0.007504
      dxy     :     0.011805
      f0      :     0.000631  f :     0.003979
      f+1     :     0.000724
      f-1     :     0.000529
      f+2     :     0.000416
      f-2     :     0.000420
      f+3     :     0.000435
      f-3     :     0.000823
 10 H s       :     0.625060  s :     0.625060
      pz      :     0.018030  p :     0.047320
      px      :     0.013646
      py      :     0.015644
 11 H s       :     0.589953  s :     0.589953
      pz      :     0.011273  p :     0.052341
      px      :     0.023592
      py      :     0.017476
 12 O s       :     3.789108  s :     3.789108
      pz      :     1.503867  p :     4.853525
      px      :     1.761736
      py      :     1.587923
      dz2     :     0.016114  d :     0.050336
      dxz     :     0.007947
      dyz     :     0.006654
      dx2y2   :     0.008042
      dxy     :     0.011580
      f0      :     0.000614  f :     0.003922
      f+1     :     0.000524
      f-1     :     0.000734
      f+2     :     0.000415
      f-2     :     0.000422
      f+3     :     0.000788
      f-3     :     0.000426
 13 H s       :     0.605354  s :     0.605354
      pz      :     0.018469  p :     0.046191
      px      :     0.014598
      py      :     0.013124
 14 H s       :     0.569920  s :     0.569920
      pz      :     0.010783  p :     0.051091
      px      :     0.016278
      py      :     0.024029
 15 O s       :     3.808389  s :     3.808389
      pz      :     1.715668  p :     4.833822
      px      :     1.754950
      py      :     1.363204
      dz2     :     0.009565  d :     0.049334
      dxz     :     0.010732
      dyz     :     0.009743
      dx2y2   :     0.007746
      dxy     :     0.011548
      f0      :     0.000460  f :     0.003990
      f+1     :     0.000542
      f-1     :     0.000694
      f+2     :     0.000429
      f-2     :     0.000699
      f+3     :     0.000707
      f-3     :     0.000460
 16 H s       :     0.605328  s :     0.605328
      pz      :     0.017898  p :     0.047837
      px      :     0.016266
      py      :     0.013673
 17 H s       :     0.586722  s :     0.586722
      pz      :     0.012681  p :     0.043246
      px      :     0.013546
      py      :     0.017019


                     *******************************
                     * LOEWDIN POPULATION ANALYSIS *
                     *******************************

----------------------
LOEWDIN ATOMIC CHARGES
----------------------
   0 O :   -0.311028
   1 H :    0.166568
   2 H :    0.192980
   3 O :   -0.342924
   4 H :    0.153342
   5 H :    0.141705
   6 O :   -0.349168
   7 H :    0.150299
   8 H :    0.156009
   9 O :   -0.350889
  10 H :    0.159397
  11 H :    0.147283
  12 O :   -0.279118
  13 H :    0.167803
  14 H :    0.155426
  15 O :   -0.310335
  16 H :    0.161095
  17 H :    0.191555

-------------------------------
LOEWDIN REDUCED ORBITAL CHARGES
-------------------------------
  0 O s       :     3.464955  s :     3.464955
      pz      :     1.701152  p :     4.783218
      px      :     1.360496
      py      :     1.721570
      dz2     :     0.010358  d :     0.058030
      dxz     :     0.012213
      dyz     :     0.011078
      dx2y2   :     0.009663
      dxy     :     0.014717
      f0      :     0.000458  f :     0.004825
      f+1     :     0.000869
      f-1     :     0.000654
      f+2     :     0.000408
      f-2     :     0.001015
      f+3     :     0.000477
      f-3     :     0.000943
  1 H s       :     0.667317  s :     0.667317
      pz      :     0.067711  p :     0.166115
      px      :     0.044583
      py      :     0.053821
  2 H s       :     0.655574  s :     0.655574
      pz      :     0.034780  p :     0.151446
      px      :     0.071751
      py      :     0.044914
  3 O s       :     3.459702  s :     3.459702
      pz      :     1.660932  p :     4.821020
      px      :     1.391047
      py      :     1.769041
      dz2     :     0.010439  d :     0.057398
      dxz     :     0.012152
      dyz     :     0.011382
      dx2y2   :     0.008910
      dxy     :     0.014514
      f0      :     0.000471  f :     0.004805
      f+1     :     0.000855
      f-1     :     0.000647
      f+2     :     0.000412
      f-2     :     0.001029
      f+3     :     0.000477
      f-3     :     0.000913
  4 H s       :     0.678430  s :     0.678430
      pz      :     0.067123  p :     0.168227
      px      :     0.046273
      py      :     0.054832
  5 H s       :     0.659265  s :     0.659265
      pz      :     0.034941  p :     0.199030
      px      :     0.114825
      py      :     0.049264
  6 O s       :     3.469590  s :     3.469590
      pz      :     1.566570  p :     4.816470
      px      :     1.431165
      py      :     1.818735
      dz2     :     0.019325  d :     0.058239
      dxz     :     0.008874
      dyz     :     0.007133
      dx2y2   :     0.010130
      dxy     :     0.012777
      f0      :     0.000748  f :     0.004868
      f+1     :     0.001168
      f-1     :     0.000588
      f+2     :     0.000416
      f-2     :     0.000409
      f+3     :     0.000452
      f-3     :     0.001087
  7 H s       :     0.673967  s :     0.673967
      pz      :     0.095423  p :     0.175734
      px      :     0.036055
      py      :     0.044256
  8 H s       :     0.687114  s :     0.687114
      pz      :     0.032566  p :     0.156877
      px      :     0.072922
      py      :     0.051389
  9 O s       :     3.465036  s :     3.465036
      pz      :     1.497059  p :     4.822755
      px      :     1.542815
      py      :     1.782881
      dz2     :     0.021242  d :     0.058194
      dxz     :     0.007384
      dyz     :     0.007828
      dx2y2   :     0.007477
      dxy     :     0.014264
      f0      :     0.000920  f :     0.004904
      f+1     :     0.001012
      f-1     :     0.000710
      f+2     :     0.000391
      f-2     :     0.000422
      f+3     :     0.000377
      f-3     :     0.001073
 10 H s       :     0.678916  s :     0.678916
      pz      :     0.080117  p :     0.161687
      px      :     0.037380
      py      :     0.044189
 11 H s       :     0.675980  s :     0.675980
      pz      :     0.030558  p :     0.176737
      px      :     0.086727
      py      :     0.059453
 12 O s       :     3.449814  s :     3.449814
      pz      :     1.506373  p :     4.765099
      px      :     1.709944
      py      :     1.548782
      dz2     :     0.021518  d :     0.059281
      dxz     :     0.007462
      dyz     :     0.007336
      dx2y2   :     0.009123
      dxy     :     0.013841
      f0      :     0.000893  f :     0.004924
      f+1     :     0.000734
      f-1     :     0.001005
      f+2     :     0.000391
      f-2     :     0.000426
      f+3     :     0.001066
      f-3     :     0.000410
 13 H s       :     0.669676  s :     0.669676
      pz      :     0.081112  p :     0.162522
      px      :     0.043583
      py      :     0.037826
 14 H s       :     0.666634  s :     0.666634
      pz      :     0.030440  p :     0.177940
      px      :     0.059241
      py      :     0.088260
 15 O s       :     3.466524  s :     3.466524
      pz      :     1.698258  p :     4.780386
      px      :     1.723141
      py      :     1.358986
      dz2     :     0.010433  d :     0.058576
      dxz     :     0.011251
      dyz     :     0.012417
      dx2y2   :     0.009608
      dxy     :     0.014868
      f0      :     0.000460  f :     0.004850
      f+1     :     0.000660
      f-1     :     0.000871
      f+2     :     0.000408
      f-2     :     0.001025
      f+3     :     0.000947
      f-3     :     0.000477
 16 H s       :     0.672545  s :     0.672545
      pz      :     0.067741  p :     0.166360
      px      :     0.054229
      py      :     0.044390
 17 H s       :     0.657208  s :     0.657208
      pz      :     0.034718  p :     0.151238
      px      :     0.044841
      py      :     0.071679


                      *****************************
                      * MAYER POPULATION ANALYSIS *
                      *****************************

  NA   - Mulliken gross atomic population
  ZA   - Total nuclear charge
  QA   - Mulliken gross atomic charge
  VA   - Mayer's total valence
  BVA  - Mayer's bonded valence
  FA   - Mayer's free valence

  ATOM       NA         ZA         QA         VA         BVA        FA
  0 O      8.7044     8.0000    -0.7044     2.0971     1.7132     0.3839
  1 H      0.6419     1.0000     0.3581     0.8908     0.8459     0.0449
  2 H      0.6279     1.0000     0.3721     0.8810     0.8345     0.0465
  3 O      8.7395     8.0000    -0.7395     2.0282     1.6399     0.3883
  4 H      0.6634     1.0000     0.3366     0.9070     0.8598     0.0473
  5 H      0.6344     1.0000     0.3656     0.9203     0.8746     0.0457
  6 O      8.6962     8.0000    -0.6962     2.0682     1.6838     0.3844
  7 H      0.6293     1.0000     0.3707     0.9088     0.8654     0.0435
  8 H      0.6921     1.0000     0.3079     0.9294     0.8782     0.0513
  9 O      8.7082     8.0000    -0.7082     2.0548     1.6724     0.3824
 10 H      0.6724     1.0000     0.3276     0.9100     0.8616     0.0485
 11 H      0.6423     1.0000     0.3577     0.9200     0.8755     0.0445
 12 O      8.6969     8.0000    -0.6969     2.0881     1.7060     0.3821
 13 H      0.6515     1.0000     0.3485     0.8986     0.8516     0.0470
 14 H      0.6210     1.0000     0.3790     0.9021     0.8591     0.0430
 15 O      8.6955     8.0000    -0.6955     2.0997     1.7163     0.3834
 16 H      0.6532     1.0000     0.3468     0.8990     0.8530     0.0459
 17 H      0.6300     1.0000     0.3700     0.8824     0.8358     0.0466

  Mayer bond orders larger than 0.100000
B(  0-O ,  1-H ) :   0.8383 B(  0-O ,  2-H ) :   0.8216 B(  3-O ,  4-H ) :   0.8507 
B(  3-O ,  5-H ) :   0.7609 B(  6-O ,  7-H ) :   0.8093 B(  6-O ,  8-H ) :   0.8658 
B(  9-O , 10-H ) :   0.8591 B(  9-O , 11-H ) :   0.8156 B( 12-O , 13-H ) :   0.8426 
B( 12-O , 14-H ) :   0.7924 B( 15-O , 16-H ) :   0.8447 B( 15-O , 17-H ) :   0.8229 



----------------------------------
MP2 DERIVATIVE INTEGRAL GENERATION
----------------------------------


Input Wavefunction Amplitudes       ... 12h2o.su.etal.mol0,1,7,8,9,10-orca.engrad-mp2.def2tzvp.frozencore.mp2tsaa.tmp
Input Correlated Electron Density   ... 12h2o.su.etal.mol0,1,7,8,9,10-orca.engrad-mp2.def2tzvp.frozencore.pmp2re
Input Energy Weighted Density       ... 12h2o.su.etal.mol0,1,7,8,9,10-orca.engrad-mp2.def2tzvp.frozencore.wmp2.tmp
Input SCF Electron Density          ... 12h2o.su.etal.mol0,1,7,8,9,10-orca.engrad-mp2.def2tzvp.frozencore.scfp

One-Electron Terms    ...
                        ... One-Electron Terms done
Prescreening matrices              ... done

Batch handling in the gradient evaluation:
Memory available                      ... 8000.0 MB
Memory per occupied orbital in Q2     ...   12.2 MB
Memory per occupied orbital in Q3     ...    0.1 MB
Total memory requirement per |i>      ...   12.3 MB
Max. Number of orbitals possible      ...    651
Number of orbitals treated per batch  ...     24
Number of batches to be done          ...      1
Batch   0: i=    6 ...    29

---------------------------------------
MP2 TOTAL ENERGY:     -457.914954901 Eh
---------------------------------------

The final MP2 gradient
  0:   0.02788609  -0.00353660  -0.00136803
  1:   0.00076957  -0.00238480  -0.00146906
  2:  -0.02623082   0.00735292   0.00228832
  3:  -0.00618814   0.00358386   0.00012073
  4:  -0.00102667   0.00043198  -0.00067591
  5:   0.01302974  -0.00428211  -0.00263709
  6:  -0.01697189   0.01051399   0.00288074
  7:  -0.00405681  -0.00378390  -0.00088438
  8:   0.01993159  -0.00880389   0.00115596
  9:  -0.00073326  -0.00292331  -0.00847561
 10:   0.00338455   0.00121864   0.00979840
 11:  -0.00308219   0.00146975  -0.00251036
 12:  -0.00370868   0.00251162   0.00984029
 13:  -0.00146249  -0.00041837  -0.00858220
 14:  -0.00216510  -0.00129860   0.00094948
 15:   0.00581347   0.02592429   0.00250219
 16:   0.00227942   0.00142299   0.00127892
 17:  -0.00746839  -0.02699845  -0.00421239

-----------------------------------
NORM OF THE MP2 GRADIENT:  0.068130
-----------------------------------

-------------------------   --------------------
FINAL SINGLE POINT ENERGY      -457.914954901397
-------------------------   --------------------


                            ***************************************
                            *     ORCA property calculations      *
                            ***************************************

                                    ---------------------
                                    Active property flags
                                    ---------------------
   (+) Dipole Moment


------------------------------------------------------------------------------
                       ORCA ELECTRIC PROPERTIES CALCULATION
------------------------------------------------------------------------------

Dipole Moment Calculation                       ... on
Quadrupole Moment Calculation                   ... off
Polarizability Calculation                      ... off
GBWName                                         ... 12h2o.su.etal.mol0,1,7,8,9,10-orca.engrad-mp2.def2tzvp.frozencore.gbw
Electron density file                           ... 12h2o.su.etal.mol0,1,7,8,9,10-orca.engrad-mp2.def2tzvp.frozencore.scfp
The origin for moment calculation is the CENTER OF MASS  = (-0.055198, -0.026559  0.885083)

-------------
DIPOLE MOMENT
-------------
                                X             Y             Z
Electronic contribution:      0.14891       0.16554       0.05192
Nuclear contribution   :     -0.11407       0.25770       1.40687
                        -----------------------------------------
Total Dipole Moment    :      0.03484       0.42324       1.45879
                        -----------------------------------------
Magnitude (a.u.)       :      1.51935
Magnitude (Debye)      :      3.86188



--------------------
Rotational spectrum 
--------------------
 
Rotational constants in cm-1:     0.048774     0.019716     0.016095 
Rotational constants in MHz :  1462.204329   591.055940   482.525495 

 Dipole components along the rotational axes: 
x,y,z [a.u.] :     1.225273    -0.346496    -0.828899 
x,y,z [Debye]:     3.114395    -0.880724    -2.106893 

 

                         *** MP2 UNRELAXED DENSITY ***

------------------------------------------------------------------------------
                       ORCA ELECTRIC PROPERTIES CALCULATION
------------------------------------------------------------------------------

Dipole Moment Calculation                       ... on
Quadrupole Moment Calculation                   ... off
Polarizability Calculation                      ... off
GBWName                                         ... 12h2o.su.etal.mol0,1,7,8,9,10-orca.engrad-mp2.def2tzvp.frozencore.gbw
Electron density file                           ... 12h2o.su.etal.mol0,1,7,8,9,10-orca.engrad-mp2.def2tzvp.frozencore.pmp2ur
The origin for moment calculation is the CENTER OF MASS  = (-0.055198, -0.026559  0.885083)

-------------
DIPOLE MOMENT
-------------
                                X             Y             Z
Electronic contribution:      0.15209       0.16667       0.04133
Nuclear contribution   :     -0.11407       0.25770       1.40687
                        -----------------------------------------
Total Dipole Moment    :      0.03802       0.42436       1.44820
                        -----------------------------------------
Magnitude (a.u.)       :      1.50958
Magnitude (Debye)      :      3.83704



--------------------
Rotational spectrum 
--------------------
 
Rotational constants in cm-1:     0.048774     0.019716     0.016095 
Rotational constants in MHz :  1462.204329   591.055940   482.525495 

 Dipole components along the rotational axes: 
x,y,z [a.u.] :     1.214832    -0.348408    -0.825598 
x,y,z [Debye]:     3.087858    -0.885584    -2.098504 

 

                           *** MP2 RELAXED DENSITY ***

------------------------------------------------------------------------------
                       ORCA ELECTRIC PROPERTIES CALCULATION
------------------------------------------------------------------------------

Dipole Moment Calculation                       ... on
Quadrupole Moment Calculation                   ... off
Polarizability Calculation                      ... off
GBWName                                         ... 12h2o.su.etal.mol0,1,7,8,9,10-orca.engrad-mp2.def2tzvp.frozencore.gbw
Electron density file                           ... 12h2o.su.etal.mol0,1,7,8,9,10-orca.engrad-mp2.def2tzvp.frozencore.pmp2re
The origin for moment calculation is the CENTER OF MASS  = (-0.055198, -0.026559  0.885083)

-------------
DIPOLE MOMENT
-------------
                                X             Y             Z
Electronic contribution:      0.16651       0.17822       0.04179
Nuclear contribution   :     -0.11407       0.25770       1.40687
                        -----------------------------------------
Total Dipole Moment    :      0.05244       0.43591       1.44866
                        -----------------------------------------
Magnitude (a.u.)       :      1.51373
Magnitude (Debye)      :      3.84761



--------------------
Rotational spectrum 
--------------------
 
Rotational constants in cm-1:     0.048774     0.019716     0.016095 
Rotational constants in MHz :  1462.204329   591.055940   482.525495 

 Dipole components along the rotational axes: 
x,y,z [a.u.] :     1.210845    -0.365391    -0.831707 
x,y,z [Debye]:     3.077723    -0.928751    -2.114032 

 

Timings for individual modules:

Sum of individual times         ...       51.954 sec (=   0.866 min)
GTO integral calculation        ...        0.843 sec (=   0.014 min)   1.6 %
SCF iterations                  ...       12.990 sec (=   0.216 min)  25.0 %
MP2 module                      ...       38.122 sec (=   0.635 min)  73.4 %
                             ****ORCA TERMINATED NORMALLY****
TOTAL RUN TIME: 0 days 0 hours 0 minutes 52 seconds 868 msec
