
                                 *****************
                                 * O   R   C   A *
                                 *****************

           --- An Ab Initio, DFT and Semiempirical electronic structure package ---

                  #######################################################
                  #                        -***-                        #
                  #          Department of theory and spectroscopy      #
                  #               Directorship: Frank Neese             #
                  #        Max Planck Institute fuer Kohlenforschung    #
                  #                Kaiser Wilhelm Platz 1               #
                  #                 D-45470 Muelheim/Ruhr               #
                  #                      Germany                        #
                  #                                                     #
                  #                  All rights reserved                #
                  #                        -***-                        #
                  #######################################################


                         Program Version 4.2.0 -  RELEASE  -


 With contributions from (in alphabetic order):
   Daniel Aravena         : Magnetic Suceptibility
   Michael Atanasov       : Ab Initio Ligand Field Theory (pilot matlab implementation)
   Alexander A. Auer      : GIAO ZORA, VPT2
   Ute Becker             : Parallelization
   Giovanni Bistoni       : ED, misc. LED, open-shell LED, HFLED
   Martin Brehm           : Molecular dynamics
   Dmytro Bykov           : SCF Hessian
   Vijay G. Chilkuri      : MRCI spin determinant printing, contributions to CSF-ICE
   Dipayan Datta          : RHF DLPNO-CCSD density
   Achintya Kumar Dutta   : EOM-CC, STEOM-CC
   Dmitry Ganyushin       : Spin-Orbit,Spin-Spin,Magnetic field MRCI
   Miquel Garcia          : C-PCM Hessian, Gaussian charge scheme
   Yang Guo               : DLPNO-NEVPT2, CIM, IAO-localization
   Andreas Hansen         : Spin unrestricted coupled pair/coupled cluster methods
   Benjamin Helmich-Paris : CASSCF linear response (MC-RPA)
   Lee Huntington         : MR-EOM, pCC
   Robert Izsak           : Overlap fitted RIJCOSX, COSX-SCS-MP3, EOM
   Christian Kollmar      : KDIIS, OOCD, Brueckner-CCSD(T), CCSD density
   Simone Kossmann        : Meta GGA functionals, TD-DFT gradient, OOMP2, MP2 Hessian
   Martin Krupicka        : AUTO-CI
   Lucas Lang             : DCDCAS
   Dagmar Lenk            : GEPOL surface, SMD
   Dimitrios Liakos       : Extrapolation schemes; Compound Job, initial MDCI parallelization
   Dimitrios Manganas     : Further ROCIS development; embedding schemes
   Dimitrios Pantazis     : SARC Basis sets
   Taras Petrenko         : DFT Hessian,TD-DFT gradient, ASA, ECA, R-Raman, ABS, FL, XAS/XES, NRVS
   Peter Pinski           : DLPNO-MP2, DLPNO-MP2 Gradient
   Christoph Reimann      : Effective Core Potentials
   Marius Retegan         : Local ZFS, SOC
   Christoph Riplinger    : Optimizer, TS searches, QM/MM, DLPNO-CCSD(T), (RO)-DLPNO pert. Triples
   Tobias Risthaus        : Range-separated hybrids, TD-DFT gradient, RPA, STAB
   Michael Roemelt        : Original ROCIS implementation
   Masaaki Saitow         : Open-shell DLPNO-CCSD energy and density
   Barbara Sandhoefer     : DKH picture change effects
   Avijit Sen             : IP-ROCIS
   Kantharuban Sivalingam : CASSCF convergence, NEVPT2, FIC-MRCI
   Bernardo de Souza      : ESD, SOC TD-DFT
   Georgi Stoychev        : AutoAux, RI-MP2 NMR
   Willem Van den Heuvel  : Paramagnetic NMR
   Boris Wezisla          : Elementary symmetry handling
   Frank Wennmohs         : Technical directorship


 We gratefully acknowledge several colleagues who have allowed us to
 interface, adapt or use parts of their codes:
   Stefan Grimme, W. Hujo, H. Kruse,             : VdW corrections, initial TS optimization,
                  C. Bannwarth                     DFT functionals, gCP, sTDA/sTD-DF
   Ed Valeev, F. Pavosevic, A. Kumar             : LibInt (2-el integral package), F12 methods
   Garnet Chan, S. Sharma, J. Yang, R. Olivares  : DMRG
   Ulf Ekstrom                                   : XCFun DFT Library
   Mihaly Kallay                                 : mrcc  (arbitrary order and MRCC methods)
   Andreas Klamt, Michael Diedenhofen            : otool_cosmo (COSMO solvation model)
   Jiri Pittner, Ondrej Demel                    : Mk-CCSD
   Frank Weinhold                                : gennbo (NPA and NBO analysis)
   Christopher J. Cramer and Donald G. Truhlar   : smd solvation model
   Lars Goerigk                                  : TD-DFT with DH, B97 family of functionals
   V. Asgeirsson, H. Jonsson                     : NEB implementation
   FAccTs GmbH                                   : IRC, NEB, NEB-TS, Multilevel, MM, QM/MM, CI optimization
   S Lehtola, MJT Oliveira, MAL Marques          : LibXC Library


 Your calculation uses the libint2 library for the computation of 2-el integrals
 For citations please refer to: http://libint.valeyev.net

 Your ORCA version has been built with support for libXC version: 4.2.3
 For citations please refer to: https://tddft.org/programs/libxc/

 This ORCA versions uses:
   CBLAS   interface :  Fast vector & matrix operations
   LAPACKE interface :  Fast linear algebra routines
   SCALAPACK package :  Parallel linear algebra routines


----- Orbital basis set information -----
Your calculation utilizes the basis: def2-TZVP
   F. Weigend and R. Ahlrichs, Phys. Chem. Chem. Phys. 7, 3297 (2005).

================================================================================
                                        WARNINGS
                       Please study these warnings very carefully!
================================================================================


WARNING: The frozen-core approximation for MP2-gradient calculations is turned on by default.

INFO   : the flag for use of LIBINT has been found!

================================================================================
                                       INPUT FILE
================================================================================
NAME = 12mecn.remya.etal.2.mol1,5,7-orca.engrad-mp2.def2tzvp.frozencore.inp
|  1> # 12mecn.remya.etal.2.mol1,5,7
|  2> ! MP2 def2-TZVP EnGrad TightSCF
|  3> 
|  4> %pal
|  5>     nprocs 6
|  6> end
|  7> 
|  8> %maxcore 8000
|  9> 
| 10> %scf
| 11>     ConvForced true
| 12> end
| 13> 
| 14> *xyz 0 1
| 15> C  -4.697980000  -0.249690000   1.746215000
| 16> H  -4.927570000   0.755530000   2.111799000
| 17> H  -3.709180000  -0.561560000   2.093253000
| 18> H  -5.432280000  -0.961520000   2.128066000
| 19> C  -4.714100000  -0.247110000   0.301670000
| 20> N  -4.729750000  -0.234960000  -0.865260000
| 21> C  -1.955700000   2.515080000   1.698463000
| 22> H  -2.923830000   2.883163000   2.049269000
| 23> H  -1.154850000   3.171830000   2.050990000
| 24> H  -1.790380000   1.506115000   2.087896000
| 25> C  -1.948230000   2.482156000   0.253672000
| 26> N  -1.937550000   2.462523000  -0.913150000
| 27> C   1.502241000   0.651296000   1.710523000
| 28> H   1.309219000   1.637164000   2.143202000
| 29> H   2.493408000   0.297996000   2.009069000
| 30> H   0.746597000  -0.059850000   2.055508000
| 31> C   1.447974000   0.738517000   0.269805000
| 32> N   1.405612000   0.808047000  -0.894380000
| 33> *
| 34> 
| 35>                          ****END OF INPUT****
================================================================================

                     *******************************
                     * Energy+Gradient Calculation *
                     *******************************

---------------------------------
CARTESIAN COORDINATES (ANGSTROEM)
---------------------------------
  C     -4.697980   -0.249690    1.746215
  H     -4.927570    0.755530    2.111799
  H     -3.709180   -0.561560    2.093253
  H     -5.432280   -0.961520    2.128066
  C     -4.714100   -0.247110    0.301670
  N     -4.729750   -0.234960   -0.865260
  C     -1.955700    2.515080    1.698463
  H     -2.923830    2.883163    2.049269
  H     -1.154850    3.171830    2.050990
  H     -1.790380    1.506115    2.087896
  C     -1.948230    2.482156    0.253672
  N     -1.937550    2.462523   -0.913150
  C      1.502241    0.651296    1.710523
  H      1.309219    1.637164    2.143202
  H      2.493408    0.297996    2.009069
  H      0.746597   -0.059850    2.055508
  C      1.447974    0.738517    0.269805
  N      1.405612    0.808047   -0.894380

----------------------------
CARTESIAN COORDINATES (A.U.)
----------------------------
  NO LB      ZA    FRAG     MASS         X           Y           Z
   0 C     6.0000    0    12.011   -8.877896   -0.471846    3.299868
   1 H     1.0000    0     1.008   -9.311758    1.427745    3.990722
   2 H     1.0000    0     1.008   -7.009334   -1.061195    3.955675
   3 H     1.0000    0     1.008  -10.265521   -1.817009    4.021462
   4 C     6.0000    0    12.011   -8.908358   -0.466970    0.570074
   5 N     7.0000    0    14.007   -8.937932   -0.444010   -1.635104
   6 C     6.0000    0    12.011   -3.695737    4.752812    3.209630
   7 H     1.0000    0     1.008   -5.525238    5.448388    3.872557
   8 H     1.0000    0     1.008   -2.182350    5.993890    3.875809
   9 H     1.0000    0     1.008   -3.383328    2.846145    3.945552
  10 C     6.0000    0    12.011   -3.681621    4.690595    0.479371
  11 N     7.0000    0    14.007   -3.661439    4.653494   -1.725603
  12 C     6.0000    0    12.011    2.838824    1.230771    3.232420
  13 H     1.0000    0     1.008    2.474065    3.093792    4.050065
  14 H     1.0000    0     1.008    4.711858    0.563131    3.796590
  15 H     1.0000    0     1.008    1.410864   -0.113100    3.884347
  16 C     6.0000    0    12.011    2.736274    1.395595    0.509858
  17 N     7.0000    0    14.007    2.656222    1.526988   -1.690133

--------------------------------
INTERNAL COORDINATES (ANGSTROEM)
--------------------------------
 C      0   0   0     0.000000000000     0.00000000     0.00000000
 H      1   0   0     1.093997476028     0.00000000     0.00000000
 H      1   2   0     1.093354338878   110.23188073     0.00000000
 H      1   2   3     1.091654077582   109.94364040   119.12222513
 C      1   2   3     1.444637244371   109.27900475   240.05041290
 N      5   1   2     1.167098183488   179.48927802   358.44615688
 C      2   1   3     3.478343592616   104.22867607    42.02094339
 H      7   2   1     1.093538129845    51.37214058   176.35579542
 H      7   2   1     1.094055104064   152.97247095   229.39443994
 H      7   2   1     1.094074556470    67.68477476   318.03897180
 C      7   2   1     1.445185394459    96.41278655    66.53540675
 N     11   7   2     1.167036030623   179.58931694   154.52786171
 C     10   7   2     3.422642101291   109.66037449   163.76669270
 H     13  10   7     1.093802689222    63.99250012    47.70531260
 H     13  10   7     1.093783628514   157.26989584   127.52823072
 H     13  10   7     1.093499491667    57.51074760   187.03164997
 C     13  10   7     1.444375562537    93.36822762   297.64440640
 N     17  13  10     1.167028566132   179.91347457   197.68323012

---------------------------
INTERNAL COORDINATES (A.U.)
---------------------------
 C      0   0   0     0.000000000000     0.00000000     0.00000000
 H      1   0   0     2.067355620894     0.00000000     0.00000000
 H      1   2   0     2.066140267815   110.23188073     0.00000000
 H      1   2   3     2.062927239608   109.94364040   119.12222513
 C      1   2   3     2.729968754725   109.27900475   240.05041290
 N      5   1   2     2.205495938188   179.48927802   358.44615688
 C      2   1   3     6.573116789725   104.22867607    42.02094339
 H      7   2   1     2.066487582408    51.37214058   176.35579542
 H      7   2   1     2.067464522100   152.97247095   229.39443994
 H      7   2   1     2.067501281819    67.68477476   318.03897180
 C      7   2   1     2.731004608270    96.41278655    66.53540675
 N     11   7   2     2.205378486297   179.58931694   154.52786171
 C     10   7   2     6.467856225869   109.66037449   163.76669270
 H     13  10   7     2.066987527176    63.99250012    47.70531260
 H     13  10   7     2.066951507658   157.26989584   127.52823072
 H     13  10   7     2.066414566834    57.51074760   187.03164997
 C     13  10   7     2.729474247723    93.36822762   297.64440640
 N     17  13  10     2.205364380453   179.91347457   197.68323012

---------------------
BASIS SET INFORMATION
---------------------
There are 3 groups of distinct atoms

 Group   1 Type C   : 11s6p2d1f contracted to 5s3p2d1f pattern {62111/411/11/1}
 Group   2 Type H   : 5s1p contracted to 3s1p pattern {311/1}
 Group   3 Type N   : 11s6p2d1f contracted to 5s3p2d1f pattern {62111/411/11/1}

Atom   0C    basis set group =>   1
Atom   1H    basis set group =>   2
Atom   2H    basis set group =>   2
Atom   3H    basis set group =>   2
Atom   4C    basis set group =>   1
Atom   5N    basis set group =>   3
Atom   6C    basis set group =>   1
Atom   7H    basis set group =>   2
Atom   8H    basis set group =>   2
Atom   9H    basis set group =>   2
Atom  10C    basis set group =>   1
Atom  11N    basis set group =>   3
Atom  12C    basis set group =>   1
Atom  13H    basis set group =>   2
Atom  14H    basis set group =>   2
Atom  15H    basis set group =>   2
Atom  16C    basis set group =>   1
Atom  17N    basis set group =>   3


           ************************************************************
           *        Program running with 6 parallel MPI-processes     *
           *              working on a common directory               *
           ************************************************************
------------------------------------------------------------------------------
                           ORCA GTO INTEGRAL CALCULATION
------------------------------------------------------------------------------

                         BASIS SET STATISTICS AND STARTUP INFO

 # of primitive gaussian shells          ...  234
 # of primitive gaussian functions       ...  486
 # of contracted shells                  ...  135
 # of contracted basis functions         ...  333
 Highest angular momentum                ...    3
 Maximum contraction depth               ...    6
 Integral package used                   ... LIBINT
 Integral threshhold            Thresh   ...  2.500e-11
 Primitive cut-off              TCut     ...  2.500e-12


------------------------------ INTEGRAL EVALUATION ----------------------------


 * One electron integrals 
 Pre-screening matrix                    ... done
 Shell pair data                         ... done (   0.002 sec)



           ************************************************************
           *        Program running with 6 parallel MPI-processes     *
           *              working on a common directory               *
           ************************************************************
-------------------------------------------------------------------------------
                                 ORCA SCF
-------------------------------------------------------------------------------

------------
SCF SETTINGS
------------
Hamiltonian:
 Ab initio Hamiltonian  Method          .... Hartree-Fock(GTOs)


General Settings:
 Integral files         IntName         .... 12mecn.remya.etal.2.mol1,5,7-orca.engrad-mp2.def2tzvp.frozencore
 Hartree-Fock type      HFTyp           .... RHF
 Total Charge           Charge          ....    0
 Multiplicity           Mult            ....    1
 Number of Electrons    NEL             ....   66
 Basis Dimension        Dim             ....  333
 Nuclear Repulsion      ENuc            ....    338.2312656761 Eh

Convergence Acceleration:
 DIIS                   CNVDIIS         .... on
   Start iteration      DIISMaxIt       ....    12
   Startup error        DIISStart       ....  0.200000
   # of expansion vecs  DIISMaxEq       ....     5
   Bias factor          DIISBfac        ....   1.050
   Max. coefficient     DIISMaxC        ....  10.000
 Newton-Raphson         CNVNR           .... off
 SOSCF                  CNVSOSCF        .... on
   Start iteration      SOSCFMaxIt      ....   150
   Startup grad/error   SOSCFStart      ....  0.003300
 Level Shifting         CNVShift        .... on
   Level shift para.    LevelShift      ....    0.2500
   Turn off err/grad.   ShiftErr        ....    0.0010
 Zerner damping         CNVZerner       .... off
 Static damping         CNVDamp         .... on
   Fraction old density DampFac         ....    0.7000
   Max. Damping (<1)    DampMax         ....    0.9800
   Min. Damping (>=0)   DampMin         ....    0.0000
   Turn off err/grad.   DampErr         ....    0.1000
 Fernandez-Rico         CNVRico         .... off

SCF Procedure:
 Maximum # iterations   MaxIter         ....   125
 SCF integral mode      SCFMode         .... Direct
   Integral package                     .... LIBINT
 Reset frequency        DirectResetFreq ....    20
 Integral Threshold     Thresh          ....  2.500e-11 Eh
 Primitive CutOff       TCut            ....  2.500e-12 Eh

Convergence Tolerance:
 Convergence Check Mode ConvCheckMode   .... Total+1el-Energy
 Convergence forced     ConvForced      .... 1
 Energy Change          TolE            ....  1.000e-08 Eh
 1-El. energy change                    ....  1.000e-05 Eh
 Orbital Gradient       TolG            ....  1.000e-05
 Orbital Rotation angle TolX            ....  1.000e-05
 DIIS Error             TolErr          ....  5.000e-07


Diagonalization of the overlap matrix:
Smallest eigenvalue                        ... 1.340e-04
Time for diagonalization                   ...    0.016 sec
Threshold for overlap eigenvalues          ... 1.000e-08
Number of eigenvalues below threshold      ... 0
Time for construction of square roots      ...    0.008 sec
Total time needed                          ...    0.025 sec

-------------------
DFT GRID GENERATION
-------------------

General Integration Accuracy     IntAcc      ...  4.340
Radial Grid Type                 RadialGrid  ... Gauss-Chebyshev
Angular Grid (max. acc.)         AngularGrid ... Lebedev-110
Angular grid pruning method      GridPruning ... 3 (G Style)
Weight generation scheme         WeightScheme... Becke
Basis function cutoff            BFCut       ...    1.0000e-11
Integration weight cutoff        WCut        ...    1.0000e-14
Grids for H and He will be reduced by one unit

# of grid points (after initial pruning)     ...  22188 (   0.0 sec)
# of grid points (after weights+screening)   ...  20770 (   0.0 sec)
nearest neighbour list constructed           ...    0.0 sec
Grid point re-assignment to atoms done       ...    0.0 sec
Grid point division into batches done        ...    0.0 sec
Reduced shell lists constructed in    0.0 sec

Total number of grid points                  ...    20770
Total number of batches                      ...      333
Average number of points per batch           ...       62
Average number of grid points per atom       ...     1154
Average number of shells per batch           ...    67.74 (50.18%)
Average number of basis functions per batch  ...   156.89 (47.12%)
Average number of large shells per batch     ...    48.60 (71.74%)
Average number of large basis fcns per batch ...   111.40 (71.01%)
Maximum spatial batch extension              ...  17.55, 17.58, 19.63 au
Average spatial batch extension              ...   0.65,  0.68,  0.76 au

Time for grid setup =    0.073 sec

------------------------------
INITIAL GUESS: MODEL POTENTIAL
------------------------------
Loading Hartree-Fock densities                     ... done
Calculating cut-offs                               ... done
Setting up the integral package                    ... done
Initializing the effective Hamiltonian             ... done
Starting the Coulomb interaction                   ... done (   0.0 sec)
Reading the grid                                   ... done
Mapping shells                                     ... done
Starting the XC term evaluation                    ... done (   0.0 sec)
Transforming the Hamiltonian                       ... done (   0.0 sec)
Diagonalizing the Hamiltonian                      ... done (   0.0 sec)
Back transforming the eigenvectors                 ... done (   0.0 sec)
Now organizing SCF variables                       ... done
                      ------------------
                      INITIAL GUESS DONE (   0.3 sec)
                      ------------------
--------------
SCF ITERATIONS
--------------
ITER       Energy         Delta-E        Max-DP      RMS-DP      [F,P]     Damp
               ***  Starting incremental Fock matrix formation  ***
  0   -395.3916039765   0.000000000000 0.03910831  0.00090204  0.2959731 0.7000
  1   -395.5796986683  -0.188094691763 0.02787851  0.00071526  0.1883317 0.7000
                               ***Turning on DIIS***
  2   -395.6879253404  -0.108226672099 0.01638309  0.00046239  0.1426107 0.7000
  3   -396.6188425025  -0.930917162116 0.01001881  0.00029820  0.1059281 0.7000
  4   -396.5905236824   0.028318820066 0.02604785  0.00073590  0.0745728 0.0000
  5   -395.9405559106   0.649967771846 0.00694254  0.00013277  0.0068106 0.0000
                      *** Initiating the SOSCF procedure ***
                           *** Shutting down DIIS ***
                      *** Re-Reading the Fockian *** 
                      *** Removing any level shift *** 
ITER      Energy       Delta-E        Grad      Rot      Max-DP    RMS-DP
  6   -395.92309032   0.0174655954  0.001224  0.001224  0.004582  0.000081
               *** Restarting incremental Fock matrix formation ***
  7   -395.91041472   0.0126755952  0.000396  0.000497  0.003186  0.000057
  8   -395.91043318  -0.0000184577  0.000295  0.000502  0.002577  0.000047
  9   -395.91043656  -0.0000033859  0.000133  0.000165  0.000870  0.000015
 10   -395.91043753  -0.0000009645  0.000012  0.000010  0.000079  0.000001
 11   -395.91043754  -0.0000000088  0.000006  0.000006  0.000022  0.000000
                  ***Gradient check signals convergence***
              ***Rediagonalizing the Fockian in SOSCF/NRSCF***

               *****************************************************
               *                     SUCCESS                       *
               *           SCF CONVERGED AFTER  12 CYCLES          *
               *****************************************************


----------------
TOTAL SCF ENERGY
----------------

Total Energy       :         -395.91043754 Eh          -10773.27071 eV

Components:
Nuclear Repulsion  :          338.23126568 Eh            9203.74065 eV
Electronic Energy  :         -734.14170321 Eh          -19977.01136 eV
One Electron Energy:        -1205.19861810 Eh          -32795.12167 eV
Two Electron Energy:          471.05691489 Eh           12818.11031 eV

Virial components:
Potential Energy   :         -791.04578559 Eh          -21525.45016 eV
Kinetic Energy     :          395.13534805 Eh           10752.17945 eV
Virial Ratio       :            2.00196158


---------------
SCF CONVERGENCE
---------------

  Last Energy change         ...    1.1983e-10  Tolerance :   1.0000e-08
  Last MAX-Density change    ...    9.4388e-06  Tolerance :   1.0000e-07
  Last RMS-Density change    ...    1.3661e-07  Tolerance :   5.0000e-09
  Last Orbital Gradient      ...    1.4246e-06  Tolerance :   1.0000e-05
  Last Orbital Rotation      ...    2.4514e-06  Tolerance :   1.0000e-05

             **** THE GBW FILE WAS UPDATED (12mecn.remya.etal.2.mol1,5,7-orca.engrad-mp2.def2tzvp.frozencore.gbw) ****
             **** DENSITY FILE WAS UPDATED (12mecn.remya.etal.2.mol1,5,7-orca.engrad-mp2.def2tzvp.frozencore.scfp) ****
             **** ENERGY FILE WAS UPDATED (12mecn.remya.etal.2.mol1,5,7-orca.engrad-mp2.def2tzvp.frozencore.en.tmp) ****
             **** THE GBW FILE WAS UPDATED (12mecn.remya.etal.2.mol1,5,7-orca.engrad-mp2.def2tzvp.frozencore.gbw) ****
             **** DENSITY FILE WAS UPDATED (12mecn.remya.etal.2.mol1,5,7-orca.engrad-mp2.def2tzvp.frozencore.scfp) ****
----------------
ORBITAL ENERGIES
----------------

  NO   OCC          E(Eh)            E(eV) 
   0   2.0000     -15.572985      -423.7625 
   1   2.0000     -15.572479      -423.7487 
   2   2.0000     -15.570599      -423.6975 
   3   2.0000     -11.294641      -307.3428 
   4   2.0000     -11.292061      -307.2726 
   5   2.0000     -11.292051      -307.2723 
   6   2.0000     -11.277503      -306.8765 
   7   2.0000     -11.276775      -306.8566 
   8   2.0000     -11.273601      -306.7703 
   9   2.0000      -1.212836       -33.0029 
  10   2.0000      -1.212486       -32.9934 
  11   2.0000      -1.209384       -32.9090 
  12   2.0000      -1.051729       -28.6190 
  13   2.0000      -1.049406       -28.5558 
  14   2.0000      -1.048017       -28.5180 
  15   2.0000      -0.706510       -19.2251 
  16   2.0000      -0.704098       -19.1595 
  17   2.0000      -0.702381       -19.1128 
  18   2.0000      -0.647701       -17.6248 
  19   2.0000      -0.645071       -17.5533 
  20   2.0000      -0.640716       -17.4348 
  21   2.0000      -0.638631       -17.3780 
  22   2.0000      -0.633520       -17.2390 
  23   2.0000      -0.632137       -17.2013 
  24   2.0000      -0.553616       -15.0647 
  25   2.0000      -0.552924       -15.0458 
  26   2.0000      -0.549036       -14.9400 
  27   2.0000      -0.462641       -12.5891 
  28   2.0000      -0.460393       -12.5279 
  29   2.0000      -0.456425       -12.4199 
  30   2.0000      -0.455865       -12.4047 
  31   2.0000      -0.448390       -12.2013 
  32   2.0000      -0.445838       -12.1319 
  33   0.0000       0.080310         2.1853 
  34   0.0000       0.119391         3.2488 
  35   0.0000       0.125846         3.4244 
  36   0.0000       0.147729         4.0199 
  37   0.0000       0.154418         4.2019 
  38   0.0000       0.168970         4.5979 
  39   0.0000       0.174555         4.7499 
  40   0.0000       0.182023         4.9531 
  41   0.0000       0.189853         5.1662 
  42   0.0000       0.190951         5.1961 
  43   0.0000       0.201249         5.4763 
  44   0.0000       0.203861         5.5473 
  45   0.0000       0.208977         5.6865 
  46   0.0000       0.224517         6.1094 
  47   0.0000       0.238891         6.5006 
  48   0.0000       0.241365         6.5679 
  49   0.0000       0.243866         6.6359 
  50   0.0000       0.263662         7.1746 
  51   0.0000       0.269949         7.3457 
  52   0.0000       0.273150         7.4328 
  53   0.0000       0.284363         7.7379 
  54   0.0000       0.290470         7.9041 
  55   0.0000       0.310049         8.4369 
  56   0.0000       0.318936         8.6787 
  57   0.0000       0.345750         9.4083 
  58   0.0000       0.359255         9.7758 
  59   0.0000       0.371256        10.1024 
  60   0.0000       0.381067        10.3694 
  61   0.0000       0.392756        10.6874 
  62   0.0000       0.403004        10.9663 
  63   0.0000       0.420235        11.4352 
  64   0.0000       0.450056        12.2467 
  65   0.0000       0.463012        12.5992 
  66   0.0000       0.471968        12.8429 
  67   0.0000       0.484997        13.1974 
  68   0.0000       0.501158        13.6372 
  69   0.0000       0.512622        13.9491 
  70   0.0000       0.519657        14.1406 
  71   0.0000       0.532815        14.4986 
  72   0.0000       0.547245        14.8913 
  73   0.0000       0.566093        15.4042 
  74   0.0000       0.577537        15.7156 
  75   0.0000       0.578507        15.7420 
  76   0.0000       0.585660        15.9366 
  77   0.0000       0.589437        16.0394 
  78   0.0000       0.596565        16.2334 
  79   0.0000       0.606327        16.4990 
  80   0.0000       0.618626        16.8337 
  81   0.0000       0.621630        16.9154 
  82   0.0000       0.626787        17.0557 
  83   0.0000       0.631480        17.1834 
  84   0.0000       0.638726        17.3806 
  85   0.0000       0.654382        17.8066 
  86   0.0000       0.684467        18.6253 
  87   0.0000       0.696770        18.9601 
  88   0.0000       0.724308        19.7094 
  89   0.0000       0.750338        20.4177 
  90   0.0000       0.757117        20.6022 
  91   0.0000       0.796798        21.6820 
  92   0.0000       0.806332        21.9414 
  93   0.0000       0.811428        22.0801 
  94   0.0000       0.814029        22.1508 
  95   0.0000       0.816753        22.2250 
  96   0.0000       0.821169        22.3452 
  97   0.0000       0.826430        22.4883 
  98   0.0000       0.832747        22.6602 
  99   0.0000       0.871070        23.7030 
 100   0.0000       0.901443        24.5295 
 101   0.0000       0.906713        24.6729 
 102   0.0000       0.918218        24.9860 
 103   0.0000       0.924600        25.1596 
 104   0.0000       0.926507        25.2115 
 105   0.0000       0.934355        25.4251 
 106   0.0000       0.959904        26.1203 
 107   0.0000       0.992831        27.0163 
 108   0.0000       1.030165        28.0322 
 109   0.0000       1.036896        28.2154 
 110   0.0000       1.060520        28.8582 
 111   0.0000       1.116288        30.3757 
 112   0.0000       1.119255        30.4565 
 113   0.0000       1.148911        31.2635 
 114   0.0000       1.158866        31.5343 
 115   0.0000       1.178476        32.0680 
 116   0.0000       1.189814        32.3765 
 117   0.0000       1.314798        35.7775 
 118   0.0000       1.323142        36.0045 
 119   0.0000       1.334457        36.3124 
 120   0.0000       1.415932        38.5295 
 121   0.0000       1.417804        38.5804 
 122   0.0000       1.424214        38.7548 
 123   0.0000       1.424622        38.7659 
 124   0.0000       1.450243        39.4631 
 125   0.0000       1.453682        39.5567 
 126   0.0000       1.457313        39.6555 
 127   0.0000       1.470059        40.0024 
 128   0.0000       1.471001        40.0280 
 129   0.0000       1.473138        40.0861 
 130   0.0000       1.476060        40.1656 
 131   0.0000       1.479602        40.2620 
 132   0.0000       1.484226        40.3878 
 133   0.0000       1.501358        40.8540 
 134   0.0000       1.504310        40.9344 
 135   0.0000       1.517890        41.3039 
 136   0.0000       1.565478        42.5988 
 137   0.0000       1.606234        43.7079 
 138   0.0000       1.696291        46.1584 
 139   0.0000       1.703281        46.3486 
 140   0.0000       1.713665        46.6312 
 141   0.0000       1.727035        46.9950 
 142   0.0000       1.732874        47.1539 
 143   0.0000       1.741637        47.3924 
 144   0.0000       1.752541        47.6891 
 145   0.0000       1.763398        47.9845 
 146   0.0000       1.766429        48.0670 
 147   0.0000       1.774826        48.2955 
 148   0.0000       1.775836        48.3229 
 149   0.0000       1.780148        48.4403 
 150   0.0000       1.804969        49.1157 
 151   0.0000       1.809432        49.2371 
 152   0.0000       1.825348        49.6702 
 153   0.0000       1.828955        49.7684 
 154   0.0000       1.885155        51.2977 
 155   0.0000       1.901178        51.7337 
 156   0.0000       1.924491        52.3681 
 157   0.0000       1.929466        52.5034 
 158   0.0000       1.941190        52.8225 
 159   0.0000       1.943878        52.8956 
 160   0.0000       1.961695        53.3804 
 161   0.0000       1.972105        53.6637 
 162   0.0000       1.981130        53.9093 
 163   0.0000       1.995705        54.3059 
 164   0.0000       2.006155        54.5902 
 165   0.0000       2.218969        60.3812 
 166   0.0000       2.223203        60.4964 
 167   0.0000       2.229916        60.6791 
 168   0.0000       2.233241        60.7696 
 169   0.0000       2.250789        61.2471 
 170   0.0000       2.254805        61.3564 
 171   0.0000       2.258248        61.4501 
 172   0.0000       2.276455        61.9455 
 173   0.0000       2.290984        62.3409 
 174   0.0000       2.389233        65.0143 
 175   0.0000       2.406644        65.4881 
 176   0.0000       2.479016        67.4574 
 177   0.0000       2.534852        68.9768 
 178   0.0000       2.540414        69.1282 
 179   0.0000       2.549110        69.3648 
 180   0.0000       2.550864        69.4125 
 181   0.0000       2.571435        69.9723 
 182   0.0000       2.590835        70.5002 
 183   0.0000       2.592828        70.5544 
 184   0.0000       2.616546        71.1998 
 185   0.0000       2.618258        71.2464 
 186   0.0000       2.624771        71.4236 
 187   0.0000       2.625923        71.4550 
 188   0.0000       2.640108        71.8410 
 189   0.0000       2.648352        72.0653 
 190   0.0000       2.669924        72.6523 
 191   0.0000       2.678669        72.8903 
 192   0.0000       2.708306        73.6968 
 193   0.0000       2.722385        74.0799 
 194   0.0000       2.727368        74.2155 
 195   0.0000       2.737086        74.4799 
 196   0.0000       2.740386        74.5697 
 197   0.0000       2.743782        74.6621 
 198   0.0000       2.759627        75.0933 
 199   0.0000       2.774926        75.5096 
 200   0.0000       2.817519        76.6686 
 201   0.0000       2.913492        79.2801 
 202   0.0000       2.914374        79.3041 
 203   0.0000       2.915459        79.3337 
 204   0.0000       2.916334        79.3575 
 205   0.0000       2.917795        79.3973 
 206   0.0000       2.922351        79.5212 
 207   0.0000       2.938771        79.9680 
 208   0.0000       2.943374        80.0933 
 209   0.0000       2.949221        80.2524 
 210   0.0000       2.952196        80.3333 
 211   0.0000       2.964903        80.6791 
 212   0.0000       2.968807        80.7853 
 213   0.0000       3.008117        81.8550 
 214   0.0000       3.019642        82.1686 
 215   0.0000       3.040131        82.7262 
 216   0.0000       3.080140        83.8149 
 217   0.0000       3.087055        84.0030 
 218   0.0000       3.091881        84.1343 
 219   0.0000       3.098506        84.3146 
 220   0.0000       3.100217        84.3612 
 221   0.0000       3.105880        84.5153 
 222   0.0000       3.211218        87.3817 
 223   0.0000       3.232904        87.9718 
 224   0.0000       3.237185        88.0883 
 225   0.0000       3.241867        88.2157 
 226   0.0000       3.251786        88.4856 
 227   0.0000       3.255490        88.5864 
 228   0.0000       3.258833        88.6773 
 229   0.0000       3.290156        89.5297 
 230   0.0000       3.305641        89.9511 
 231   0.0000       3.320124        90.3452 
 232   0.0000       3.327764        90.5531 
 233   0.0000       3.334145        90.7267 
 234   0.0000       3.336010        90.7774 
 235   0.0000       3.373622        91.8009 
 236   0.0000       3.394690        92.3742 
 237   0.0000       3.437649        93.5432 
 238   0.0000       3.444508        93.7298 
 239   0.0000       3.464290        94.2681 
 240   0.0000       3.467817        94.3641 
 241   0.0000       3.477670        94.6322 
 242   0.0000       3.486866        94.8824 
 243   0.0000       3.506374        95.4133 
 244   0.0000       3.518730        95.7495 
 245   0.0000       3.561472        96.9126 
 246   0.0000       3.625006        98.6414 
 247   0.0000       3.640889        99.0736 
 248   0.0000       3.651290        99.3566 
 249   0.0000       3.654083        99.4327 
 250   0.0000       3.658706        99.5585 
 251   0.0000       3.663080        99.6775 
 252   0.0000       3.797599       103.3379 
 253   0.0000       3.800484       103.4164 
 254   0.0000       3.801160       103.4348 
 255   0.0000       3.802103       103.4605 
 256   0.0000       3.806143       103.5704 
 257   0.0000       3.808690       103.6397 
 258   0.0000       3.924851       106.8006 
 259   0.0000       3.929053       106.9150 
 260   0.0000       3.933843       107.0453 
 261   0.0000       3.937092       107.1337 
 262   0.0000       3.940265       107.2201 
 263   0.0000       3.952268       107.5467 
 264   0.0000       3.957424       107.6870 
 265   0.0000       3.984996       108.4372 
 266   0.0000       4.000943       108.8712 
 267   0.0000       4.234477       115.2260 
 268   0.0000       4.238651       115.3396 
 269   0.0000       4.248733       115.6139 
 270   0.0000       4.252238       115.7093 
 271   0.0000       4.268490       116.1515 
 272   0.0000       4.275255       116.3356 
 273   0.0000       4.344679       118.2247 
 274   0.0000       4.345352       118.2430 
 275   0.0000       4.348801       118.3369 
 276   0.0000       4.349105       118.3452 
 277   0.0000       4.349864       118.3658 
 278   0.0000       4.352750       118.4443 
 279   0.0000       4.554840       123.9435 
 280   0.0000       4.566460       124.2597 
 281   0.0000       4.577468       124.5592 
 282   0.0000       4.726853       128.6242 
 283   0.0000       4.738114       128.9306 
 284   0.0000       4.741835       129.0319 
 285   0.0000       4.748369       129.2097 
 286   0.0000       4.788284       130.2958 
 287   0.0000       4.793016       130.4246 
 288   0.0000       4.820582       131.1747 
 289   0.0000       4.862857       132.3251 
 290   0.0000       4.890512       133.0776 
 291   0.0000       4.962246       135.0296 
 292   0.0000       4.963086       135.0524 
 293   0.0000       4.964329       135.0863 
 294   0.0000       4.966137       135.1355 
 295   0.0000       4.973680       135.3407 
 296   0.0000       4.977326       135.4399 
 297   0.0000       5.068311       137.9157 
 298   0.0000       5.068974       137.9338 
 299   0.0000       5.069969       137.9609 
 300   0.0000       5.071357       137.9987 
 301   0.0000       5.081506       138.2748 
 302   0.0000       5.084166       138.3472 
 303   0.0000       5.189416       141.2112 
 304   0.0000       5.221386       142.0811 
 305   0.0000       5.264240       143.2473 
 306   0.0000       5.555003       151.1593 
 307   0.0000       5.557476       151.2266 
 308   0.0000       5.561971       151.3489 
 309   0.0000       5.565494       151.4448 
 310   0.0000       5.593974       152.2198 
 311   0.0000       5.597045       152.3033 
 312   0.0000       6.020646       163.8301 
 313   0.0000       6.025871       163.9723 
 314   0.0000       6.037404       164.2861 
 315   0.0000       6.086197       165.6138 
 316   0.0000       6.089797       165.7118 
 317   0.0000       6.097646       165.9254 
 318   0.0000       6.103393       166.0818 
 319   0.0000       6.121497       166.5744 
 320   0.0000       6.124709       166.6618 
 321   0.0000       6.459224       175.7644 
 322   0.0000       6.467887       176.0002 
 323   0.0000       6.482756       176.4048 
 324   0.0000      23.466575       638.5580 
 325   0.0000      23.496604       639.3751 
 326   0.0000      23.560448       641.1124 
 327   0.0000      24.376761       663.3254 
 328   0.0000      24.393842       663.7902 
 329   0.0000      24.426198       664.6706 
 330   0.0000      33.394894       908.7213 
 331   0.0000      33.431767       909.7246 
 332   0.0000      33.482856       911.1148 

                    ********************************
                    * MULLIKEN POPULATION ANALYSIS *
                    ********************************

-----------------------
MULLIKEN ATOMIC CHARGES
-----------------------
   0 C :   -0.167641
   1 H :    0.146942
   2 H :    0.142420
   3 H :    0.168060
   4 C :   -0.123316
   5 N :   -0.166375
   6 C :   -0.178059
   7 H :    0.160743
   8 H :    0.163414
   9 H :    0.134636
  10 C :   -0.130952
  11 N :   -0.150193
  12 C :   -0.172862
  13 H :    0.144861
  14 H :    0.167625
  15 H :    0.147941
  16 C :   -0.123309
  17 N :   -0.163933
Sum of atomic charges:    0.0000000

--------------------------------
MULLIKEN REDUCED ORBITAL CHARGES
--------------------------------
  0 C s       :     3.139881  s :     3.139881
      pz      :     0.801811  p :     2.960486
      px      :     1.080848
      py      :     1.077827
      dz2     :     0.017857  d :     0.063792
      dxz     :     0.011905
      dyz     :     0.012391
      dx2y2   :     0.010675
      dxy     :     0.010965
      f0      :     0.001711  f :     0.003482
      f+1     :     0.000215
      f-1     :     0.000215
      f+2     :     0.000044
      f-2     :     0.000091
      f+3     :     0.000485
      f-3     :     0.000720
  1 H s       :     0.830873  s :     0.830873
      pz      :     0.004817  p :     0.022184
      px      :     0.004146
      py      :     0.013221
  2 H s       :     0.835359  s :     0.835359
      pz      :     0.004721  p :     0.022221
      px      :     0.012849
      py      :     0.004651
  3 H s       :     0.809463  s :     0.809463
      pz      :     0.004956  p :     0.022478
      px      :     0.008918
      py      :     0.008604
  4 C s       :     3.234277  s :     3.234277
      pz      :     0.960295  p :     2.759448
      px      :     0.899306
      py      :     0.899847
      dz2     :     0.027137  d :     0.112175
      dxz     :     0.042284
      dyz     :     0.042198
      dx2y2   :     0.000301
      dxy     :     0.000255
      f0      :     0.004149  f :     0.017416
      f+1     :     0.006600
      f-1     :     0.006601
      f+2     :     0.000038
      f-2     :     0.000029
      f+3     :     0.000000
      f-3     :     0.000000
  5 N s       :     3.723837  s :     3.723837
      pz      :     1.282305  p :     3.384023
      px      :     1.051227
      py      :     1.050491
      dz2     :     0.011811  d :     0.055554
      dxz     :     0.021852
      dyz     :     0.021877
      dx2y2   :     0.000005
      dxy     :     0.000009
      f0      :     0.000618  f :     0.002961
      f+1     :     0.001170
      f-1     :     0.001171
      f+2     :     0.000001
      f-2     :     0.000001
      f+3     :     0.000000
      f-3     :     0.000000
  6 C s       :     3.140885  s :     3.140885
      pz      :     0.803299  p :     2.968539
      px      :     1.101755
      py      :     1.063484
      dz2     :     0.017849  d :     0.065149
      dxz     :     0.012474
      dyz     :     0.012787
      dx2y2   :     0.010845
      dxy     :     0.011194
      f0      :     0.001698  f :     0.003486
      f+1     :     0.000228
      f-1     :     0.000219
      f+2     :     0.000075
      f-2     :     0.000070
      f+3     :     0.000261
      f-3     :     0.000935
  7 H s       :     0.816977  s :     0.816977
      pz      :     0.004687  p :     0.022281
      px      :     0.012614
      py      :     0.004980
  8 H s       :     0.814323  s :     0.814323
      pz      :     0.004685  p :     0.022263
      px      :     0.009727
      py      :     0.007851
  9 H s       :     0.843352  s :     0.843352
      pz      :     0.005014  p :     0.022012
      px      :     0.003891
      py      :     0.013107
 10 C s       :     3.237393  s :     3.237393
      pz      :     0.951729  p :     2.764931
      px      :     0.906473
      py      :     0.906728
      dz2     :     0.027939  d :     0.111177
      dxz     :     0.040840
      dyz     :     0.041842
      dx2y2   :     0.000204
      dxy     :     0.000352
      f0      :     0.004160  f :     0.017451
      f+1     :     0.006616
      f-1     :     0.006604
      f+2     :     0.000028
      f-2     :     0.000042
      f+3     :     0.000000
      f-3     :     0.000000
 11 N s       :     3.728400  s :     3.728400
      pz      :     1.281042  p :     3.363042
      px      :     1.039987
      py      :     1.042013
      dz2     :     0.011893  d :     0.055787
      dxz     :     0.021949
      dyz     :     0.021896
      dx2y2   :     0.000021
      dxy     :     0.000028
      f0      :     0.000618  f :     0.002963
      f+1     :     0.001176
      f-1     :     0.001167
      f+2     :     0.000001
      f-2     :     0.000001
      f+3     :     0.000000
      f-3     :     0.000000
 12 C s       :     3.148591  s :     3.148591
      pz      :     0.800601  p :     2.957198
      px      :     1.094966
      py      :     1.061632
      dz2     :     0.017914  d :     0.063594
      dxz     :     0.010996
      dyz     :     0.012934
      dx2y2   :     0.010270
      dxy     :     0.011479
      f0      :     0.001647  f :     0.003479
      f+1     :     0.000238
      f-1     :     0.000243
      f+2     :     0.000079
      f-2     :     0.000057
      f+3     :     0.000395
      f-3     :     0.000820
 13 H s       :     0.832972  s :     0.832972
      pz      :     0.005390  p :     0.022167
      px      :     0.003935
      py      :     0.012842
 14 H s       :     0.809964  s :     0.809964
      pz      :     0.004355  p :     0.022411
      px      :     0.013209
      py      :     0.004847
 15 H s       :     0.829849  s :     0.829849
      pz      :     0.004691  p :     0.022211
      px      :     0.008956
      py      :     0.008564
 16 C s       :     3.233798  s :     3.233798
      pz      :     0.959156  p :     2.759633
      px      :     0.899529
      py      :     0.900948
      dz2     :     0.027393  d :     0.112453
      dxz     :     0.041574
      dyz     :     0.042530
      dx2y2   :     0.000329
      dxy     :     0.000627
      f0      :     0.004210  f :     0.017426
      f+1     :     0.006503
      f-1     :     0.006492
      f+2     :     0.000097
      f-2     :     0.000123
      f+3     :     0.000000
      f-3     :     0.000001
 17 N s       :     3.724082  s :     3.724082
      pz      :     1.280802  p :     3.381280
      px      :     1.049078
      py      :     1.051400
      dz2     :     0.011961  d :     0.055612
      dxz     :     0.021696
      dyz     :     0.021678
      dx2y2   :     0.000136
      dxy     :     0.000141
      f0      :     0.000633  f :     0.002959
      f+1     :     0.001153
      f-1     :     0.001144
      f+2     :     0.000014
      f-2     :     0.000014
      f+3     :     0.000000
      f-3     :     0.000000


                     *******************************
                     * LOEWDIN POPULATION ANALYSIS *
                     *******************************

----------------------
LOEWDIN ATOMIC CHARGES
----------------------
   0 C :   -0.250127
   1 H :    0.140710
   2 H :    0.139136
   3 H :    0.144329
   4 C :   -0.207124
   5 N :    0.033128
   6 C :   -0.254151
   7 H :    0.142211
   8 H :    0.142611
   9 H :    0.135278
  10 C :   -0.212431
  11 N :    0.046217
  12 C :   -0.250365
  13 H :    0.139176
  14 H :    0.145840
  15 H :    0.140508
  16 C :   -0.209313
  17 N :    0.034367

-------------------------------
LOEWDIN REDUCED ORBITAL CHARGES
-------------------------------
  0 C s       :     2.812899  s :     2.812899
      pz      :     1.030585  p :     3.145315
      px      :     1.058475
      py      :     1.056255
      dz2     :     0.076653  d :     0.266235
      dxz     :     0.062829
      dyz     :     0.064438
      dx2y2   :     0.031857
      dxy     :     0.030458
      f0      :     0.007289  f :     0.025678
      f+1     :     0.005355
      f-1     :     0.005267
      f+2     :     0.002152
      f-2     :     0.002312
      f+3     :     0.001331
      f-3     :     0.001972
  1 H s       :     0.799011  s :     0.799011
      pz      :     0.012654  p :     0.060279
      px      :     0.013354
      py      :     0.034270
  2 H s       :     0.800624  s :     0.800624
      pz      :     0.012456  p :     0.060241
      px      :     0.033370
      py      :     0.014415
  3 H s       :     0.794658  s :     0.794658
      pz      :     0.013027  p :     0.061013
      px      :     0.024415
      py      :     0.023571
  4 C s       :     2.836811  s :     2.836811
      pz      :     1.189496  p :     2.866508
      px      :     0.838524
      py      :     0.838487
      dz2     :     0.155389  d :     0.445248
      dxz     :     0.144716
      dyz     :     0.144437
      dx2y2   :     0.000397
      dxy     :     0.000309
      f0      :     0.023216  f :     0.058557
      f+1     :     0.017606
      f-1     :     0.017603
      f+2     :     0.000076
      f-2     :     0.000053
      f+3     :     0.000001
      f-3     :     0.000001
  5 N s       :     3.314755  s :     3.314755
      pz      :     1.494166  p :     3.524178
      px      :     1.015299
      py      :     1.014713
      dz2     :     0.046078  d :     0.113421
      dxz     :     0.033654
      dyz     :     0.033658
      dx2y2   :     0.000011
      dxy     :     0.000020
      f0      :     0.006221  f :     0.014517
      f+1     :     0.004145
      f-1     :     0.004144
      f+2     :     0.000003
      f-2     :     0.000003
      f+3     :     0.000000
      f-3     :     0.000000
  6 C s       :     2.812612  s :     2.812612
      pz      :     1.033692  p :     3.147263
      px      :     1.060362
      py      :     1.053209
      dz2     :     0.075905  d :     0.268477
      dxz     :     0.063656
      dyz     :     0.066157
      dx2y2   :     0.031196
      dxy     :     0.031563
      f0      :     0.007225  f :     0.025798
      f+1     :     0.005528
      f-1     :     0.005259
      f+2     :     0.002381
      f-2     :     0.002097
      f+3     :     0.000721
      f-3     :     0.002586
  7 H s       :     0.797376  s :     0.797376
      pz      :     0.012485  p :     0.060413
      px      :     0.032790
      py      :     0.015138
  8 H s       :     0.797049  s :     0.797049
      pz      :     0.012487  p :     0.060340
      px      :     0.026146
      py      :     0.021706
  9 H s       :     0.804786  s :     0.804786
      pz      :     0.013028  p :     0.059937
      px      :     0.012841
      py      :     0.034068
 10 C s       :     2.835838  s :     2.835838
      pz      :     1.187899  p :     2.875309
      px      :     0.844046
      py      :     0.843364
      dz2     :     0.156200  d :     0.442836
      dxz     :     0.142874
      dyz     :     0.142979
      dx2y2   :     0.000219
      dxy     :     0.000565
      f0      :     0.023287  f :     0.058448
      f+1     :     0.017492
      f-1     :     0.017525
      f+2     :     0.000044
      f-2     :     0.000097
      f+3     :     0.000001
      f-3     :     0.000002
 11 N s       :     3.314157  s :     3.314157
      pz      :     1.493838  p :     3.510361
      px      :     1.007605
      py      :     1.008919
      dz2     :     0.046168  d :     0.114627
      dxz     :     0.034270
      dyz     :     0.034115
      dx2y2   :     0.000029
      dxy     :     0.000045
      f0      :     0.006221  f :     0.014638
      f+1     :     0.004217
      f-1     :     0.004192
      f+2     :     0.000004
      f-2     :     0.000004
      f+3     :     0.000000
      f-3     :     0.000000
 12 C s       :     2.813522  s :     2.813522
      pz      :     1.031210  p :     3.144940
      px      :     1.060815
      py      :     1.052914
      dz2     :     0.076813  d :     0.266175
      dxz     :     0.058711
      dyz     :     0.067728
      dx2y2   :     0.029156
      dxy     :     0.033767
      f0      :     0.007229  f :     0.025728
      f+1     :     0.005758
      f-1     :     0.004981
      f+2     :     0.002358
      f-2     :     0.002069
      f+3     :     0.001088
      f-3     :     0.002245
 13 H s       :     0.800591  s :     0.800591
      pz      :     0.013768  p :     0.060233
      px      :     0.012927
      py      :     0.033539
 14 H s       :     0.793503  s :     0.793503
      pz      :     0.011827  p :     0.060657
      px      :     0.034101
      py      :     0.014730
 15 H s       :     0.799194  s :     0.799194
      pz      :     0.012430  p :     0.060298
      px      :     0.024604
      py      :     0.023264
 16 C s       :     2.836737  s :     2.836737
      pz      :     1.188380  p :     2.868050
      px      :     0.839755
      py      :     0.839915
      dz2     :     0.155377  d :     0.445992
      dxz     :     0.143974
      dyz     :     0.144596
      dx2y2   :     0.000707
      dxy     :     0.001338
      f0      :     0.023043  f :     0.058534
      f+1     :     0.017379
      f-1     :     0.017577
      f+2     :     0.000231
      f-2     :     0.000300
      f+3     :     0.000001
      f-3     :     0.000003
 17 N s       :     3.314610  s :     3.314610
      pz      :     1.492097  p :     3.522881
      px      :     1.014411
      py      :     1.016373
      dz2     :     0.045944  d :     0.113614
      dxz     :     0.033669
      dyz     :     0.033602
      dx2y2   :     0.000193
      dxy     :     0.000206
      f0      :     0.006164  f :     0.014529
      f+1     :     0.004133
      f-1     :     0.004131
      f+2     :     0.000051
      f-2     :     0.000049
      f+3     :     0.000000
      f-3     :     0.000000


                      *****************************
                      * MAYER POPULATION ANALYSIS *
                      *****************************

  NA   - Mulliken gross atomic population
  ZA   - Total nuclear charge
  QA   - Mulliken gross atomic charge
  VA   - Mayer's total valence
  BVA  - Mayer's bonded valence
  FA   - Mayer's free valence

  ATOM       NA         ZA         QA         VA         BVA        FA
  0 C      6.1676     6.0000    -0.1676     3.8189     3.8189    -0.0000
  1 H      0.8531     1.0000     0.1469     0.9624     0.9624    -0.0000
  2 H      0.8576     1.0000     0.1424     0.9631     0.9631    -0.0000
  3 H      0.8319     1.0000     0.1681     0.9606     0.9606    -0.0000
  4 C      6.1233     6.0000    -0.1233     3.9069     3.9069    -0.0000
  5 N      7.1664     7.0000    -0.1664     3.0306     3.0306     0.0000
  6 C      6.1781     6.0000    -0.1781     3.8232     3.8232    -0.0000
  7 H      0.8393     1.0000     0.1607     0.9619     0.9619    -0.0000
  8 H      0.8366     1.0000     0.1634     0.9602     0.9602    -0.0000
  9 H      0.8654     1.0000     0.1346     0.9597     0.9597    -0.0000
 10 C      6.1310     6.0000    -0.1310     3.8858     3.8858     0.0000
 11 N      7.1502     7.0000    -0.1502     3.0221     3.0221     0.0000
 12 C      6.1729     6.0000    -0.1729     3.8147     3.8147     0.0000
 13 H      0.8551     1.0000     0.1449     0.9616     0.9616     0.0000
 14 H      0.8324     1.0000     0.1676     0.9609     0.9609     0.0000
 15 H      0.8521     1.0000     0.1479     0.9626     0.9626     0.0000
 16 C      6.1233     6.0000    -0.1233     3.8987     3.8987     0.0000
 17 N      7.1639     7.0000    -0.1639     3.0299     3.0299    -0.0000

  Mayer bond orders larger than 0.100000
B(  0-C ,  1-H ) :   0.9677 B(  0-C ,  2-H ) :   0.9724 B(  0-C ,  3-H ) :   0.9571 
B(  0-C ,  4-C ) :   0.9274 B(  4-C ,  5-N ) :   3.0059 B(  6-C ,  7-H ) :   0.9650 
B(  6-C ,  8-H ) :   0.9641 B(  6-C ,  9-H ) :   0.9735 B(  6-C , 10-C ) :   0.9221 
B( 10-C , 11-N ) :   2.9979 B( 12-C , 13-H ) :   0.9683 B( 12-C , 14-H ) :   0.9582 
B( 12-C , 15-H ) :   0.9721 B( 12-C , 16-C ) :   0.9225 B( 16-C , 17-N ) :   3.0051 


-------
TIMINGS
-------

Total SCF time: 0 days 0 hours 0 min 39 sec 

Total time                  ....      39.961 sec
Sum of individual times     ....      39.667 sec  ( 99.3%)

Fock matrix formation       ....      39.113 sec  ( 97.9%)
Diagonalization             ....       0.141 sec  (  0.4%)
Density matrix formation    ....       0.014 sec  (  0.0%)
Population analysis         ....       0.014 sec  (  0.0%)
Initial guess               ....       0.184 sec  (  0.5%)
Orbital Transformation      ....       0.000 sec  (  0.0%)
Orbital Orthonormalization  ....       0.000 sec  (  0.0%)
DIIS solution               ....       0.051 sec  (  0.1%)
SOSCF solution              ....       0.077 sec  (  0.2%)


           ************************************************************
           *        Program running with 6 parallel MPI-processes     *
           *              working on a common directory               *
           ************************************************************

------------------------------------------------------------------------------
                                ORCA  MP2 
------------------------------------------------------------------------------

Freezing NCore=18 chemical core electrons
MP2 will be done in the AO integral direct mode
The Q1-step will be done using symmetric double matrices
Dimension of the basis                    ...  333
Memory devoted for MP2                    ... 8000 MB   
Memory needed for all in one shot         ...  566 MB
Number of MOs that can be treated together...   55      
MP2 density construction                  ... relaxed
The MP2 gradient is requested => amplitudes will be stored on disk
Total number of MOs              ...   24
Number of MOs treated per batch  ...    4 
Number of batches necessary      ...    1 
OPERATORS   0/  0 PASS   0
-----------------------------------------------
 MP2 CORRELATION ENERGY   :     -1.533834850 Eh
-----------------------------------------------


---------------------
MP2 DENSITY FORMATION
---------------------

Completing the external part of the density      ... done
Storing the unrelaxed density                    ... done

Calculating G(D)                                 ... done
Completing the Lagrangian                        ... done
Solving the Z-vector equations                   ... 

------------------------------------------------------------------------------
                           ORCA CP-SCF CALCULATION
------------------------------------------------------------------------------

Input orbitals are from        ... 12mecn.remya.etal.2.mol1,5,7-orca.engrad-mp2.def2tzvp.frozencore.gbw
Input Perturbation             ... 12mecn.remya.etal.2.mol1,5,7-orca.engrad-mp2.def2tzvp.frozencore.pin.tmp
Wavefunction output            ... 12mecn.remya.etal.2.mol1,5,7-orca.engrad-mp2.def2tzvp.frozencore.pout.tmp
Perturbation mode              ... Real perturbation (singlet)
Solver                         ... POPLE
Max. number of iterations      ... 128
Convergence tolerance          ... 1.000e-08
Integral handling              ... Direct
Number of perturbations        ... 1
Number of operators            ... 1
Orbital ranges used for CP-SCF:
 Operator 0:  Orbitals   0... 32  to  33...332
Variables per vector in CP-SCF ... 9900
Number of vectors sought       ... 1
     CP-SCF ITERATION   0: 
     CP-SCF ITERATION   1:      0.001503808652
     CP-SCF ITERATION   2:      0.000307881952
     CP-SCF ITERATION   3:      0.000006471112
     CP-SCF ITERATION   4:      0.000000510854
     CP-SCF ITERATION   5:      0.000000108577
     CP-SCF ITERATION   6:      0.000000014061
     CP-SCF ITERATION   7:      0.000000002961
                                                 ... done
Finalizing the relaxed density                   ... done
Transforming P to the AO basis                   ... done
Storing the relaxed density                      ... done

------------------------------------
ENERGY WEIGHTED DENSITY FINALIZATION
------------------------------------

Gathering the parts of the W-matrix              ...                                                      done
Forming the Z-density                            ... done
Transforming Z to the AO basis                   ... done
Calculating G(Z)                                 ... done
Finalizing the W-matrix                          ...                                                      done
Transforming W to the AO basis and storing       ... done

                *********************************************
                * UNRELAXED MP2 DENSITY POPULATION ANALYSIS *
                *********************************************

------------------------------------------------------------------------------
                           ORCA POPULATION ANALYSIS
------------------------------------------------------------------------------
Input electron density              ... 12mecn.remya.etal.2.mol1,5,7-orca.engrad-mp2.def2tzvp.frozencore.pmp2ur
BaseName (.gbw .S,...)              ... 12mecn.remya.etal.2.mol1,5,7-orca.engrad-mp2.def2tzvp.frozencore

                    ********************************
                    * MULLIKEN POPULATION ANALYSIS *
                    ********************************

-----------------------
MULLIKEN ATOMIC CHARGES
-----------------------
   0 C :   -0.181413
   1 H :    0.149595
   2 H :    0.145133
   3 H :    0.170774
   4 C :   -0.131146
   5 N :   -0.152833
   6 C :   -0.192187
   7 H :    0.163566
   8 H :    0.166240
   9 H :    0.137301
  10 C :   -0.138433
  11 N :   -0.136949
  12 C :   -0.186511
  13 H :    0.147501
  14 H :    0.170320
  15 H :    0.150647
  16 C :   -0.131142
  17 N :   -0.150463
Sum of atomic charges:    0.0000000

--------------------------------
MULLIKEN REDUCED ORBITAL CHARGES
--------------------------------
  0 C s       :     3.138412  s :     3.138412
      pz      :     0.800379  p :     2.946215
      px      :     1.074425
      py      :     1.071410
      dz2     :     0.020347  d :     0.089442
      dxz     :     0.018020
      dyz     :     0.018501
      dx2y2   :     0.016079
      dxy     :     0.016496
      f0      :     0.002108  f :     0.007345
      f+1     :     0.000883
      f-1     :     0.000888
      f+2     :     0.000585
      f-2     :     0.000631
      f+3     :     0.001019
      f-3     :     0.001230
  1 H s       :     0.825346  s :     0.825346
      pz      :     0.005829  p :     0.025059
      px      :     0.005198
      py      :     0.014032
  2 H s       :     0.829752  s :     0.829752
      pz      :     0.005741  p :     0.025115
      px      :     0.013680
      py      :     0.005693
  3 H s       :     0.803943  s :     0.803943
      pz      :     0.005948  p :     0.025284
      px      :     0.009820
      py      :     0.009516
  4 C s       :     3.234077  s :     3.234077
      pz      :     0.951429  p :     2.748474
      px      :     0.898258
      py      :     0.898787
      dz2     :     0.029640  d :     0.128202
      dxz     :     0.044472
      dyz     :     0.044390
      dx2y2   :     0.004878
      dxy     :     0.004822
      f0      :     0.004610  f :     0.020393
      f+1     :     0.007043
      f-1     :     0.007044
      f+2     :     0.000594
      f-2     :     0.000584
      f+3     :     0.000259
      f-3     :     0.000259
  5 N s       :     3.710842  s :     3.710842
      pz      :     1.269963  p :     3.359114
      px      :     1.044925
      py      :     1.044226
      dz2     :     0.015953  d :     0.077230
      dxz     :     0.025788
      dyz     :     0.025811
      dx2y2   :     0.004836
      dxy     :     0.004841
      f0      :     0.001044  f :     0.005647
      f+1     :     0.001612
      f-1     :     0.001613
      f+2     :     0.000414
      f-2     :     0.000414
      f+3     :     0.000274
      f-3     :     0.000274
  6 C s       :     3.139542  s :     3.139542
      pz      :     0.801684  p :     2.954380
      px      :     1.095569
      py      :     1.057126
      dz2     :     0.020345  d :     0.090920
      dxz     :     0.018675
      dyz     :     0.018863
      dx2y2   :     0.016301
      dxy     :     0.016736
      f0      :     0.002097  f :     0.007346
      f+1     :     0.000899
      f-1     :     0.000890
      f+2     :     0.000613
      f-2     :     0.000611
      f+3     :     0.000817
      f-3     :     0.001420
  7 H s       :     0.811298  s :     0.811298
      pz      :     0.005700  p :     0.025136
      px      :     0.013434
      py      :     0.006002
  8 H s       :     0.808644  s :     0.808644
      pz      :     0.005697  p :     0.025115
      px      :     0.010627
      py      :     0.008791
  9 H s       :     0.837732  s :     0.837732
      pz      :     0.006043  p :     0.024967
      px      :     0.004980
      py      :     0.013945
 10 C s       :     3.237477  s :     3.237477
      pz      :     0.942901  p :     2.753035
      px      :     0.904826
      py      :     0.905308
      dz2     :     0.030446  d :     0.127489
      dxz     :     0.043121
      dyz     :     0.044085
      dx2y2   :     0.004848
      dxy     :     0.004989
      f0      :     0.004620  f :     0.020433
      f+1     :     0.007059
      f-1     :     0.007048
      f+2     :     0.000585
      f-2     :     0.000598
      f+3     :     0.000261
      f-3     :     0.000262
 11 N s       :     3.715158  s :     3.715158
      pz      :     1.268659  p :     3.338809
      px      :     1.034095
      py      :     1.036056
      dz2     :     0.016015  d :     0.077342
      dxz     :     0.025841
      dyz     :     0.025795
      dx2y2   :     0.004840
      dxy     :     0.004851
      f0      :     0.001043  f :     0.005639
      f+1     :     0.001615
      f-1     :     0.001607
      f+2     :     0.000414
      f-2     :     0.000414
      f+3     :     0.000273
      f-3     :     0.000273
 12 C s       :     3.147069  s :     3.147069
      pz      :     0.799132  p :     2.942877
      px      :     1.088554
      py      :     1.055191
      dz2     :     0.020443  d :     0.089219
      dxz     :     0.017190
      dyz     :     0.018897
      dx2y2   :     0.015786
      dxy     :     0.016904
      f0      :     0.002053  f :     0.007345
      f+1     :     0.000899
      f-1     :     0.000910
      f+2     :     0.000617
      f-2     :     0.000602
      f+3     :     0.000940
      f-3     :     0.001323
 13 H s       :     0.827446  s :     0.827446
      pz      :     0.006389  p :     0.025053
      px      :     0.005002
      py      :     0.013662
 14 H s       :     0.804467  s :     0.804467
      pz      :     0.005364  p :     0.025213
      px      :     0.013992
      py      :     0.005857
 15 H s       :     0.824265  s :     0.824265
      pz      :     0.005708  p :     0.025088
      px      :     0.009889
      py      :     0.009491
 16 C s       :     3.233637  s :     3.233637
      pz      :     0.950246  p :     2.748577
      px      :     0.898428
      py      :     0.899903
      dz2     :     0.029879  d :     0.128520
      dxz     :     0.043802
      dyz     :     0.044734
      dx2y2   :     0.004904
      dxy     :     0.005201
      f0      :     0.004672  f :     0.020408
      f+1     :     0.006948
      f-1     :     0.006937
      f+2     :     0.000650
      f-2     :     0.000677
      f+3     :     0.000262
      f-3     :     0.000262
 17 N s       :     3.711093  s :     3.711093
      pz      :     1.268474  p :     3.356440
      px      :     1.042854
      py      :     1.045112
      dz2     :     0.016102  d :     0.077287
      dxz     :     0.025627
      dyz     :     0.025620
      dx2y2   :     0.004965
      dxy     :     0.004973
      f0      :     0.001059  f :     0.005644
      f+1     :     0.001594
      f-1     :     0.001586
      f+2     :     0.000427
      f-2     :     0.000427
      f+3     :     0.000275
      f-3     :     0.000275


                     *******************************
                     * LOEWDIN POPULATION ANALYSIS *
                     *******************************

----------------------
LOEWDIN ATOMIC CHARGES
----------------------
   0 C :   -0.258312
   1 H :    0.142350
   2 H :    0.140752
   3 H :    0.146033
   4 C :   -0.211871
   5 N :    0.041106
   6 C :   -0.262418
   7 H :    0.143888
   8 H :    0.144289
   9 H :    0.136858
  10 C :   -0.216944
  11 N :    0.054046
  12 C :   -0.258555
  13 H :    0.140810
  14 H :    0.147534
  15 H :    0.142142
  16 C :   -0.214024
  17 N :    0.042317

-------------------------------
LOEWDIN REDUCED ORBITAL CHARGES
-------------------------------
  0 C s       :     2.811123  s :     2.811123
      pz      :     1.022000  p :     3.120784
      px      :     1.050493
      py      :     1.048291
      dz2     :     0.081926  d :     0.294689
      dxz     :     0.068677
      dyz     :     0.070282
      dx2y2   :     0.037567
      dxy     :     0.036238
      f0      :     0.008411  f :     0.031717
      f+1     :     0.006418
      f-1     :     0.006333
      f+2     :     0.002823
      f-2     :     0.002989
      f+3     :     0.002033
      f-3     :     0.002710
  1 H s       :     0.792537  s :     0.792537
      pz      :     0.014084  p :     0.065112
      px      :     0.014606
      py      :     0.036423
  2 H s       :     0.794128  s :     0.794128
      pz      :     0.013880  p :     0.065120
      px      :     0.035525
      py      :     0.015716
  3 H s       :     0.788214  s :     0.788214
      pz      :     0.014450  p :     0.065753
      px      :     0.026086
      py      :     0.025217
  4 C s       :     2.833613  s :     2.833613
      pz      :     1.176912  p :     2.846617
      px      :     0.834879
      py      :     0.834826
      dz2     :     0.162814  d :     0.465315
      dxz     :     0.146466
      dyz     :     0.146195
      dx2y2   :     0.004959
      dxy     :     0.004881
      f0      :     0.024823  f :     0.066326
      f+1     :     0.019759
      f-1     :     0.019757
      f+2     :     0.000744
      f-2     :     0.000723
      f+3     :     0.000260
      f-3     :     0.000260
  5 N s       :     3.306830  s :     3.306830
      pz      :     1.478191  p :     3.490444
      px      :     1.006407
      py      :     1.005846
      dz2     :     0.052878  d :     0.142692
      dxz     :     0.040127
      dyz     :     0.040127
      dx2y2   :     0.004772
      dxy     :     0.004788
      f0      :     0.007293  f :     0.018928
      f+1     :     0.005108
      f-1     :     0.005105
      f+2     :     0.000437
      f-2     :     0.000437
      f+3     :     0.000275
      f-3     :     0.000275
  6 C s       :     2.810867  s :     2.810867
      pz      :     1.025042  p :     3.122631
      px      :     1.052372
      py      :     1.045217
      dz2     :     0.081241  d :     0.297071
      dxz     :     0.069522
      dyz     :     0.071984
      dx2y2   :     0.036955
      dxy     :     0.037369
      f0      :     0.008348  f :     0.031848
      f+1     :     0.006597
      f-1     :     0.006320
      f+2     :     0.003061
      f-2     :     0.002770
      f+3     :     0.001390
      f-3     :     0.003362
  7 H s       :     0.790875  s :     0.790875
      pz      :     0.013903  p :     0.065237
      px      :     0.034871
      py      :     0.016463
  8 H s       :     0.790550  s :     0.790550
      pz      :     0.013906  p :     0.065162
      px      :     0.027959
      py      :     0.023296
  9 H s       :     0.798239  s :     0.798239
      pz      :     0.014505  p :     0.064903
      px      :     0.014108
      py      :     0.036290
 10 C s       :     2.832692  s :     2.832692
      pz      :     1.175275  p :     2.854649
      px      :     0.840012
      py      :     0.839362
      dz2     :     0.163682  d :     0.463348
      dxz     :     0.144755
      dyz     :     0.144857
      dx2y2   :     0.004855
      dxy     :     0.005200
      f0      :     0.024893  f :     0.066255
      f+1     :     0.019663
      f-1     :     0.019692
      f+2     :     0.000713
      f-2     :     0.000767
      f+3     :     0.000263
      f-3     :     0.000265
 11 N s       :     3.306171  s :     3.306171
      pz      :     1.477805  p :     3.476965
      px      :     0.998936
      py      :     1.000224
      dz2     :     0.052957  d :     0.143776
      dxz     :     0.040690
      dyz     :     0.040540
      dx2y2   :     0.004783
      dxy     :     0.004806
      f0      :     0.007293  f :     0.019042
      f+1     :     0.005176
      f-1     :     0.005151
      f+2     :     0.000438
      f-2     :     0.000437
      f+3     :     0.000273
      f-3     :     0.000274
 12 C s       :     2.811746  s :     2.811746
      pz      :     1.022619  p :     3.120423
      px      :     1.052836
      py      :     1.044969
      dz2     :     0.082094  d :     0.294618
      dxz     :     0.064565
      dyz     :     0.073540
      dx2y2   :     0.034910
      dxy     :     0.039508
      f0      :     0.008347  f :     0.031768
      f+1     :     0.006824
      f-1     :     0.006037
      f+2     :     0.003036
      f-2     :     0.002744
      f+3     :     0.001777
      f-3     :     0.003001
 13 H s       :     0.794103  s :     0.794103
      pz      :     0.015256  p :     0.065088
      px      :     0.014181
      py      :     0.035651
 14 H s       :     0.787074  s :     0.787074
      pz      :     0.013191  p :     0.065392
      px      :     0.036171
      py      :     0.016030
 15 H s       :     0.792709  s :     0.792709
      pz      :     0.013847  p :     0.065149
      px      :     0.026365
      py      :     0.024937
 16 C s       :     2.833537  s :     2.833537
      pz      :     1.175824  p :     2.848090
      px      :     0.836054
      py      :     0.836212
      dz2     :     0.162732  d :     0.466078
      dxz     :     0.145765
      dyz     :     0.146406
      dx2y2   :     0.005281
      dxy     :     0.005895
      f0      :     0.024667  f :     0.066319
      f+1     :     0.019516
      f-1     :     0.019707
      f+2     :     0.000914
      f-2     :     0.000986
      f+3     :     0.000263
      f-3     :     0.000266
 17 N s       :     3.306676  s :     3.306676
      pz      :     1.476151  p :     3.489178
      px      :     1.005542
      py      :     1.007485
      dz2     :     0.052737  d :     0.142889
      dxz     :     0.040134
      dyz     :     0.040069
      dx2y2   :     0.004967
      dxy     :     0.004981
      f0      :     0.007233  f :     0.018941
      f+1     :     0.005090
      f-1     :     0.005089
      f+2     :     0.000489
      f-2     :     0.000488
      f+3     :     0.000276
      f-3     :     0.000276


                      *****************************
                      * MAYER POPULATION ANALYSIS *
                      *****************************

  NA   - Mulliken gross atomic population
  ZA   - Total nuclear charge
  QA   - Mulliken gross atomic charge
  VA   - Mayer's total valence
  BVA  - Mayer's bonded valence
  FA   - Mayer's free valence

  ATOM       NA         ZA         QA         VA         BVA        FA
  0 C      6.1814     6.0000    -0.1814     3.9378     3.6522     0.2856
  1 H      0.8504     1.0000     0.1496     0.9702     0.9219     0.0483
  2 H      0.8549     1.0000     0.1451     0.9710     0.9225     0.0485
  3 H      0.8292     1.0000     0.1708     0.9676     0.9210     0.0466
  4 C      6.1311     6.0000    -0.1311     4.0104     3.5668     0.4435
  5 N      7.1528     7.0000    -0.1528     3.2230     2.7367     0.4862
  6 C      6.1922     6.0000    -0.1922     3.9437     3.6553     0.2884
  7 H      0.8364     1.0000     0.1636     0.9690     0.9219     0.0471
  8 H      0.8338     1.0000     0.1662     0.9673     0.9203     0.0470
  9 H      0.8627     1.0000     0.1373     0.9681     0.9186     0.0495
 10 C      6.1384     6.0000    -0.1384     3.9913     3.5438     0.4474
 11 N      7.1369     7.0000    -0.1369     3.2129     2.7260     0.4869
 12 C      6.1865     6.0000    -0.1865     3.9336     3.6480     0.2855
 13 H      0.8525     1.0000     0.1475     0.9695     0.9210     0.0485
 14 H      0.8297     1.0000     0.1703     0.9679     0.9212     0.0468
 15 H      0.8494     1.0000     0.1506     0.9703     0.9222     0.0481
 16 C      6.1311     6.0000    -0.1311     4.0026     3.5586     0.4440
 17 N      7.1505     7.0000    -0.1505     3.2222     2.7360     0.4862

  Mayer bond orders larger than 0.100000
B(  0-C ,  1-H ) :   0.9298 B(  0-C ,  2-H ) :   0.9342 B(  0-C ,  3-H ) :   0.9201 
B(  0-C ,  4-C ) :   0.8757 B(  4-C ,  5-N ) :   2.7191 B(  6-C ,  7-H ) :   0.9274 
B(  6-C ,  8-H ) :   0.9266 B(  6-C ,  9-H ) :   0.9347 B(  6-C , 10-C ) :   0.8702 
B( 10-C , 11-N ) :   2.7089 B( 12-C , 13-H ) :   0.9302 B( 12-C , 14-H ) :   0.9211 
B( 12-C , 15-H ) :   0.9342 B( 12-C , 16-C ) :   0.8709 B( 16-C , 17-N ) :   2.7181 



                *******************************************
                * RELAXED MP2 DENSITY POPULATION ANALYSIS *
                *******************************************

------------------------------------------------------------------------------
                           ORCA POPULATION ANALYSIS
------------------------------------------------------------------------------
Input electron density              ... 12mecn.remya.etal.2.mol1,5,7-orca.engrad-mp2.def2tzvp.frozencore.pmp2re
BaseName (.gbw .S,...)              ... 12mecn.remya.etal.2.mol1,5,7-orca.engrad-mp2.def2tzvp.frozencore

                    ********************************
                    * MULLIKEN POPULATION ANALYSIS *
                    ********************************

-----------------------
MULLIKEN ATOMIC CHARGES
-----------------------
   0 C :   -0.283744
   1 H :    0.164475
   2 H :    0.160139
   3 H :    0.183070
   4 C :   -0.153570
   5 N :   -0.070223
   6 C :   -0.294263
   7 H :    0.176514
   8 H :    0.178856
   9 H :    0.154096
  10 C :   -0.156454
  11 N :   -0.059237
  12 C :   -0.287496
  13 H :    0.162640
  14 H :    0.182653
  15 H :    0.165088
  16 C :   -0.153648
  17 N :   -0.068896
Sum of atomic charges:    0.0000000

--------------------------------
MULLIKEN REDUCED ORBITAL CHARGES
--------------------------------
  0 C s       :     3.177451  s :     3.177451
      pz      :     0.845758  p :     3.020371
      px      :     1.088417
      py      :     1.086196
      dz2     :     0.016066  d :     0.078832
      dxz     :     0.018128
      dyz     :     0.018541
      dx2y2   :     0.012847
      dxy     :     0.013250
      f0      :     0.001871  f :     0.007089
      f+1     :     0.000946
      f-1     :     0.000951
      f+2     :     0.000574
      f-2     :     0.000616
      f+3     :     0.000972
      f-3     :     0.001160
  1 H s       :     0.811563  s :     0.811563
      pz      :     0.005885  p :     0.023962
      px      :     0.005345
      py      :     0.012732
  2 H s       :     0.815831  s :     0.815831
      pz      :     0.005819  p :     0.024030
      px      :     0.012446
      py      :     0.005765
  3 H s       :     0.792791  s :     0.792791
      pz      :     0.005973  p :     0.024140
      px      :     0.009222
      py      :     0.008944
  4 C s       :     3.212877  s :     3.212877
      pz      :     0.984470  p :     2.817785
      px      :     0.916644
      py      :     0.916672
      dz2     :     0.025294  d :     0.103870
      dxz     :     0.034501
      dyz     :     0.034422
      dx2y2   :     0.004850
      dxy     :     0.004803
      f0      :     0.004421  f :     0.019037
      f+1     :     0.006463
      f-1     :     0.006467
      f+2     :     0.000589
      f-2     :     0.000580
      f+3     :     0.000259
      f-3     :     0.000259
  5 N s       :     3.654546  s :     3.654546
      pz      :     1.258556  p :     3.342354
      px      :     1.042072
      py      :     1.041726
      dz2     :     0.014970  d :     0.068154
      dxz     :     0.021747
      dyz     :     0.021761
      dx2y2   :     0.004835
      dxy     :     0.004841
      f0      :     0.000929  f :     0.005170
      f+1     :     0.001432
      f-1     :     0.001432
      f+2     :     0.000414
      f-2     :     0.000414
      f+3     :     0.000274
      f-3     :     0.000274
[...]
      f+1     :     0.006470
      f-1     :     0.006474
      f+2     :     0.000581
      f-2     :     0.000593
      f+3     :     0.000261
      f-3     :     0.000262
 11 N s       :     3.660803  s :     3.660803
      pz      :     1.256134  p :     3.325033
      px      :     1.033647
      py      :     1.035252
      dz2     :     0.015044  d :     0.068241
      dxz     :     0.021758
      dyz     :     0.021755
      dx2y2   :     0.004836
      dxy     :     0.004847
      f0      :     0.000929  f :     0.005160
      f+1     :     0.001431
      f-1     :     0.001426
      f+2     :     0.000414
      f-2     :     0.000414
      f+3     :     0.000273
      f-3     :     0.000273
 12 C s       :     3.184780  s :     3.184780
      pz      :     0.844293  p :     3.016981
      px      :     1.101572
      py      :     1.071116
      dz2     :     0.016236  d :     0.078644
      dxz     :     0.017486
      dyz     :     0.018684
      dx2y2   :     0.012689
      dxy     :     0.013549
      f0      :     0.001827  f :     0.007091
      f+1     :     0.000956
      f-1     :     0.000967
      f+2     :     0.000603
      f-2     :     0.000592
      f+3     :     0.000902
      f-3     :     0.001244
 13 H s       :     0.813399  s :     0.813399
      pz      :     0.006355  p :     0.023961
      px      :     0.005180
      py      :     0.012426
 14 H s       :     0.793272  s :     0.793272
      pz      :     0.005500  p :     0.024075
      px      :     0.012690
      py      :     0.005885
 15 H s       :     0.810922  s :     0.810922
      pz      :     0.005790  p :     0.023990
      px      :     0.009268
      py      :     0.008932
 16 C s       :     3.213040  s :     3.213040
      pz      :     0.982386  p :     2.817514
      px      :     0.916976
      py      :     0.918152
      dz2     :     0.025467  d :     0.104046
      dxz     :     0.033854
      dyz     :     0.034744
      dx2y2   :     0.004851
      dxy     :     0.005130
      f0      :     0.004473  f :     0.019048
      f+1     :     0.006370
      f-1     :     0.006375
      f+2     :     0.000641
      f-2     :     0.000665
      f+3     :     0.000261
      f-3     :     0.000262
 17 N s       :     3.655593  s :     3.655593
      pz      :     1.256859  p :     3.339923
      px      :     1.040538
      py      :     1.042526
      dz2     :     0.015073  d :     0.068213
      dxz     :     0.021620
      dyz     :     0.021637
      dx2y2   :     0.004939
      dxy     :     0.004945
      f0      :     0.000942  f :     0.005167
      f+1     :     0.001415
      f-1     :     0.001409
      f+2     :     0.000425
      f-2     :     0.000425
      f+3     :     0.000275
      f-3     :     0.000275


                     *******************************
                     * LOEWDIN POPULATION ANALYSIS *
                     *******************************

----------------------
LOEWDIN ATOMIC CHARGES
----------------------
   0 C :   -0.288617
   1 H :    0.149380
   2 H :    0.147869
   3 H :    0.152636
   4 C :   -0.224607
   5 N :    0.063423
   6 C :   -0.292342
   7 H :    0.150714
   8 H :    0.151088
   9 H :    0.144337
  10 C :   -0.228348
  11 N :    0.074250
  12 C :   -0.288869
  13 H :    0.147945
  14 H :    0.154205
  15 H :    0.149186
  16 C :   -0.226549
  17 N :    0.064299

-------------------------------
LOEWDIN REDUCED ORBITAL CHARGES
-------------------------------
  0 C s       :     2.816172  s :     2.816172
      pz      :     1.039397  p :     3.157212
      px      :     1.060111
      py      :     1.057703
      dz2     :     0.074510  d :     0.283331
      dxz     :     0.070050
      dyz     :     0.071579
      dx2y2   :     0.034158
      dxy     :     0.033033
      f0      :     0.007930  f :     0.031903
      f+1     :     0.006833
      f-1     :     0.006745
      f+2     :     0.002797
      f-2     :     0.002968
      f+3     :     0.001987
      f-3     :     0.002643
  1 H s       :     0.785117  s :     0.785117
      pz      :     0.014626  p :     0.065504
      px      :     0.015043
      py      :     0.035835
  2 H s       :     0.786568  s :     0.786568
      pz      :     0.014446  p :     0.065563
      px      :     0.035020
      py      :     0.016097
  3 H s       :     0.781299  s :     0.781299
      pz      :     0.014956  p :     0.066065
      px      :     0.025985
      py      :     0.025124
  4 C s       :     2.839486  s :     2.839486
      pz      :     1.168388  p :     2.868716
      px      :     0.850321
      py      :     0.850007
      dz2     :     0.165181  d :     0.449963
      dxz     :     0.137671
      dyz     :     0.137385
      dx2y2   :     0.004896
      dxy     :     0.004831
      f0      :     0.025799  f :     0.066442
      f+1     :     0.019341
      f-1     :     0.019344
      f+2     :     0.000728
      f-2     :     0.000710
      f+3     :     0.000260
      f-3     :     0.000260
  5 N s       :     3.307154  s :     3.307154
      pz      :     1.464577  p :     3.472067
      px      :     1.003928
      py      :     1.003563
      dz2     :     0.053664  d :     0.138102
      dxz     :     0.037448
      dyz     :     0.037432
      dx2y2   :     0.004771
      dxy     :     0.004787
      f0      :     0.007400  f :     0.019254
      f+1     :     0.005218
      f-1     :     0.005214
      f+2     :     0.000437
      f-2     :     0.000437
      f+3     :     0.000274
      f-3     :     0.000275
  6 C s       :     2.816044  s :     2.816044
      pz      :     1.042012  p :     3.158865
      px      :     1.061474
      py      :     1.055379
      dz2     :     0.073989  d :     0.285424
      dxz     :     0.070778
      dyz     :     0.073051
      dx2y2   :     0.033541
      dxy     :     0.034064
      f0      :     0.007887  f :     0.032009
      f+1     :     0.006994
      f-1     :     0.006716
      f+2     :     0.003031
      f-2     :     0.002746
      f+3     :     0.001364
      f-3     :     0.003271
  7 H s       :     0.783664  s :     0.783664
      pz      :     0.014461  p :     0.065622
      px      :     0.034341
      py      :     0.016820
  8 H s       :     0.783368  s :     0.783368
      pz      :     0.014463  p :     0.065543
      px      :     0.027765
      py      :     0.023316
  9 H s       :     0.790247  s :     0.790247
      pz      :     0.015044  p :     0.065415
      px      :     0.014585
      py      :     0.035786
 10 C s       :     2.838770  s :     2.838770
      pz      :     1.166843  p :     2.874640
      px      :     0.854204
      py      :     0.853593
      dz2     :     0.166201  d :     0.448507
      dxz     :     0.136089
      dyz     :     0.136267
      dx2y2   :     0.004811
      dxy     :     0.005139
      f0      :     0.025852  f :     0.066431
      f+1     :     0.019280
      f-1     :     0.019320
      f+2     :     0.000704
      f-2     :     0.000749
      f+3     :     0.000262
      f-3     :     0.000264
 11 N s       :     3.306736  s :     3.306736
      pz      :     1.463752  p :     3.460770
      px      :     0.997992
      py      :     0.999025
      dz2     :     0.053823  d :     0.138910
      dxz     :     0.037792
      dyz     :     0.037714
      dx2y2   :     0.004780
      dxy     :     0.004801
      f0      :     0.007407  f :     0.019334
      f+1     :     0.005261
      f-1     :     0.005245
      f+2     :     0.000438
      f-2     :     0.000437
      f+3     :     0.000273
      f-3     :     0.000274
 12 C s       :     2.816772  s :     2.816772
      pz      :     1.040048  p :     3.156930
      px      :     1.062035
      py      :     1.054846
      dz2     :     0.074812  d :     0.283214
      dxz     :     0.066096
      dyz     :     0.074473
      dx2y2   :     0.031771
      dxy     :     0.036062
      f0      :     0.007896  f :     0.031953
      f+1     :     0.007224
      f-1     :     0.006425
      f+2     :     0.003018
      f-2     :     0.002725
      f+3     :     0.001740
      f-3     :     0.002924
 13 H s       :     0.786554  s :     0.786554
      pz      :     0.015734  p :     0.065501
      px      :     0.014654
      py      :     0.035114
 14 H s       :     0.780098  s :     0.780098
      pz      :     0.013782  p :     0.065697
      px      :     0.035528
      py      :     0.016387
 15 H s       :     0.785246  s :     0.785246
      pz      :     0.014415  p :     0.065568
      px      :     0.026287
      py      :     0.024866
 16 C s       :     2.839394  s :     2.839394
      pz      :     1.167346  p :     2.869935
      px      :     0.851280
      py      :     0.851309
      dz2     :     0.165020  d :     0.450787
      dxz     :     0.137037
      dyz     :     0.137729
      dx2y2   :     0.005214
      dxy     :     0.005788
      f0      :     0.025607  f :     0.066433
      f+1     :     0.019119
      f-1     :     0.019315
      f+2     :     0.000905
      f-2     :     0.000959
      f+3     :     0.000263
      f-3     :     0.000265
 17 N s       :     3.307018  s :     3.307018
      pz      :     1.462600  p :     3.471152
      px      :     1.003421
      py      :     1.005130
      dz2     :     0.053470  d :     0.138268
      dxz     :     0.037442
      dyz     :     0.037449
      dx2y2   :     0.004948
      dxy     :     0.004959
      f0      :     0.007340  f :     0.019263
      f+1     :     0.005192
      f-1     :     0.005200
      f+2     :     0.000490
      f-2     :     0.000489
      f+3     :     0.000276
      f-3     :     0.000276


                      *****************************
                      * MAYER POPULATION ANALYSIS *
                      *****************************

  NA   - Mulliken gross atomic population
  ZA   - Total nuclear charge
  QA   - Mulliken gross atomic charge
  VA   - Mayer's total valence
  BVA  - Mayer's bonded valence
  FA   - Mayer's free valence

  ATOM       NA         ZA         QA         VA         BVA        FA
  0 C      6.2837     6.0000    -0.2837     3.9395     3.6549     0.2845
  1 H      0.8355     1.0000     0.1645     0.9644     0.9168     0.0476
  2 H      0.8399     1.0000     0.1601     0.9650     0.9172     0.0479
  3 H      0.8169     1.0000     0.1831     0.9614     0.9153     0.0460
  4 C      6.1536     6.0000    -0.1536     4.1290     3.6965     0.4324
  5 N      7.0702     7.0000    -0.0702     3.3343     2.8600     0.4742
  6 C      6.2943     6.0000    -0.2943     3.9436     3.6563     0.2873
  7 H      0.8235     1.0000     0.1765     0.9630     0.9164     0.0465
  8 H      0.8211     1.0000     0.1789     0.9614     0.9150     0.0465
  9 H      0.8459     1.0000     0.1541     0.9629     0.9141     0.0488
 10 C      6.1565     6.0000    -0.1565     4.1066     3.6704     0.4362
 11 N      7.0592     7.0000    -0.0592     3.3227     2.8475     0.4752
 12 C      6.2875     6.0000    -0.2875     3.9353     3.6509     0.2844
 13 H      0.8374     1.0000     0.1626     0.9639     0.9161     0.0478
 14 H      0.8173     1.0000     0.1827     0.9619     0.9157     0.0462
 15 H      0.8349     1.0000     0.1651     0.9641     0.9166     0.0475
 16 C      6.1536     6.0000    -0.1536     4.1211     3.6882     0.4329
 17 N      7.0689     7.0000    -0.0689     3.3329     2.8586     0.4743

  Mayer bond orders larger than 0.100000
B(  0-C ,  1-H ) :   0.9203 B(  0-C ,  2-H ) :   0.9239 B(  0-C ,  3-H ) :   0.9114 
B(  0-C ,  4-C ) :   0.8986 B(  4-C ,  5-N ) :   2.8243 B(  6-C ,  7-H ) :   0.9177 
B(  6-C ,  8-H ) :   0.9169 B(  6-C ,  9-H ) :   0.9247 B(  6-C , 10-C ) :   0.8921 
B( 10-C , 11-N ) :   2.8119 B( 12-C , 13-H ) :   0.9208 B( 12-C , 14-H ) :   0.9123 
B( 12-C , 15-H ) :   0.9238 B( 12-C , 16-C ) :   0.8940 B( 16-C , 17-N ) :   2.8227 



----------------------------------
MP2 DERIVATIVE INTEGRAL GENERATION
----------------------------------


Input Wavefunction Amplitudes       ... 12mecn.remya.etal.2.mol1,5,7-orca.engrad-mp2.def2tzvp.frozencore.mp2tsaa.tmp
Input Correlated Electron Density   ... 12mecn.remya.etal.2.mol1,5,7-orca.engrad-mp2.def2tzvp.frozencore.pmp2re
Input Energy Weighted Density       ... 12mecn.remya.etal.2.mol1,5,7-orca.engrad-mp2.def2tzvp.frozencore.wmp2.tmp
Input SCF Electron Density          ... 12mecn.remya.etal.2.mol1,5,7-orca.engrad-mp2.def2tzvp.frozencore.scfp

One-Electron Terms    ...
                        ... One-Electron Terms done
Prescreening matrices              ... done

Batch handling in the gradient evaluation:
Memory available                      ... 8000.0 MB
Memory per occupied orbital in Q2     ...   20.3 MB
Memory per occupied orbital in Q3     ...    0.1 MB
Total memory requirement per |i>      ...   20.4 MB
Max. Number of orbitals possible      ...    391
Number of orbitals treated per batch  ...     24
Number of batches to be done          ...      1
Batch   0: i=    9 ...    32

---------------------------------------
MP2 TOTAL ENERGY:     -397.444272387 Eh
---------------------------------------

The final MP2 gradient
  0:  -0.00205736   0.00053929  -0.00654531
  1:  -0.00077929   0.00392646  -0.00159380
  2:   0.00219356  -0.00217641  -0.00128522
  3:  -0.00009280  -0.00236092  -0.00034798
  4:   0.00084465  -0.00010917   0.00631459
  5:   0.00042909   0.00058494   0.00344643
  6:  -0.00052036   0.00137180  -0.00604833
  7:  -0.00354083   0.00007990  -0.00150667
  8:   0.00357794   0.00123630  -0.00131758
  9:   0.00056037  -0.00305696  -0.00074612
 10:  -0.00026522   0.00016389   0.00553194
 11:   0.00033761  -0.00043283   0.00418170
 12:  -0.00009003   0.00123162  -0.00578688
 13:  -0.00152488   0.00360233  -0.00111596
 14:   0.00322675  -0.00175293  -0.00210768
 15:  -0.00237484  -0.00199863  -0.00157324
 16:   0.00061912  -0.00084375   0.00673958
 17:  -0.00054347  -0.00000492   0.00376054

-----------------------------------
NORM OF THE MP2 GRADIENT:  0.020167
-----------------------------------

-------------------------   --------------------
FINAL SINGLE POINT ENERGY      -397.444272386631
-------------------------   --------------------


                            ***************************************
                            *     ORCA property calculations      *
                            ***************************************

                                    ---------------------
                                    Active property flags
                                    ---------------------
   (+) Dipole Moment


------------------------------------------------------------------------------
                       ORCA ELECTRIC PROPERTIES CALCULATION
------------------------------------------------------------------------------

Dipole Moment Calculation                       ... on
Quadrupole Moment Calculation                   ... off
Polarizability Calculation                      ... off
GBWName                                         ... 12mecn.remya.etal.2.mol1,5,7-orca.engrad-mp2.def2tzvp.frozencore.gbw
Electron density file                           ... 12mecn.remya.etal.2.mol1,5,7-orca.engrad-mp2.def2tzvp.frozencore.scfp
The origin for moment calculation is the CENTER OF MASS  = (-3.279214,  1.872032  0.817380)

-------------
DIPOLE MOMENT
-------------
                                X             Y             Z
Electronic contribution:     -0.14345       0.14914      -9.33012
Nuclear contribution   :      0.21426      -0.23125      13.89711
                        -----------------------------------------
Total Dipole Moment    :      0.07081      -0.08210       4.56699
                        -----------------------------------------
Magnitude (a.u.)       :      4.56828
Magnitude (Debye)      :     11.61164



--------------------
Rotational spectrum 
--------------------
 
Rotational constants in cm-1:     0.055334     0.017755     0.017463 
Rotational constants in MHz :  1658.871593   532.285161   523.521426 

 Dipole components along the rotational axes: 
x,y,z [a.u.] :     0.039454    -4.375448     1.312650 
x,y,z [Debye]:     0.100285   -11.121504     3.336491 

 

                         *** MP2 UNRELAXED DENSITY ***

------------------------------------------------------------------------------
                       ORCA ELECTRIC PROPERTIES CALCULATION
------------------------------------------------------------------------------

Dipole Moment Calculation                       ... on
Quadrupole Moment Calculation                   ... off
Polarizability Calculation                      ... off
GBWName                                         ... 12mecn.remya.etal.2.mol1,5,7-orca.engrad-mp2.def2tzvp.frozencore.gbw
Electron density file                           ... 12mecn.remya.etal.2.mol1,5,7-orca.engrad-mp2.def2tzvp.frozencore.pmp2ur
The origin for moment calculation is the CENTER OF MASS  = (-3.279214,  1.872032  0.817380)

-------------
DIPOLE MOMENT
-------------
                                X             Y             Z
Electronic contribution:     -0.14482       0.15110      -9.43580
Nuclear contribution   :      0.21426      -0.23125      13.89711
                        -----------------------------------------
Total Dipole Moment    :      0.06944      -0.08014       4.46131
                        -----------------------------------------
Magnitude (a.u.)       :      4.46257
Magnitude (Debye)      :     11.34294



--------------------
Rotational spectrum 
--------------------
 
Rotational constants in cm-1:     0.055334     0.017755     0.017463 
Rotational constants in MHz :  1658.871593   532.285161   523.521426 

 Dipole components along the rotational axes: 
x,y,z [a.u.] :     0.038816    -4.274193     1.282289 
x,y,z [Debye]:     0.098662   -10.864136     3.259320 

 

                           *** MP2 RELAXED DENSITY ***

------------------------------------------------------------------------------
                       ORCA ELECTRIC PROPERTIES CALCULATION
------------------------------------------------------------------------------

Dipole Moment Calculation                       ... on
Quadrupole Moment Calculation                   ... off
Polarizability Calculation                      ... off
GBWName                                         ... 12mecn.remya.etal.2.mol1,5,7-orca.engrad-mp2.def2tzvp.frozencore.gbw
Electron density file                           ... 12mecn.remya.etal.2.mol1,5,7-orca.engrad-mp2.def2tzvp.frozencore.pmp2re
The origin for moment calculation is the CENTER OF MASS  = (-3.279214,  1.872032  0.817380)

-------------
DIPOLE MOMENT
-------------
                                X             Y             Z
Electronic contribution:     -0.14878       0.15527      -9.69836
Nuclear contribution   :      0.21426      -0.23125      13.89711
                        -----------------------------------------
Total Dipole Moment    :      0.06547      -0.07598       4.19875
                        -----------------------------------------
Magnitude (a.u.)       :      4.19995
Magnitude (Debye)      :     10.67542



--------------------
Rotational spectrum 
--------------------
 
Rotational constants in cm-1:     0.055334     0.017755     0.017463 
Rotational constants in MHz :  1658.871593   532.285161   523.521426 

 Dipole components along the rotational axes: 
x,y,z [a.u.] :     0.036564    -4.022821     1.206291 
x,y,z [Debye]:     0.092939   -10.225198     3.066149 

 

Timings for individual modules:

Sum of individual times         ...      196.661 sec (=   3.278 min)
GTO integral calculation        ...        1.050 sec (=   0.017 min)   0.5 %
SCF iterations                  ...       40.641 sec (=   0.677 min)  20.7 %
MP2 module                      ...      154.970 sec (=   2.583 min)  78.8 %
                             ****ORCA TERMINATED NORMALLY****
TOTAL RUN TIME: 0 days 0 hours 3 minutes 17 seconds 769 msec
