24
Energy:    -90.04062526
O   -0.95515660  -2.35273486   2.05456495
H   -1.36704033  -2.81605573   2.79894983
C   -1.99480085  -1.80085736   1.26266545
H   -1.51333338  -1.28269915   0.42888710
H   -2.60537951  -1.06808981   1.81314047
H   -2.66527252  -2.56872114   0.84597577
O    1.40477159  -1.30113906   0.87630554
H    0.65794606  -1.71230567   1.33632394
C    1.76824104  -0.13679294   1.60068241
H    2.61062156   0.31385365   1.06889494
H    2.09357974  -0.35990412   2.62886210
H    0.95663292   0.60615227   1.64653012
O   -0.22873944   2.21992300  -0.25232373
H   -0.01821139   1.44215969  -0.79008340
C   -1.27977677   2.91909275  -0.89963816
H   -1.50432668   3.79200392  -0.28069663
H   -2.19845403   2.31837372  -0.98877893
H   -0.99878120   3.27528711  -1.90310435
O    0.43438246  -0.21374792  -1.53817709
H    0.79908969  -0.65368596  -0.75595816
C    1.45409456  -0.17271958  -2.52358953
H    1.02642372   0.32586427  -3.39765876
H    1.78794550  -1.17579401  -2.83207383
H    2.33554387   0.40253693  -2.19970006
