24
Energy:    -90.69738931
O   -1.44044197  -0.61496480  -2.70786335
H   -1.47043664  -0.84102174  -3.64936314
C   -0.61550530  -1.57123341  -2.06167173
H   -0.59270560  -1.30173542  -1.00226802
H    0.41936997  -1.56375455  -2.43817482
H   -1.00805788  -2.59680278  -2.14466127
O    1.29663364   0.92534243   0.05698211
H    0.46722637   1.25559547  -0.31910269
C    2.03528646   2.04467890   0.51959607
H    2.96625401   1.65474252   0.93999379
H    1.51073974   2.60271884   1.31093638
H    2.29340176   2.74717908  -0.28826983
O   -1.27764882   1.54405846  -0.90801420
H   -1.45113078   0.88826542  -1.59957965
C   -2.09084564   1.21827913   0.20783191
H   -1.88294579   1.96676062   0.97727217
H   -1.86111993   0.22578619   0.62611554
H   -3.16667525   1.25701003  -0.02426270
O    0.22149649  -0.84573600   2.00505389
H    0.63746820  -0.27534345   1.34169641
C    1.08747174  -1.94665074   2.23001474
H    0.60373066  -2.57881462   2.97958035
H    2.06980907  -1.64154143   2.62333271
H    1.24862549  -2.55281815   1.32482534
