24
Energy:   -107.48387525
O    1.65748176  -0.83569292   0.66759304
H    0.78261379  -0.98279496   1.05668212
C    2.13206347  -2.08469991   0.19084625
H    3.11820487  -1.90079651  -0.24411337
H    1.48787121  -2.51336063  -0.59276313
H    2.24647042  -2.83043311   0.99307463
O    1.08344135   1.08900071  -1.30119106
H    1.40790938   0.44454482  -0.65480080
C    2.15235546   1.97157639  -1.60288060
H    1.76966910   2.69074333  -2.33215097
H    3.01549982   1.45607906  -2.05234877
H    2.50250194   2.53213673  -0.72200213
O   -1.08348982  -1.08898006   1.30116035
H   -1.40795599  -0.44451242   0.65478086
C   -2.15237126  -1.97163155   1.60274382
H   -1.76968745  -2.69081078   2.33200340
H   -2.50243229  -2.53217058   0.72181783
H   -3.01557245  -1.45620514   2.05218420
O   -1.65752682   0.83574998  -0.66759002
H   -0.78266410   0.98284305  -1.05669427
C   -2.13202372   2.08473518  -0.19070174
H   -3.11816033   1.90084225   0.24427318
H   -2.24641721   2.83055510  -0.99285142
H   -1.48778114   2.51328198   0.59292858
