24
Energy:    -91.88716696
O   -0.36692635   0.04502937  -2.50901901
H    0.34930225   0.66561837  -2.30824759
C   -1.59428605   0.69919436  -2.22939406
H   -2.39019024  -0.01381649  -2.46099126
H   -1.74876875   1.59639785  -2.84902163
H   -1.69120998   0.98704967  -1.17084675
O   -0.57934638  -2.13971971  -0.65495910
H   -0.67462562  -1.53659431  -1.40701289
C    0.46815267  -3.04637173  -0.96034675
H    0.56199239  -3.71831834  -0.10292791
H    1.43666836  -2.54324587  -1.10738097
H    0.25528107  -3.65756523  -1.85136051
O    1.35492066   2.15581071   0.20791509
H    0.79109790   1.46832785   0.59248561
C    2.10702664   2.73516923   1.26205648
H    2.73648562   3.50728176   0.81138051
H    2.76481525   2.00865045   1.76431332
H    1.47229212   3.21397622   2.02404946
O   -0.35016378  -0.05863151   1.25585615
H   -0.41087800  -0.85290596   0.70461650
C   -0.99478369  -0.33950604   2.48797158
H   -0.91712242   0.56548154   3.09661878
H   -0.51676953  -1.16404396   3.03971158
H   -2.06296415  -0.57726822   2.36453339
