24
Energy:    -96.34682442
O   -1.68604233   1.39971359   1.13698082
H   -1.01050507   1.74265551   0.53327268
C   -2.91286144   1.34959391   0.42639186
H   -3.66260564   0.96118315   1.12101831
H   -2.87282846   0.67635871  -0.44419936
H   -3.24652929   2.34150943   0.08354102
O    0.58254102   1.53621060  -0.58013364
H    1.01463530   0.83816404  -1.09437950
C    1.59602552   2.39814177  -0.08773377
H    1.09198384   3.17839238   0.48901242
H    2.16858069   2.88474083  -0.89282957
H    2.30434762   1.88354778   0.58028581
O    1.55677193  -1.09252694  -1.52034755
H    0.96310086  -1.31600153  -0.78820204
C    1.79977793  -2.28116340  -2.25561976
H    2.47003343  -2.01143159  -3.07628261
H    0.88210595  -2.70737137  -2.69036363
H    2.29339167  -3.06012693  -1.65367407
O   -0.11105837  -1.14764845   0.82699510
H   -0.42790464  -0.23381675   0.77274249
C   -0.60572609  -1.70373902   2.03472060
H   -0.23950554  -2.73297794   2.07983107
H   -1.70605257  -1.73100942   2.07098780
H   -0.24167634  -1.17239835   2.92798551
