24
Energy:    -90.43143251
O   -1.86317084  -0.56236946   2.54507036
H   -2.35268974  -0.91963311   3.30081979
C   -0.65399982  -1.29531950   2.43007701
H   -0.11506702  -0.87999821   1.57418866
H   -0.82269285  -2.36685553   2.23999667
H   -0.01102342  -1.19706230   3.31873003
O    1.92285216   0.93917902   0.05628938
H    1.29767918   0.35035174  -0.39188964
C    3.22694915   0.60091783  -0.38805753
H    3.91849920   1.27359163   0.12648470
H    3.35667615   0.74216880  -1.47249121
H    3.50678760  -0.43406818  -0.13651881
O    0.05870525  -0.79754208  -1.28048280
H   -0.76747238  -0.38242486  -0.99146464
C   -0.06110572  -1.07547414  -2.66646003
H    0.87788551  -1.54267149  -2.97550260
H   -0.20557532  -0.16670080  -3.27146985
H   -0.88084020  -1.77595080  -2.89039121
O   -2.04817688   0.54417401  -0.04862993
H   -2.09148217   0.20364091   0.85723161
C   -1.65338405   1.90496568   0.02150155
H   -1.60962607   2.27279870  -1.00722063
H   -0.65780177   2.03614458   0.47359153
H   -2.37192597   2.52813757   0.57659762
