24
Energy:    -90.50542502
O   -0.77528639   1.45374034  -1.36638186
H   -1.37541146   0.73810891  -1.62356822
C   -1.32672208   2.08811128  -0.22356692
H   -0.63832775   2.89141146   0.05267076
H   -1.42003373   1.40744983   0.63711319
H   -2.31310509   2.53647573  -0.42053193
O   -2.29538930  -0.92086561  -1.83277779
H   -2.90272316  -1.44678085  -2.37405592
C   -1.46765029  -1.82233146  -1.11532310
H   -0.78985447  -1.21336804  -0.51097090
H   -0.85788382  -2.45782412  -1.77646701
H   -2.03821524  -2.47460630  -0.43578613
O    0.42665699  -0.03416567   2.10755903
H    0.90401492   0.02504803   1.26669851
C    0.65762391  -1.32720762   2.64349799
H    0.11288120  -1.37678525   3.59022004
H    1.72217133  -1.51725402   2.85182101
H    0.28228869  -2.13117414   1.99116475
O    1.56811462   0.15972508  -0.49997794
H    0.81264540   0.64097624  -0.86887747
C    2.68755020   1.03077531  -0.52584776
H    3.52944517   0.47290073  -0.10695157
H    2.53792907   1.93381498   0.08645135
H    2.95928127   1.34382516  -1.54611211
