24
Energy:    -90.63578375
O   -0.47428108  -0.00748812   2.18463602
H   -0.71581870   0.91403132   2.00889540
C    0.93379200  -0.05946231   2.34944698
H    1.18866354  -1.10428707   2.54659389
H    1.28482098   0.54410377   3.20107130
H    1.47954013   0.26084580   1.44814845
O   -0.99088304   2.63619147   1.25662996
H   -1.19356676   3.56856314   1.42403860
C   -0.88681856   2.46374613  -0.14763745
H   -0.65827563   1.40824892  -0.31845596
H   -0.07725415   3.06442326  -0.59099937
H   -1.82392561   2.69992697  -0.67567753
O   -0.72969922  -1.35392079  -0.28584373
H   -0.69897018  -0.93105844   0.58517087
C   -1.38565182  -2.60273849  -0.13513104
H   -1.41158542  -3.06550469  -1.12541388
H   -2.42279431  -2.49816751   0.22008396
H   -0.85204241  -3.28387216   0.54611434
O    1.76564066  -0.56656049  -1.33962952
H    0.90693683  -0.90654335  -1.04728956
C    1.68773370  -0.34659174  -2.73894293
H    2.66305781   0.03614926  -3.05157277
H    0.92506418   0.40008233  -3.01021840
H    1.48631702  -1.27011718  -3.30401763
