24
Energy:    -93.28718737
O    0.53847954  -1.40542892   0.72615804
H    1.19049847  -0.70256024   0.86497520
C    0.46890251  -2.16975349   1.91926356
H   -0.26991420  -2.95680406   1.74552107
H    0.13800437  -1.57618297   2.78584177
H    1.42669363  -2.65055129   2.17273344
O    2.27068487   0.78923682   1.15410606
H    3.16258949   1.16067396   1.08365138
C    1.35057305   1.86822617   1.11275410
H    0.35116816   1.43211268   1.19325319
H    1.40107834   2.43424101   0.16943351
H    1.48382664   2.57298404   1.94841980
O   -1.78725973  -0.07791599  -0.11442107
H   -1.05489240  -0.62682603   0.20300472
C   -2.71861947  -0.93299580  -0.75780380
H   -3.53686428  -0.29857463  -1.10918734
H   -3.14098668  -1.68973254  -0.07829457
H   -2.28897437  -1.45025311  -1.62994329
O   -0.48180755   1.81802824  -1.79448734
H   -1.04607328   1.26923522  -1.22981603
C    0.43876053   0.95891569  -2.44795027
H    1.06642849   1.59325899  -3.07971502
H   -0.05662757   0.21727893  -3.09397108
H    1.09433142   0.42338733  -1.74352603
