13
Energy:   -818.65813749
O    0.80132954   1.68072905   1.05062299
H    0.89709318   1.84340926   1.98902393
H    1.30399079   2.38027910   0.63325835
O   -1.73946473  -0.00320801  -0.69264788
H   -1.60830332   0.00966936  -1.64073158
H   -2.67751519  -0.15845687  -0.58223512
O    0.72109315  -0.30503505  -1.85895090
H    1.06792776  -1.09653302  -2.27061649
H    1.01729487   0.40875082  -2.42375718
O    0.06067344  -1.44236356   1.53031377
H    0.77621577  -1.54286206   2.15811236
H   -0.68659011  -1.87108273   1.94748151
Ca   0.17105366   0.15212502   0.16255320
