13
Energy:   -814.08160846
O    1.21203625  -1.59943293  -0.01894486
H    1.77040998  -2.19233235   0.48396756
H    1.24207571  -1.94155793  -0.91241000
O   -0.23204776   0.11074712  -2.14769727
H   -0.46744226  -0.55604409  -2.79284125
H   -0.02740146   0.88716979  -2.66877267
O   -1.20434391   1.48780407  -0.03294332
H   -1.50967430   2.23443704   0.48236669
H   -1.64961465   1.57942402  -0.87530406
O    0.22630625   0.03092424   2.33546107
H   -0.11701932   0.60560556   3.01963998
H    0.67110270  -0.67015071   2.81178227
Ca   0.09537059   0.00789735   0.27241427
