13
Energy:   -810.77189239
O    0.37325574   1.16725354  -1.61842157
H    1.12096631   1.35734012  -2.18501476
H   -0.38158825   1.51711187  -2.09175183
O    0.15322201  -1.38158763  -0.92501764
H    0.11024876  -2.25381565  -1.31694039
H    0.31079871  -0.79394061  -1.66398476
O    1.45962037  -0.21960713   1.83127520
H    1.71196390   0.25482310   2.62340559
H    2.20265515  -0.79489348   1.64913026
O   -1.97652322   0.32336864   0.96691794
H   -2.37409912   1.00925962   1.50331221
H   -2.71684523  -0.19815358   0.65680547
Ca   0.00123677   0.08259372   0.48636833
