13
Energy:   -817.69657806
O    0.15450836  -1.31526064  -1.98804168
H    0.09667550  -1.23477687  -2.94009712
H    0.64629009  -2.12391346  -1.84499204
O   -1.66626725   1.24875308  -0.31941581
H   -2.60843036   1.14560833  -0.18554390
H   -1.52301196   2.19493346  -0.29814452
O   -0.12505137  -1.09486706   1.37828602
H   -0.56498183  -1.55075417   2.09582346
H    0.67665451  -0.74825417   1.76989685
O    1.41559967   1.01114364   0.77859399
H    2.25014663   0.70439675   1.13309302
H    1.49341458   1.96515852   0.77291031
Ca  -0.14072179  -0.13551045  -0.30472573
