13
Energy:   -812.47029804
O    0.84453743  -1.49895378   0.96080535
H    0.66527196  -1.68866799   1.88173111
H    1.79763790  -1.42505671   0.91211693
O   -1.03023970  -1.01155274  -1.86296814
H   -1.80635199  -1.57175904  -1.85586315
H   -0.69753354  -1.07378534  -2.75832593
O    0.60273265   1.51606340  -0.97864675
H    0.24067902   2.33564425  -1.31544973
H    1.53403489   1.55794980  -1.19579538
O   -0.54171822   0.95781083   1.77675790
H   -0.24971195   1.66712173   2.34933298
H   -1.08794483   0.40652249   2.33706987
Ca  -0.22933210  -0.17070591  -0.21877394
