13
Energy:   -825.20170676
O    0.79857305   1.15279059   1.82938298
H    1.61740321   1.57991687   2.08100205
H    0.20355489   1.32589747   2.55891657
O   -1.82408882  -0.20783704   0.74706034
H   -2.42460765  -0.86248773   0.39063160
H   -2.33573783   0.24884135   1.41481178
O    1.33229551   0.76963030  -1.23343122
H    1.67456227   0.27340918  -1.97697000
H    1.32711679   1.67857419  -1.53347461
O   -0.18310609  -1.70840909  -1.22401001
H   -0.51203799  -1.47033765  -2.09081889
H   -0.05838848  -2.65648795  -1.26671648
Ca   0.35749830  -0.14311348   0.26918139
