13
Energy:   -817.16373626
O   -0.57670586   1.60589401   0.79950920
H   -0.94867710   2.01702853   1.57978969
H   -0.19360497   2.33090583   0.30572442
O    0.10220873  -1.16624190   1.54555598
H    0.25562727  -1.90020673   2.14052676
H   -0.05421690  -0.41846509   2.12226450
O    1.87103131  -0.12899212  -0.71842845
H    2.18414909   0.37576959  -1.46903135
H    2.58704552  -0.08578122  -0.08463960
O   -1.48692465  -0.74529594  -1.66639576
H   -2.18876118  -0.11242701  -1.81849524
H   -1.44025608  -1.25144831  -2.47748371
Ca  -0.06943638  -0.31968059  -0.26754818
