
                                 *****************
                                 * O   R   C   A *
                                 *****************

           --- An Ab Initio, DFT and Semiempirical electronic structure package ---

                  #######################################################
                  #                        -***-                        #
                  #          Department of theory and spectroscopy      #
                  #               Directorship: Frank Neese             #
                  #        Max Planck Institute fuer Kohlenforschung    #
                  #                Kaiser Wilhelm Platz 1               #
                  #                 D-45470 Muelheim/Ruhr               #
                  #                      Germany                        #
                  #                                                     #
                  #                  All rights reserved                #
                  #                        -***-                        #
                  #######################################################


                         Program Version 4.2.0 -  RELEASE  -


 With contributions from (in alphabetic order):
   Daniel Aravena         : Magnetic Suceptibility
   Michael Atanasov       : Ab Initio Ligand Field Theory (pilot matlab implementation)
   Alexander A. Auer      : GIAO ZORA, VPT2
   Ute Becker             : Parallelization
   Giovanni Bistoni       : ED, misc. LED, open-shell LED, HFLED
   Martin Brehm           : Molecular dynamics
   Dmytro Bykov           : SCF Hessian
   Vijay G. Chilkuri      : MRCI spin determinant printing, contributions to CSF-ICE
   Dipayan Datta          : RHF DLPNO-CCSD density
   Achintya Kumar Dutta   : EOM-CC, STEOM-CC
   Dmitry Ganyushin       : Spin-Orbit,Spin-Spin,Magnetic field MRCI
   Miquel Garcia          : C-PCM Hessian, Gaussian charge scheme
   Yang Guo               : DLPNO-NEVPT2, CIM, IAO-localization
   Andreas Hansen         : Spin unrestricted coupled pair/coupled cluster methods
   Benjamin Helmich-Paris : CASSCF linear response (MC-RPA)
   Lee Huntington         : MR-EOM, pCC
   Robert Izsak           : Overlap fitted RIJCOSX, COSX-SCS-MP3, EOM
   Christian Kollmar      : KDIIS, OOCD, Brueckner-CCSD(T), CCSD density
   Simone Kossmann        : Meta GGA functionals, TD-DFT gradient, OOMP2, MP2 Hessian
   Martin Krupicka        : AUTO-CI
   Lucas Lang             : DCDCAS
   Dagmar Lenk            : GEPOL surface, SMD
   Dimitrios Liakos       : Extrapolation schemes; Compound Job, initial MDCI parallelization
   Dimitrios Manganas     : Further ROCIS development; embedding schemes
   Dimitrios Pantazis     : SARC Basis sets
   Taras Petrenko         : DFT Hessian,TD-DFT gradient, ASA, ECA, R-Raman, ABS, FL, XAS/XES, NRVS
   Peter Pinski           : DLPNO-MP2, DLPNO-MP2 Gradient
   Christoph Reimann      : Effective Core Potentials
   Marius Retegan         : Local ZFS, SOC
   Christoph Riplinger    : Optimizer, TS searches, QM/MM, DLPNO-CCSD(T), (RO)-DLPNO pert. Triples
   Tobias Risthaus        : Range-separated hybrids, TD-DFT gradient, RPA, STAB
   Michael Roemelt        : Original ROCIS implementation
   Masaaki Saitow         : Open-shell DLPNO-CCSD energy and density
   Barbara Sandhoefer     : DKH picture change effects
   Avijit Sen             : IP-ROCIS
   Kantharuban Sivalingam : CASSCF convergence, NEVPT2, FIC-MRCI
   Bernardo de Souza      : ESD, SOC TD-DFT
   Georgi Stoychev        : AutoAux, RI-MP2 NMR
   Willem Van den Heuvel  : Paramagnetic NMR
   Boris Wezisla          : Elementary symmetry handling
   Frank Wennmohs         : Technical directorship


 We gratefully acknowledge several colleagues who have allowed us to
 interface, adapt or use parts of their codes:
   Stefan Grimme, W. Hujo, H. Kruse,             : VdW corrections, initial TS optimization,
                  C. Bannwarth                     DFT functionals, gCP, sTDA/sTD-DF
   Ed Valeev, F. Pavosevic, A. Kumar             : LibInt (2-el integral package), F12 methods
   Garnet Chan, S. Sharma, J. Yang, R. Olivares  : DMRG
   Ulf Ekstrom                                   : XCFun DFT Library
   Mihaly Kallay                                 : mrcc  (arbitrary order and MRCC methods)
   Andreas Klamt, Michael Diedenhofen            : otool_cosmo (COSMO solvation model)
   Jiri Pittner, Ondrej Demel                    : Mk-CCSD
   Frank Weinhold                                : gennbo (NPA and NBO analysis)
   Christopher J. Cramer and Donald G. Truhlar   : smd solvation model
   Lars Goerigk                                  : TD-DFT with DH, B97 family of functionals
   V. Asgeirsson, H. Jonsson                     : NEB implementation
   FAccTs GmbH                                   : IRC, NEB, NEB-TS, Multilevel, MM, QM/MM, CI optimization
   S Lehtola, MJT Oliveira, MAL Marques          : LibXC Library


 Your calculation uses the libint2 library for the computation of 2-el integrals
 For citations please refer to: http://libint.valeyev.net

 Your ORCA version has been built with support for libXC version: 4.2.3
 For citations please refer to: https://tddft.org/programs/libxc/

 This ORCA versions uses:
   CBLAS   interface :  Fast vector & matrix operations
   LAPACKE interface :  Fast linear algebra routines
   SCALAPACK package :  Parallel linear algebra routines


----- Orbital basis set information -----
Your calculation utilizes the basis: def2-TZVP
   F. Weigend and R. Ahlrichs, Phys. Chem. Chem. Phys. 7, 3297 (2005).

================================================================================
                                        WARNINGS
                       Please study these warnings very carefully!
================================================================================


WARNING: The frozen-core approximation for MP2-gradient calculations is turned on by default.

INFO   : the flag for use of LIBINT has been found!

================================================================================
                                       INPUT FILE
================================================================================
NAME = 12meoh.boyd.etal.mol2,5,8-orca.engrad-mp2.def2tzvp.frozencore.inp
|  1> # 12meoh.boyd.etal.mol2,5,8
|  2> ! MP2 def2-TZVP EnGrad TightSCF
|  3> 
|  4> %pal
|  5>     nprocs 6
|  6> end
|  7> 
|  8> %maxcore 8000
|  9> 
| 10> %scf
| 11>     ConvForced true
| 12> end
| 13> 
| 14> *xyz 0 1
| 15> O  -3.839777402   2.233595098   0.660436763
| 16> H  -2.958345897   1.907036203   0.973588449
| 17> C  -3.600368059   3.168790682  -0.390480452
| 18> H  -4.551709193   3.344148967  -0.901254863
| 19> H  -2.868237594   2.789240199  -1.113617525
| 20> H  -3.243594915   4.128998607   0.009549480
| 21> O  -0.662721750   1.449094618  -1.383082065
| 22> H   0.064188300   2.119867608  -1.465650660
| 23> C  -0.353319239   0.341218776  -2.229326771
| 24> H  -1.072358530  -0.454743281  -2.019906495
| 25> H   0.657636746  -0.044472139  -2.042736771
| 26> H  -0.434616607   0.624733901  -3.287793021
| 27> O   3.570084754   2.361662577  -0.202416728
| 28> H   3.393280933   1.755669977   0.560634073
| 29> C   4.368082883   1.644741793  -1.143112807
| 30> H   4.552851717   2.311801738  -1.989632421
| 31> H   3.862427494   0.740851663  -1.508095690
| 32> H   5.333949674   1.357289092  -0.706288100
| 33> *
| 34> 
| 35>                          ****END OF INPUT****
================================================================================

                     *******************************
                     * Energy+Gradient Calculation *
                     *******************************

---------------------------------
CARTESIAN COORDINATES (ANGSTROEM)
---------------------------------
  O     -3.839777    2.233595    0.660437
  H     -2.958346    1.907036    0.973588
  C     -3.600368    3.168791   -0.390480
  H     -4.551709    3.344149   -0.901255
  H     -2.868238    2.789240   -1.113618
  H     -3.243595    4.128999    0.009549
  O     -0.662722    1.449095   -1.383082
  H      0.064188    2.119868   -1.465651
  C     -0.353319    0.341219   -2.229327
  H     -1.072359   -0.454743   -2.019906
  H      0.657637   -0.044472   -2.042737
  H     -0.434617    0.624734   -3.287793
  O      3.570085    2.361663   -0.202417
  H      3.393281    1.755670    0.560634
  C      4.368083    1.644742   -1.143113
  H      4.552852    2.311802   -1.989632
  H      3.862427    0.740852   -1.508096
  H      5.333950    1.357289   -0.706288

----------------------------
CARTESIAN COORDINATES (A.U.)
----------------------------
  NO LB      ZA    FRAG     MASS         X           Y           Z
   0 O     8.0000    0    15.999   -7.256128    4.220883    1.248045
   1 H     1.0000    0     1.008   -5.590464    3.603776    1.839816
   2 C     6.0000    0    12.011   -6.803710    5.988147   -0.737901
   3 H     1.0000    0     1.008   -8.601484    6.319526   -1.703125
   4 H     1.0000    0     1.008   -5.420184    5.270900   -2.104432
   5 H     1.0000    0     1.008   -6.129506    7.802677    0.018046
   6 O     8.0000    0    15.999   -1.252363    2.738392   -2.613646
   7 H     1.0000    0     1.008    0.121298    4.005969   -2.769678
   8 C     6.0000    0    12.011   -0.667677    0.644810   -4.212817
   9 H     1.0000    0     1.008   -2.026464   -0.859340   -3.817070
  10 H     1.0000    0     1.008    1.242753   -0.084040   -3.860213
  11 H     1.0000    0     1.008   -0.821306    1.180576   -6.213028
  12 O     8.0000    0    15.999    6.746482    4.462895   -0.382512
  13 H     1.0000    0     1.008    6.412372    3.317735    1.059445
  14 C     6.0000    0    12.011    8.254480    3.108112   -2.160170
  15 H     1.0000    0     1.008    8.603643    4.368672   -3.759860
  16 H     1.0000    0     1.008    7.298930    1.400007   -2.849888
  17 H     1.0000    0     1.008   10.079704    2.564905   -1.334691

--------------------------------
INTERNAL COORDINATES (ANGSTROEM)
--------------------------------
 O      0   0   0     0.000000000000     0.00000000     0.00000000
 H      1   0   0     0.990770502364     0.00000000     0.00000000
 C      1   2   0     1.427001964481   107.42874151     0.00000000
 H      3   1   2     1.093933718418   107.63861717   166.29117132
 H      3   1   2     1.096813937399   111.76190604    46.44530864
 H      3   1   2     1.099686447133   111.02456630   284.51887035
 O      5   3   1     2.594783508258   144.54403804   321.46154785
 H      7   5   3     0.992548335239   106.38543063   261.72894882
 C      7   5   3     1.428022723045   130.26997604   128.78948617
 H      9   7   5     1.092899789636   107.99441671   303.70084032
 H      9   7   5     1.098000598188   111.79589191   184.40806659
 H      9   7   5     1.098790649094   110.77151416    62.86750755
 O      8   7   5     3.734372065041   134.68246317   141.12326512
 H     13   8   7     0.990319719728    93.06174477   335.47525652
 C     13   8   7     1.426774522293   105.63571040    84.58319348
 H     15  13   8     1.093482486887   107.36091639    80.97606597
 H     15  13   8     1.098142633914   112.03586382   321.55612637
 H     15  13   8     1.098336714270   111.16969712   199.62443658

---------------------------
INTERNAL COORDINATES (A.U.)
---------------------------
 O      0   0   0     0.000000000000     0.00000000     0.00000000
 H      1   0   0     1.872284911036     0.00000000     0.00000000
 C      1   2   0     2.696642905436   107.42874151     0.00000000
 H      3   1   2     2.067235136471   107.63861717   166.29117132
 H      3   1   2     2.072677961553   111.76190604    46.44530864
 H      3   1   2     2.078106218267   111.02456630   284.51887035
 O      5   3   1     4.903430207422   144.54403804   321.46154785
 H      7   5   3     1.875644528280   106.38543063   261.72894882
 C      7   5   3     2.698571859572   130.26997604   128.78948617
 H      9   7   5     2.065281294231   107.99441671   303.70084032
 H      9   7   5     2.074920425457   111.79589191   184.40806659
 H      9   7   5     2.076413405301   110.77151416    62.86750755
 O      8   7   5     7.056940485094   134.68246317   141.12326512
 H     13   8   7     1.871433055307    93.06174477   335.47525652
 C     13   8   7     2.696213101990   105.63571040    84.58319348
 H     15  13   8     2.066382432455   107.36091639    80.97606597
 H     15  13   8     2.075188834080   112.03586382   321.55612637
 H     15  13   8     2.075555592802   111.16969712   199.62443658

---------------------
BASIS SET INFORMATION
---------------------
There are 3 groups of distinct atoms

 Group   1 Type O   : 11s6p2d1f contracted to 5s3p2d1f pattern {62111/411/11/1}
 Group   2 Type H   : 5s1p contracted to 3s1p pattern {311/1}
 Group   3 Type C   : 11s6p2d1f contracted to 5s3p2d1f pattern {62111/411/11/1}

Atom   0O    basis set group =>   1
Atom   1H    basis set group =>   2
Atom   2C    basis set group =>   3
Atom   3H    basis set group =>   2
Atom   4H    basis set group =>   2
Atom   5H    basis set group =>   2
Atom   6O    basis set group =>   1
Atom   7H    basis set group =>   2
Atom   8C    basis set group =>   3
Atom   9H    basis set group =>   2
Atom  10H    basis set group =>   2
Atom  11H    basis set group =>   2
Atom  12O    basis set group =>   1
Atom  13H    basis set group =>   2
Atom  14C    basis set group =>   3
Atom  15H    basis set group =>   2
Atom  16H    basis set group =>   2
Atom  17H    basis set group =>   2


           ************************************************************
           *        Program running with 6 parallel MPI-processes     *
           *              working on a common directory               *
           ************************************************************
------------------------------------------------------------------------------
                           ORCA GTO INTEGRAL CALCULATION
------------------------------------------------------------------------------

                         BASIS SET STATISTICS AND STARTUP INFO

 # of primitive gaussian shells          ...  192
 # of primitive gaussian functions       ...  372
 # of contracted shells                  ...  114
 # of contracted basis functions         ...  258
 Highest angular momentum                ...    3
 Maximum contraction depth               ...    6
 Integral package used                   ... LIBINT
 Integral threshhold            Thresh   ...  2.500e-11
 Primitive cut-off              TCut     ...  2.500e-12


------------------------------ INTEGRAL EVALUATION ----------------------------


 * One electron integrals 
 Pre-screening matrix                    ... done
 Shell pair data                         ... done (   0.001 sec)



           ************************************************************
           *        Program running with 6 parallel MPI-processes     *
           *              working on a common directory               *
           ************************************************************
-------------------------------------------------------------------------------
                                 ORCA SCF
-------------------------------------------------------------------------------

------------
SCF SETTINGS
------------
Hamiltonian:
 Ab initio Hamiltonian  Method          .... Hartree-Fock(GTOs)


General Settings:
 Integral files         IntName         .... 12meoh.boyd.etal.mol2,5,8-orca.engrad-mp2.def2tzvp.frozencore
 Hartree-Fock type      HFTyp           .... RHF
 Total Charge           Charge          ....    0
 Multiplicity           Mult            ....    1
 Number of Electrons    NEL             ....   54
 Basis Dimension        Dim             ....  258
 Nuclear Repulsion      ENuc            ....    218.4062299071 Eh

Convergence Acceleration:
 DIIS                   CNVDIIS         .... on
   Start iteration      DIISMaxIt       ....    12
   Startup error        DIISStart       ....  0.200000
   # of expansion vecs  DIISMaxEq       ....     5
   Bias factor          DIISBfac        ....   1.050
   Max. coefficient     DIISMaxC        ....  10.000
 Newton-Raphson         CNVNR           .... off
 SOSCF                  CNVSOSCF        .... on
   Start iteration      SOSCFMaxIt      ....   150
   Startup grad/error   SOSCFStart      ....  0.003300
 Level Shifting         CNVShift        .... on
   Level shift para.    LevelShift      ....    0.2500
   Turn off err/grad.   ShiftErr        ....    0.0010
 Zerner damping         CNVZerner       .... off
 Static damping         CNVDamp         .... on
   Fraction old density DampFac         ....    0.7000
   Max. Damping (<1)    DampMax         ....    0.9800
   Min. Damping (>=0)   DampMin         ....    0.0000
   Turn off err/grad.   DampErr         ....    0.1000
 Fernandez-Rico         CNVRico         .... off

SCF Procedure:
 Maximum # iterations   MaxIter         ....   125
 SCF integral mode      SCFMode         .... Direct
   Integral package                     .... LIBINT
 Reset frequency        DirectResetFreq ....    20
 Integral Threshold     Thresh          ....  2.500e-11 Eh
 Primitive CutOff       TCut            ....  2.500e-12 Eh

Convergence Tolerance:
 Convergence Check Mode ConvCheckMode   .... Total+1el-Energy
 Convergence forced     ConvForced      .... 1
 Energy Change          TolE            ....  1.000e-08 Eh
 1-El. energy change                    ....  1.000e-05 Eh
 Orbital Gradient       TolG            ....  1.000e-05
 Orbital Rotation angle TolX            ....  1.000e-05
 DIIS Error             TolErr          ....  5.000e-07


Diagonalization of the overlap matrix:
Smallest eigenvalue                        ... 1.315e-03
Time for diagonalization                   ...    0.010 sec
Threshold for overlap eigenvalues          ... 1.000e-08
Number of eigenvalues below threshold      ... 0
Time for construction of square roots      ...    0.005 sec
Total time needed                          ...    0.015 sec

-------------------
DFT GRID GENERATION
-------------------

General Integration Accuracy     IntAcc      ...  4.340
Radial Grid Type                 RadialGrid  ... Gauss-Chebyshev
Angular Grid (max. acc.)         AngularGrid ... Lebedev-110
Angular grid pruning method      GridPruning ... 3 (G Style)
Weight generation scheme         WeightScheme... Becke
Basis function cutoff            BFCut       ...    1.0000e-11
Integration weight cutoff        WCut        ...    1.0000e-14
Grids for H and He will be reduced by one unit

# of grid points (after initial pruning)     ...  19644 (   0.0 sec)
# of grid points (after weights+screening)   ...  18639 (   0.0 sec)
nearest neighbour list constructed           ...    0.0 sec
Grid point re-assignment to atoms done       ...    0.0 sec
Grid point division into batches done        ...    0.0 sec
Reduced shell lists constructed in    0.0 sec

Total number of grid points                  ...    18639
Total number of batches                      ...      301
Average number of points per batch           ...       61
Average number of grid points per atom       ...     1036
Average number of shells per batch           ...    54.19 (47.54%)
Average number of basis functions per batch  ...   116.54 (45.17%)
Average number of large shells per batch     ...    39.65 (73.17%)
Average number of large basis fcns per batch ...    88.46 (75.91%)
Maximum spatial batch extension              ...  17.25, 19.49, 16.66 au
Average spatial batch extension              ...   0.56,  0.60,  0.53 au

Time for grid setup =    0.057 sec

------------------------------
INITIAL GUESS: MODEL POTENTIAL
------------------------------
Loading Hartree-Fock densities                     ... done
Calculating cut-offs                               ... done
Setting up the integral package                    ... done
Initializing the effective Hamiltonian             ... done
Starting the Coulomb interaction                   ... done (   0.0 sec)
Reading the grid                                   ... done
Mapping shells                                     ... done
Starting the XC term evaluation                    ... done (   0.0 sec)
Transforming the Hamiltonian                       ... done (   0.0 sec)
Diagonalizing the Hamiltonian                      ... done (   0.0 sec)
Back transforming the eigenvectors                 ... done (   0.0 sec)
Now organizing SCF variables                       ... done
                      ------------------
                      INITIAL GUESS DONE (   0.2 sec)
                      ------------------
--------------
SCF ITERATIONS
--------------
ITER       Energy         Delta-E        Max-DP      RMS-DP      [F,P]     Damp
               ***  Starting incremental Fock matrix formation  ***
  0   -344.9170644229   0.000000000000 0.03645867  0.00076779  0.2891165 0.7000
  1   -345.0460754164  -0.129010993437 0.02512590  0.00056914  0.2179252 0.7000
                               ***Turning on DIIS***
  2   -345.1205724904  -0.074497074006 0.01486056  0.00035043  0.1628090 0.7000
  3   -345.9867137623  -0.866141271897 0.00748618  0.00019443  0.1199532 0.7000
  4   -345.8357266902   0.150987072040 0.01631508  0.00046368  0.0845607 0.0000
  5   -345.3018564504   0.533870239877 0.00211655  0.00006271  0.0060835 0.0000
                      *** Initiating the SOSCF procedure ***
                           *** Shutting down DIIS ***
                      *** Re-Reading the Fockian *** 
                      *** Removing any level shift *** 
ITER      Energy       Delta-E        Grad      Rot      Max-DP    RMS-DP
  6   -345.27712934   0.0247271102  0.000547  0.000547  0.000914  0.000032
               *** Restarting incremental Fock matrix formation ***
  7   -345.27204950   0.0050798412  0.000334  0.000301  0.000482  0.000018
  8   -345.27205639  -0.0000068951  0.000127  0.000217  0.000369  0.000013
  9   -345.27205807  -0.0000016806  0.000026  0.000026  0.000082  0.000002
 10   -345.27205813  -0.0000000526  0.000005  0.000010  0.000019  0.000001
                 **** Energy Check signals convergence ****
              ***Rediagonalizing the Fockian in SOSCF/NRSCF***

               *****************************************************
               *                     SUCCESS                       *
               *           SCF CONVERGED AFTER  11 CYCLES          *
               *****************************************************


----------------
TOTAL SCF ENERGY
----------------

Total Energy       :         -345.27205813 Eh           -9395.33035 eV

Components:
Nuclear Repulsion  :          218.40622991 Eh            5943.13566 eV
Electronic Energy  :         -563.67828804 Eh          -15338.46601 eV
One Electron Energy:         -905.76980778 Eh          -24647.24951 eV
Two Electron Energy:          342.09151974 Eh            9308.78350 eV

Virial components:
Potential Energy   :         -689.89327768 Eh          -18772.95048 eV
Kinetic Energy     :          344.62121955 Eh            9377.62013 eV
Virial Ratio       :            2.00188856


---------------
SCF CONVERGENCE
---------------

  Last Energy change         ...   -4.5071e-09  Tolerance :   1.0000e-08
  Last MAX-Density change    ...    4.2692e-06  Tolerance :   1.0000e-07
  Last RMS-Density change    ...    1.2964e-07  Tolerance :   5.0000e-09
  Last Orbital Gradient      ...    1.3817e-06  Tolerance :   1.0000e-05
  Last Orbital Rotation      ...    3.8944e-06  Tolerance :   1.0000e-05

             **** THE GBW FILE WAS UPDATED (12meoh.boyd.etal.mol2,5,8-orca.engrad-mp2.def2tzvp.frozencore.gbw) ****
             **** DENSITY FILE WAS UPDATED (12meoh.boyd.etal.mol2,5,8-orca.engrad-mp2.def2tzvp.frozencore.scfp) ****
             **** ENERGY FILE WAS UPDATED (12meoh.boyd.etal.mol2,5,8-orca.engrad-mp2.def2tzvp.frozencore.en.tmp) ****
             **** THE GBW FILE WAS UPDATED (12meoh.boyd.etal.mol2,5,8-orca.engrad-mp2.def2tzvp.frozencore.gbw) ****
             **** DENSITY FILE WAS UPDATED (12meoh.boyd.etal.mol2,5,8-orca.engrad-mp2.def2tzvp.frozencore.scfp) ****
----------------
ORBITAL ENERGIES
----------------

  NO   OCC          E(Eh)            E(eV) 
   0   2.0000     -20.567908      -559.6812 
   1   2.0000     -20.564478      -559.5879 
   2   2.0000     -20.539225      -558.9007 
   3   2.0000     -11.281585      -306.9875 
   4   2.0000     -11.278230      -306.8962 
   5   2.0000     -11.251845      -306.1783 
   6   2.0000      -1.357260       -36.9329 
   7   2.0000      -1.352938       -36.8153 
   8   2.0000      -1.328448       -36.1489 
   9   2.0000      -0.929840       -25.3022 
  10   2.0000      -0.926701       -25.2168 
  11   2.0000      -0.901101       -24.5202 
  12   2.0000      -0.692149       -18.8343 
  13   2.0000      -0.688106       -18.7243 
  14   2.0000      -0.663450       -18.0534 
  15   2.0000      -0.627544       -17.0763 
  16   2.0000      -0.623537       -16.9673 
  17   2.0000      -0.602023       -16.3819 
  18   2.0000      -0.599847       -16.3227 
  19   2.0000      -0.594081       -16.1658 
  20   2.0000      -0.572260       -15.5720 
  21   2.0000      -0.511823       -13.9274 
  22   2.0000      -0.508441       -13.8354 
  23   2.0000      -0.483109       -13.1461 
  24   2.0000      -0.460281       -12.5249 
  25   2.0000      -0.456482       -12.4215 
  26   2.0000      -0.430691       -11.7197 
  27   0.0000       0.106672         2.9027 
  28   0.0000       0.144142         3.9223 
  29   0.0000       0.156323         4.2538 
  30   0.0000       0.171789         4.6746 
  31   0.0000       0.178697         4.8626 
  32   0.0000       0.191066         5.1992 
  33   0.0000       0.201963         5.4957 
  34   0.0000       0.221270         6.0211 
  35   0.0000       0.226699         6.1688 
  36   0.0000       0.234995         6.3945 
  37   0.0000       0.244212         6.6453 
  38   0.0000       0.250510         6.8167 
  39   0.0000       0.265208         7.2167 
  40   0.0000       0.277886         7.5617 
  41   0.0000       0.292321         7.9545 
  42   0.0000       0.311580         8.4785 
  43   0.0000       0.326597         8.8871 
  44   0.0000       0.341259         9.2861 
  45   0.0000       0.357809         9.7365 
  46   0.0000       0.373446        10.1620 
  47   0.0000       0.393404        10.7051 
  48   0.0000       0.453143        12.3306 
  49   0.0000       0.473725        12.8907 
  50   0.0000       0.491984        13.3876 
  51   0.0000       0.513083        13.9617 
  52   0.0000       0.533636        14.5210 
  53   0.0000       0.537666        14.6306 
  54   0.0000       0.557886        15.1808 
  55   0.0000       0.583395        15.8750 
  56   0.0000       0.594156        16.1678 
  57   0.0000       0.596931        16.2433 
  58   0.0000       0.605645        16.4804 
  59   0.0000       0.621745        16.9185 
  60   0.0000       0.629991        17.1429 
  61   0.0000       0.646673        17.5969 
  62   0.0000       0.653522        17.7832 
  63   0.0000       0.659949        17.9581 
  64   0.0000       0.676367        18.4049 
  65   0.0000       0.691249        18.8098 
  66   0.0000       0.691606        18.8196 
  67   0.0000       0.698876        19.0174 
  68   0.0000       0.719904        19.5896 
  69   0.0000       0.725435        19.7401 
  70   0.0000       0.751293        20.4437 
  71   0.0000       0.756733        20.5918 
  72   0.0000       0.770306        20.9611 
  73   0.0000       0.800867        21.7927 
  74   0.0000       0.801295        21.8043 
  75   0.0000       0.874791        23.8043 
  76   0.0000       0.883358        24.0374 
  77   0.0000       0.903767        24.5927 
  78   0.0000       0.915952        24.9243 
  79   0.0000       0.934574        25.4311 
  80   0.0000       0.939722        25.5711 
  81   0.0000       0.943479        25.6734 
  82   0.0000       0.962328        26.1863 
  83   0.0000       0.993885        27.0450 
  84   0.0000       1.084536        29.5117 
  85   0.0000       1.089133        29.6368 
  86   0.0000       1.106112        30.0988 
  87   0.0000       1.120846        30.4998 
  88   0.0000       1.126930        30.6653 
  89   0.0000       1.158479        31.5238 
  90   0.0000       1.233779        33.5728 
  91   0.0000       1.247418        33.9440 
  92   0.0000       1.273223        34.6462 
  93   0.0000       1.532625        41.7048 
  94   0.0000       1.542909        41.9847 
  95   0.0000       1.572171        42.7810 
  96   0.0000       1.651857        44.9493 
  97   0.0000       1.659644        45.1612 
  98   0.0000       1.684293        45.8319 
  99   0.0000       1.698985        46.2317 
 100   0.0000       1.712640        46.6033 
 101   0.0000       1.733102        47.1601 
 102   0.0000       1.764577        48.0166 
 103   0.0000       1.770895        48.1885 
 104   0.0000       1.780551        48.4513 
 105   0.0000       1.786691        48.6183 
 106   0.0000       1.788665        48.6720 
 107   0.0000       1.794122        48.8205 
 108   0.0000       1.797470        48.9116 
 109   0.0000       1.810075        49.2546 
 110   0.0000       1.830684        49.8154 
 111   0.0000       1.836447        49.9723 
 112   0.0000       1.852869        50.4191 
 113   0.0000       1.857938        50.5571 
 114   0.0000       1.872221        50.9457 
 115   0.0000       1.885463        51.3061 
 116   0.0000       1.891516        51.4708 
 117   0.0000       1.951564        53.1047 
 118   0.0000       1.979793        53.8729 
 119   0.0000       1.987285        54.0768 
 120   0.0000       2.130914        57.9851 
 121   0.0000       2.160225        58.7827 
 122   0.0000       2.167278        58.9746 
 123   0.0000       2.207657        60.0734 
 124   0.0000       2.215432        60.2850 
 125   0.0000       2.234711        60.8096 
 126   0.0000       2.245456        61.1020 
 127   0.0000       2.254140        61.3383 
 128   0.0000       2.273451        61.8637 
 129   0.0000       2.279015        62.0151 
 130   0.0000       2.294113        62.4260 
 131   0.0000       2.300561        62.6015 
 132   0.0000       2.307444        62.7888 
 133   0.0000       2.310255        62.8652 
 134   0.0000       2.334549        63.5263 
 135   0.0000       2.435524        66.2740 
 136   0.0000       2.447023        66.5869 
 137   0.0000       2.473848        67.3168 
 138   0.0000       2.534717        68.9731 
 139   0.0000       2.544816        69.2480 
 140   0.0000       2.551053        69.4177 
 141   0.0000       2.556047        69.5536 
 142   0.0000       2.566664        69.8425 
 143   0.0000       2.581694        70.2515 
 144   0.0000       2.595543        70.6283 
 145   0.0000       2.611280        71.0565 
 146   0.0000       2.621605        71.3375 
 147   0.0000       2.640333        71.8471 
 148   0.0000       2.646502        72.0150 
 149   0.0000       2.677166        72.8494 
 150   0.0000       2.693042        73.2814 
 151   0.0000       2.710518        73.7569 
 152   0.0000       2.726033        74.1791 
 153   0.0000       2.776467        75.5515 
 154   0.0000       2.786037        75.8119 
 155   0.0000       2.800795        76.2135 
 156   0.0000       2.831552        77.0505 
 157   0.0000       2.841280        77.3152 
 158   0.0000       2.873286        78.1861 
 159   0.0000       2.898223        78.8647 
 160   0.0000       2.898797        78.8803 
 161   0.0000       2.919906        79.4547 
 162   0.0000       3.035692        82.6054 
 163   0.0000       3.043061        82.8059 
 164   0.0000       3.060788        83.2883 
 165   0.0000       3.099950        84.3539 
 166   0.0000       3.105232        84.4977 
 167   0.0000       3.122864        84.9774 
 168   0.0000       3.129692        85.1633 
 169   0.0000       3.156096        85.8817 
 170   0.0000       3.192081        86.8609 
 171   0.0000       3.238572        88.1260 
 172   0.0000       3.252611        88.5080 
 173   0.0000       3.265238        88.8516 
 174   0.0000       3.348451        91.1160 
 175   0.0000       3.367018        91.6212 
 176   0.0000       3.383851        92.0793 
 177   0.0000       3.411474        92.8309 
 178   0.0000       3.423992        93.1716 
 179   0.0000       3.458646        94.1145 
 180   0.0000       3.530807        96.0781 
 181   0.0000       3.540296        96.3364 
 182   0.0000       3.565042        97.0097 
 183   0.0000       3.633614        98.8757 
 184   0.0000       3.636950        98.9664 
 185   0.0000       3.655449        99.4698 
 186   0.0000       3.665111        99.7327 
 187   0.0000       3.668604        99.8278 
 188   0.0000       3.683790       100.2410 
 189   0.0000       3.709135       100.9307 
 190   0.0000       3.721519       101.2677 
 191   0.0000       3.763987       102.4233 
 192   0.0000       3.851117       104.7942 
 193   0.0000       3.857775       104.9754 
 194   0.0000       3.877497       105.5121 
 195   0.0000       3.884727       105.7088 
 196   0.0000       3.889785       105.8464 
 197   0.0000       3.894539       105.9758 
 198   0.0000       3.898647       106.0876 
 199   0.0000       3.918501       106.6278 
 200   0.0000       3.921418       106.7072 
 201   0.0000       4.245939       115.5379 
 202   0.0000       4.250890       115.6726 
 203   0.0000       4.276041       116.3570 
 204   0.0000       4.486308       122.0787 
 205   0.0000       4.501077       122.4805 
 206   0.0000       4.527008       123.1862 
 207   0.0000       4.531972       123.3212 
 208   0.0000       4.539132       123.5161 
 209   0.0000       4.557793       124.0238 
 210   0.0000       4.708690       128.1300 
 211   0.0000       4.719763       128.4313 
 212   0.0000       4.740601       128.9983 
 213   0.0000       4.857750       132.1861 
 214   0.0000       4.876800       132.7045 
 215   0.0000       4.891255       133.0978 
 216   0.0000       5.682648       154.6327 
 217   0.0000       5.687006       154.7513 
 218   0.0000       5.712081       155.4336 
 219   0.0000       5.757311       156.6644 
 220   0.0000       5.761526       156.7791 
 221   0.0000       5.788556       157.5146 
 222   0.0000       5.868965       159.7027 
 223   0.0000       5.875253       159.8738 
 224   0.0000       5.899858       160.5433 
 225   0.0000       6.146756       167.2617 
 226   0.0000       6.155695       167.5050 
 227   0.0000       6.158050       167.5691 
 228   0.0000       6.161133       167.6529 
 229   0.0000       6.171824       167.9439 
 230   0.0000       6.186452       168.3419 
 231   0.0000       6.306817       171.6172 
 232   0.0000       6.313679       171.8039 
 233   0.0000       6.340820       172.5425 
 234   0.0000       6.660028       181.2286 
 235   0.0000       6.662081       181.2844 
 236   0.0000       6.683845       181.8767 
 237   0.0000       6.938713       188.8120 
 238   0.0000       6.942520       188.9156 
 239   0.0000       6.968196       189.6143 
 240   0.0000       7.143761       194.3916 
 241   0.0000       7.155653       194.7152 
 242   0.0000       7.177256       195.3031 
 243   0.0000       7.205684       196.0766 
 244   0.0000       7.214359       196.3127 
 245   0.0000       7.236058       196.9031 
 246   0.0000       7.447321       202.6519 
 247   0.0000       7.469731       203.2617 
 248   0.0000       7.475758       203.4257 
 249   0.0000       7.584500       206.3847 
 250   0.0000       7.596339       206.7069 
 251   0.0000       7.609082       207.0536 
 252   0.0000      23.343812       635.2174 
 253   0.0000      23.353830       635.4900 
 254   0.0000      23.377434       636.1323 
 255   0.0000      45.136086      1228.2153 
 256   0.0000      45.159552      1228.8539 
 257   0.0000      45.183301      1229.5001 

                    ********************************
                    * MULLIKEN POPULATION ANALYSIS *
                    ********************************

-----------------------
MULLIKEN ATOMIC CHARGES
-----------------------
   0 O :   -0.557671
   1 H :    0.333681
   2 C :   -0.080937
   3 H :    0.098894
   4 H :    0.116219
   5 H :    0.080404
   6 O :   -0.559442
   7 H :    0.340692
   8 C :   -0.071382
   9 H :    0.114395
  10 H :    0.088386
  11 H :    0.095722
  12 O :   -0.549599
  13 H :    0.332715
  14 C :   -0.080826
  15 H :    0.110862
  16 H :    0.088891
  17 H :    0.098996
Sum of atomic charges:   -0.0000000

--------------------------------
MULLIKEN REDUCED ORBITAL CHARGES
--------------------------------
  0 O s       :     3.804525  s :     3.804525
      pz      :     1.586281  p :     4.719016
      px      :     1.491339
      py      :     1.641396
      dz2     :     0.005432  d :     0.032402
      dxz     :     0.006248
      dyz     :     0.006908
      dx2y2   :     0.008292
      dxy     :     0.005522
      f0      :     0.000220  f :     0.001728
      f+1     :     0.000107
      f-1     :     0.000435
      f+2     :     0.000338
      f-2     :     0.000280
      f+3     :     0.000116
      f-3     :     0.000231
  1 H s       :     0.623377  s :     0.623377
      pz      :     0.012599  p :     0.042942
      px      :     0.016853
      py      :     0.013489
  2 C s       :     3.193969  s :     3.193969
      pz      :     0.837682  p :     2.762372
      px      :     1.052986
      py      :     0.871704
      dz2     :     0.024982  d :     0.115669
      dxz     :     0.032657
      dyz     :     0.018649
      dx2y2   :     0.021757
      dxy     :     0.017624
      f0      :     0.001653  f :     0.008927
      f+1     :     0.000449
      f-1     :     0.001765
      f+2     :     0.002064
      f-2     :     0.001834
      f+3     :     0.000742
      f-3     :     0.000420
  3 H s       :     0.880191  s :     0.880191
      pz      :     0.005567  p :     0.020915
      px      :     0.011992
      py      :     0.003356
  4 H s       :     0.863231  s :     0.863231
      pz      :     0.007742  p :     0.020550
      px      :     0.008702
      py      :     0.004107
  5 H s       :     0.899450  s :     0.899450
      pz      :     0.003864  p :     0.020146
      px      :     0.004524
      py      :     0.011757
  6 O s       :     3.805574  s :     3.805574
      pz      :     1.734694  p :     4.720158
      px      :     1.613082
      py      :     1.372381
      dz2     :     0.005394  d :     0.031990
      dxz     :     0.003601
      dyz     :     0.007498
      dx2y2   :     0.003422
      dxy     :     0.012075
      f0      :     0.000200  f :     0.001721
      f+1     :     0.000162
      f-1     :     0.000327
      f+2     :     0.000277
      f-2     :     0.000191
      f+3     :     0.000217
      f-3     :     0.000346
  7 H s       :     0.616432  s :     0.616432
      pz      :     0.011993  p :     0.042876
      px      :     0.015551
      py      :     0.015333
  8 C s       :     3.194113  s :     3.194113
      pz      :     0.903043  p :     2.754128
      px      :     1.029294
      py      :     0.821792
      dz2     :     0.039599  d :     0.114249
      dxz     :     0.006573
      dyz     :     0.018029
      dx2y2   :     0.017583
      dxy     :     0.032466
      f0      :     0.001284  f :     0.008892
      f+1     :     0.000394
      f-1     :     0.002543
      f+2     :     0.001046
      f-2     :     0.001263
      f+3     :     0.001205
      f-3     :     0.001157
  9 H s       :     0.864394  s :     0.864394
      pz      :     0.003399  p :     0.021210
      px      :     0.008429
      py      :     0.009383
 10 H s       :     0.891606  s :     0.891606
      pz      :     0.003154  p :     0.020009
      px      :     0.012676
      py      :     0.004179
 11 H s       :     0.883964  s :     0.883964
      pz      :     0.013821  p :     0.020313
      px      :     0.003438
      py      :     0.003054
 12 O s       :     3.806952  s :     3.806952
      pz      :     1.380439  p :     4.708381
      px      :     1.741519
      py      :     1.586424
      dz2     :     0.003030  d :     0.032545
      dxz     :     0.003920
      dyz     :     0.014893
      dx2y2   :     0.004502
      dxy     :     0.006200
      f0      :     0.000112  f :     0.001722
      f+1     :     0.000339
      f-1     :     0.000401
      f+2     :     0.000310
      f-2     :     0.000366
      f+3     :     0.000086
      f-3     :     0.000107
 13 H s       :     0.624203  s :     0.624203
      pz      :     0.016800  p :     0.043083
      px      :     0.013289
      py      :     0.012994
 14 C s       :     3.196477  s :     3.196477
      pz      :     0.892258  p :     2.760857
      px      :     0.917302
      py      :     0.951297
      dz2     :     0.025225  d :     0.114624
      dxz     :     0.018341
      dyz     :     0.029015
      dx2y2   :     0.022463
      dxy     :     0.019580
      f0      :     0.000939  f :     0.008867
      f+1     :     0.000972
      f-1     :     0.001405
      f+2     :     0.002074
      f-2     :     0.001735
      f+3     :     0.001029
      f-3     :     0.000715
 15 H s       :     0.867955  s :     0.867955
      pz      :     0.010292  p :     0.021183
      px      :     0.003588
      py      :     0.007302
 16 H s       :     0.891099  s :     0.891099
      pz      :     0.004248  p :     0.020009
      px      :     0.005035
      py      :     0.010726
 17 H s       :     0.880776  s :     0.880776
      pz      :     0.004206  p :     0.020228
      px      :     0.012167
      py      :     0.003854


                     *******************************
                     * LOEWDIN POPULATION ANALYSIS *
                     *******************************

----------------------
LOEWDIN ATOMIC CHARGES
----------------------
   0 O :   -0.135723
   1 H :    0.188175
   2 C :   -0.337257
   3 H :    0.096644
   4 H :    0.091631
   5 H :    0.085257
   6 O :   -0.131932
   7 H :    0.191436
   8 C :   -0.329613
   9 H :    0.102363
  10 H :    0.088112
  11 H :    0.090022
  12 O :   -0.132337
  13 H :    0.188378
  14 C :   -0.333761
  15 H :    0.101885
  16 H :    0.086425
  17 H :    0.090295

-------------------------------
LOEWDIN REDUCED ORBITAL CHARGES
-------------------------------
  0 O s       :     3.394479  s :     3.394479
      pz      :     1.571163  p :     4.669376
      px      :     1.489638
      py      :     1.608575
      dz2     :     0.013286  d :     0.067776
      dxz     :     0.014525
      dyz     :     0.014880
      dx2y2   :     0.012846
      dxy     :     0.012239
      f0      :     0.000614  f :     0.004093
      f+1     :     0.000397
      f-1     :     0.000839
      f+2     :     0.000755
      f-2     :     0.000566
      f+3     :     0.000370
      f-3     :     0.000553
  1 H s       :     0.665769  s :     0.665769
      pz      :     0.035385  p :     0.146056
      px      :     0.072828
      py      :     0.037842
  2 C s       :     2.862897  s :     2.862897
      pz      :     0.939496  p :     2.997685
      px      :     1.093509
      py      :     0.964681
      dz2     :     0.088786  d :     0.419810
      dxz     :     0.104462
      dyz     :     0.091696
      dx2y2   :     0.077741
      dxy     :     0.057125
      f0      :     0.013037  f :     0.056865
      f+1     :     0.003493
      f-1     :     0.012567
      f+2     :     0.008944
      f-2     :     0.009700
      f+3     :     0.004976
      f-3     :     0.004149
  3 H s       :     0.844989  s :     0.844989
      pz      :     0.015512  p :     0.058366
      px      :     0.032164
      py      :     0.010690
  4 H s       :     0.847062  s :     0.847062
      pz      :     0.022869  p :     0.061307
      px      :     0.025158
      py      :     0.013281
  5 H s       :     0.856705  s :     0.856705
      pz      :     0.012522  p :     0.058037
      px      :     0.014878
      py      :     0.030637
  6 O s       :     3.393782  s :     3.393782
      pz      :     1.698593  p :     4.666891
      px      :     1.585259
      py      :     1.383039
      dz2     :     0.013612  d :     0.067235
      dxz     :     0.005421
      dyz     :     0.015081
      dx2y2   :     0.008602
      dxy     :     0.024520
      f0      :     0.000347  f :     0.004024
      f+1     :     0.000349
      f-1     :     0.000808
      f+2     :     0.000613
      f-2     :     0.000609
      f+3     :     0.000430
      f-3     :     0.000869
  7 H s       :     0.662796  s :     0.662796
      pz      :     0.035589  p :     0.145768
      px      :     0.062082
      py      :     0.048098
  8 C s       :     2.862573  s :     2.862573
      pz      :     0.992064  p :     2.991052
      px      :     1.080133
      py      :     0.918855
      dz2     :     0.139426  d :     0.419282
      dxz     :     0.025089
      dyz     :     0.083359
      dx2y2   :     0.057995
      dxy     :     0.113413
      f0      :     0.004807  f :     0.056707
      f+1     :     0.003228
      f-1     :     0.014972
      f+2     :     0.009993
      f-2     :     0.010692
      f+3     :     0.007208
      f-3     :     0.005807
  9 H s       :     0.838512  s :     0.838512
      pz      :     0.011388  p :     0.059126
      px      :     0.023859
      py      :     0.023879
 10 H s       :     0.853303  s :     0.853303
      pz      :     0.011062  p :     0.058585
      px      :     0.034170
      py      :     0.013353
 11 H s       :     0.851384  s :     0.851384
      pz      :     0.035878  p :     0.058594
      px      :     0.012087
      py      :     0.010628
 12 O s       :     3.395439  s :     3.395439
      pz      :     1.380297  p :     4.664638
      px      :     1.689577
      py      :     1.594764
      dz2     :     0.012649  d :     0.068163
      dxz     :     0.011129
      dyz     :     0.025434
      dx2y2   :     0.008318
      dxy     :     0.010633
      f0      :     0.000327  f :     0.004098
      f+1     :     0.000611
      f-1     :     0.000955
      f+2     :     0.000955
      f-2     :     0.000622
      f+3     :     0.000297
      f-3     :     0.000330
 13 H s       :     0.665632  s :     0.665632
      pz      :     0.055925  p :     0.145991
      px      :     0.036871
      py      :     0.053195
 14 C s       :     2.863136  s :     2.863136
      pz      :     0.965894  p :     2.992974
      px      :     0.998148
      py      :     1.028933
      dz2     :     0.076746  d :     0.420785
      dxz     :     0.073806
      dyz     :     0.111460
      dx2y2   :     0.080641
      dxy     :     0.078132
      f0      :     0.008827  f :     0.056866
      f+1     :     0.007013
      f-1     :     0.008483
      f+2     :     0.011035
      f-2     :     0.009853
      f+3     :     0.006837
      f-3     :     0.004818
 15 H s       :     0.839243  s :     0.839243
      pz      :     0.026326  p :     0.058872
      px      :     0.011446
      py      :     0.021101
 16 H s       :     0.854983  s :     0.854983
      pz      :     0.013760  p :     0.058592
      px      :     0.015668
      py      :     0.029164
 17 H s       :     0.850972  s :     0.850972
      pz      :     0.013718  p :     0.058733
      px      :     0.032298
      py      :     0.012718


                      *****************************
                      * MAYER POPULATION ANALYSIS *
                      *****************************

  NA   - Mulliken gross atomic population
  ZA   - Total nuclear charge
  QA   - Mulliken gross atomic charge
  VA   - Mayer's total valence
  BVA  - Mayer's bonded valence
  FA   - Mayer's free valence

  ATOM       NA         ZA         QA         VA         BVA        FA
  0 O      8.5577     8.0000    -0.5577     1.7846     1.7846     0.0000
  1 H      0.6663     1.0000     0.3337     0.8985     0.8985     0.0000
  2 C      6.0809     6.0000    -0.0809     3.8808     3.8808    -0.0000
  3 H      0.9011     1.0000     0.0989     0.9613     0.9613    -0.0000
  4 H      0.8838     1.0000     0.1162     0.9697     0.9697     0.0000
  5 H      0.9196     1.0000     0.0804     0.9615     0.9615    -0.0000
  6 O      8.5594     8.0000    -0.5594     1.7837     1.7837    -0.0000
  7 H      0.6593     1.0000     0.3407     0.8930     0.8930     0.0000
  8 C      6.0714     6.0000    -0.0714     3.8885     3.8885     0.0000
  9 H      0.8856     1.0000     0.1144     0.9635     0.9635    -0.0000
 10 H      0.9116     1.0000     0.0884     0.9593     0.9593    -0.0000
 11 H      0.9043     1.0000     0.0957     0.9632     0.9632     0.0000
 12 O      8.5496     8.0000    -0.5496     1.7909     1.7909     0.0000
 13 H      0.6673     1.0000     0.3327     0.8966     0.8966     0.0000
 14 C      6.0808     6.0000    -0.0808     3.8946     3.8946    -0.0000
 15 H      0.8891     1.0000     0.1109     0.9625     0.9625    -0.0000
 16 H      0.9111     1.0000     0.0889     0.9570     0.9570    -0.0000
 17 H      0.9010     1.0000     0.0990     0.9638     0.9638    -0.0000

  Mayer bond orders larger than 0.100000
B(  0-O ,  1-H ) :   0.8857 B(  0-O ,  2-C ) :   0.9286 B(  2-C ,  3-H ) :   0.9851 
B(  2-C ,  4-H ) :   0.9823 B(  2-C ,  5-H ) :   0.9897 B(  6-O ,  7-H ) :   0.8782 
B(  6-O ,  8-C ) :   0.9224 B(  8-C ,  9-H ) :   0.9846 B(  8-C , 10-H ) :   0.9840 
B(  8-C , 11-H ) :   0.9894 B( 12-O , 13-H ) :   0.8861 B( 12-O , 14-C ) :   0.9293 
B( 14-C , 15-H ) :   0.9832 B( 14-C , 16-H ) :   0.9854 B( 14-C , 17-H ) :   0.9891 


-------
TIMINGS
-------

Total SCF time: 0 days 0 hours 0 min 12 sec 

Total time                  ....      12.136 sec
Sum of individual times     ....      11.890 sec  ( 98.0%)

Fock matrix formation       ....      11.535 sec  ( 95.0%)
Diagonalization             ....       0.074 sec  (  0.6%)
Density matrix formation    ....       0.009 sec  (  0.1%)
Population analysis         ....       0.016 sec  (  0.1%)
Initial guess               ....       0.141 sec  (  1.2%)
Orbital Transformation      ....       0.000 sec  (  0.0%)
Orbital Orthonormalization  ....       0.000 sec  (  0.0%)
DIIS solution               ....       0.026 sec  (  0.2%)
SOSCF solution              ....       0.031 sec  (  0.3%)


           ************************************************************
           *        Program running with 6 parallel MPI-processes     *
           *              working on a common directory               *
           ************************************************************

------------------------------------------------------------------------------
                                ORCA  MP2 
------------------------------------------------------------------------------

Freezing NCore=12 chemical core electrons
MP2 will be done in the AO integral direct mode
The Q1-step will be done using symmetric double matrices
Dimension of the basis                    ...  258
Memory devoted for MP2                    ... 8000 MB   
Memory needed for all in one shot         ...  264 MB
Number of MOs that can be treated together...  120      
MP2 density construction                  ... relaxed
The MP2 gradient is requested => amplitudes will be stored on disk
Total number of MOs              ...   21
Number of MOs treated per batch  ...    4 
Number of batches necessary      ...    1 
OPERATORS   0/  0 PASS   0
-----------------------------------------------
 MP2 CORRELATION ENERGY   :     -1.253326106 Eh
-----------------------------------------------


---------------------
MP2 DENSITY FORMATION
---------------------

Completing the external part of the density      ... done
Storing the unrelaxed density                    ... done

Calculating G(D)                                 ... done
Completing the Lagrangian                        ... done
Solving the Z-vector equations                   ... 

------------------------------------------------------------------------------
                           ORCA CP-SCF CALCULATION
------------------------------------------------------------------------------

Input orbitals are from        ... 12meoh.boyd.etal.mol2,5,8-orca.engrad-mp2.def2tzvp.frozencore.gbw
Input Perturbation             ... 12meoh.boyd.etal.mol2,5,8-orca.engrad-mp2.def2tzvp.frozencore.pin.tmp
Wavefunction output            ... 12meoh.boyd.etal.mol2,5,8-orca.engrad-mp2.def2tzvp.frozencore.pout.tmp
Perturbation mode              ... Real perturbation (singlet)
Solver                         ... POPLE
Max. number of iterations      ... 128
Convergence tolerance          ... 1.000e-08
Integral handling              ... Direct
Number of perturbations        ... 1
Number of operators            ... 1
Orbital ranges used for CP-SCF:
 Operator 0:  Orbitals   0... 26  to  27...257
Variables per vector in CP-SCF ... 6237
Number of vectors sought       ... 1
     CP-SCF ITERATION   0: 
     CP-SCF ITERATION   1:      0.000361164344
     CP-SCF ITERATION   2:      0.000019066470
     CP-SCF ITERATION   3:      0.000003121296
     CP-SCF ITERATION   4:      0.000000162091
     CP-SCF ITERATION   5:      0.000000004977
                                                 ... done
Finalizing the relaxed density                   ... done
Transforming P to the AO basis                   ... done
Storing the relaxed density                      ... done

------------------------------------
ENERGY WEIGHTED DENSITY FINALIZATION
------------------------------------

Gathering the parts of the W-matrix              ...                                                      done
Forming the Z-density                            ... done
Transforming Z to the AO basis                   ... done
Calculating G(Z)                                 ... done
Finalizing the W-matrix                          ...                                                      done
Transforming W to the AO basis and storing       ... done

                *********************************************
                * UNRELAXED MP2 DENSITY POPULATION ANALYSIS *
                *********************************************

------------------------------------------------------------------------------
                           ORCA POPULATION ANALYSIS
------------------------------------------------------------------------------
Input electron density              ... 12meoh.boyd.etal.mol2,5,8-orca.engrad-mp2.def2tzvp.frozencore.pmp2ur
BaseName (.gbw .S,...)              ... 12meoh.boyd.etal.mol2,5,8-orca.engrad-mp2.def2tzvp.frozencore

                    ********************************
                    * MULLIKEN POPULATION ANALYSIS *
                    ********************************

-----------------------
MULLIKEN ATOMIC CHARGES
-----------------------
   0 O :   -0.546532
   1 H :    0.330936
   2 C :   -0.096641
   3 H :    0.101729
   4 H :    0.117953
   5 H :    0.082917
   6 O :   -0.548272
   7 H :    0.337956
   8 C :   -0.087191
   9 H :    0.117134
  10 H :    0.090746
  11 H :    0.098159
  12 O :   -0.538494
  13 H :    0.330069
  14 C :   -0.096776
  15 H :    0.113634
  16 H :    0.091251
  17 H :    0.101420
Sum of atomic charges:   -0.0000000

--------------------------------
MULLIKEN REDUCED ORBITAL CHARGES
--------------------------------
  0 O s       :     3.799279  s :     3.799279
      pz      :     1.573995  p :     4.683165
      px      :     1.480274
      py      :     1.628896
      dz2     :     0.011020  d :     0.059704
      dxz     :     0.011702
      dyz     :     0.012350
      dx2y2   :     0.013611
      dxy     :     0.011020
      f0      :     0.000601  f :     0.004384
      f+1     :     0.000491
      f-1     :     0.000808
      f+2     :     0.000716
      f-2     :     0.000659
      f+3     :     0.000499
      f-3     :     0.000609
  1 H s       :     0.624416  s :     0.624416
      pz      :     0.013366  p :     0.044648
      px      :     0.017033
      py      :     0.014249
  2 C s       :     3.191952  s :     3.191952
      pz      :     0.837262  p :     2.755979
      px      :     1.048147
      py      :     0.870570
      dz2     :     0.029722  d :     0.136452
      dxz     :     0.036545
      dyz     :     0.021705
      dx2y2   :     0.026003
      dxy     :     0.022478
      f0      :     0.002117  f :     0.012258
      f+1     :     0.000994
      f-1     :     0.002190
      f+2     :     0.002474
      f-2     :     0.002311
      f+3     :     0.001235
      f-3     :     0.000937
  3 H s       :     0.874221  s :     0.874221
      pz      :     0.006661  p :     0.024050
      px      :     0.012890
      py      :     0.004499
  4 H s       :     0.858411  s :     0.858411
      pz      :     0.008737  p :     0.023636
      px      :     0.009689
      py      :     0.005211
  5 H s       :     0.893695  s :     0.893695
      pz      :     0.004998  p :     0.023388
      px      :     0.005668
      py      :     0.012722
  6 O s       :     3.800457  s :     3.800457
      pz      :     1.721057  p :     4.683984
      px      :     1.600807
      py      :     1.362120
      dz2     :     0.010988  d :     0.059455
      dxz     :     0.009151
      dyz     :     0.012947
      dx2y2   :     0.009014
      dxy     :     0.017354
      f0      :     0.000577  f :     0.004377
      f+1     :     0.000536
      f-1     :     0.000709
      f+2     :     0.000650
      f-2     :     0.000580
      f+3     :     0.000600
      f-3     :     0.000725
  7 H s       :     0.617513  s :     0.617513
      pz      :     0.012903  p :     0.044531
      px      :     0.015968
      py      :     0.015659
  8 C s       :     3.192127  s :     3.192127
      pz      :     0.901142  p :     2.747977
      px      :     1.024841
      py      :     0.821994
      dz2     :     0.043222  d :     0.134877
      dxz     :     0.011817
      dyz     :     0.021501
      dx2y2   :     0.021840
      dxy     :     0.036497
      f0      :     0.001770  f :     0.012211
      f+1     :     0.000903
      f-1     :     0.003010
      f+2     :     0.001450
      f-2     :     0.001739
      f+3     :     0.001707
      f-3     :     0.001632
  9 H s       :     0.858590  s :     0.858590
      pz      :     0.004511  p :     0.024276
      px      :     0.009401
      py      :     0.010364
 10 H s       :     0.886055  s :     0.886055
      pz      :     0.004312  p :     0.023199
      px      :     0.013586
      py      :     0.005301
 11 H s       :     0.878351  s :     0.878351
      pz      :     0.014700  p :     0.023489
      px      :     0.004590
      py      :     0.004199
 12 O s       :     3.801728  s :     3.801728
      pz      :     1.370639  p :     4.672582
      px      :     1.728284
      py      :     1.573659
      dz2     :     0.008665  d :     0.059806
      dxz     :     0.009521
      dyz     :     0.019943
      dx2y2   :     0.010021
      dxy     :     0.011657
      f0      :     0.000491  f :     0.004377
      f+1     :     0.000706
      f-1     :     0.000782
      f+2     :     0.000696
      f-2     :     0.000747
      f+3     :     0.000467
      f-3     :     0.000488
 13 H s       :     0.625136  s :     0.625136
      pz      :     0.017018  p :     0.044795
      px      :     0.014160
      py      :     0.013616
 14 C s       :     3.194558  s :     3.194558
      pz      :     0.891158  p :     2.754733
      px      :     0.915276
      py      :     0.948299
      dz2     :     0.029955  d :     0.135289
      dxz     :     0.022126
      dyz     :     0.032632
      dx2y2   :     0.026928
      dxy     :     0.023648
      f0      :     0.001424  f :     0.012196
      f+1     :     0.001477
      f-1     :     0.001863
      f+2     :     0.002555
      f-2     :     0.002144
      f+3     :     0.001499
      f-3     :     0.001233
 15 H s       :     0.862106  s :     0.862106
      pz      :     0.011254  p :     0.024259
      px      :     0.004710
      py      :     0.008295
 16 H s       :     0.885535  s :     0.885535
      pz      :     0.005374  p :     0.023214
      px      :     0.006140
      py      :     0.011699
 17 H s       :     0.875185  s :     0.875185
      pz      :     0.005321  p :     0.023395
      px      :     0.013077
      py      :     0.004997


                     *******************************
                     * LOEWDIN POPULATION ANALYSIS *
                     *******************************

----------------------
LOEWDIN ATOMIC CHARGES
----------------------
   0 O :   -0.127926
   1 H :    0.186318
   2 C :   -0.348065
   3 H :    0.098365
   4 H :    0.092926
   5 H :    0.086691
   6 O :   -0.123743
   7 H :    0.189564
   8 C :   -0.340306
   9 H :    0.104135
  10 H :    0.089576
  11 H :    0.091504
  12 O :   -0.124460
  13 H :    0.186595
  14 C :   -0.344474
  15 H :    0.103653
  16 H :    0.087865
  17 H :    0.091783

-------------------------------
LOEWDIN REDUCED ORBITAL CHARGES
-------------------------------
  0 O s       :     3.391024  s :     3.391024
      pz      :     1.558661  p :     4.633413
      px      :     1.478688
      py      :     1.596065
      dz2     :     0.018932  d :     0.096490
      dxz     :     0.019984
      dyz     :     0.021238
      dx2y2   :     0.018577
      dxy     :     0.017759
      f0      :     0.001020  f :     0.006999
      f+1     :     0.000796
      f-1     :     0.001274
      f+2     :     0.001187
      f-2     :     0.000984
      f+3     :     0.000770
      f-3     :     0.000967
  1 H s       :     0.664101  s :     0.664101
      pz      :     0.036287  p :     0.149581
      px      :     0.074551
      py      :     0.038743
  2 C s       :     2.861778  s :     2.861778
      pz      :     0.936151  p :     2.983789
      px      :     1.086851
      py      :     0.960786
      dz2     :     0.092811  d :     0.440753
      dxz     :     0.108446
      dyz     :     0.095538
      dx2y2   :     0.082274
      dxy     :     0.061685
      f0      :     0.013532  f :     0.061746
      f+1     :     0.004185
      f-1     :     0.013314
      f+2     :     0.009866
      f-2     :     0.010424
      f+3     :     0.005642
      f-3     :     0.004782
  3 H s       :     0.838173  s :     0.838173
      pz      :     0.017120  p :     0.063462
      px      :     0.034324
      py      :     0.012018
  4 H s       :     0.840662  s :     0.840662
      pz      :     0.024771  p :     0.066412
      px      :     0.026951
      py      :     0.014691
  5 H s       :     0.849966  s :     0.849966
      pz      :     0.013989  p :     0.063343
      px      :     0.016290
      py      :     0.033064
  6 O s       :     3.390334  s :     3.390334
      pz      :     1.685103  p :     4.630355
      px      :     1.573077
      py      :     1.372175
      dz2     :     0.019294  d :     0.096121
      dxz     :     0.011057
      dyz     :     0.021238
      dx2y2   :     0.014203
      dxy     :     0.030329
      f0      :     0.000750  f :     0.006932
      f+1     :     0.000743
      f-1     :     0.001234
      f+2     :     0.001031
      f-2     :     0.001025
      f+3     :     0.000854
      f-3     :     0.001295
  7 H s       :     0.661195  s :     0.661195
      pz      :     0.036459  p :     0.149241
      px      :     0.063526
      py      :     0.049256
  8 C s       :     2.861425  s :     2.861425
      pz      :     0.987618  p :     2.977222
      px      :     1.073731
      py      :     0.915873
      dz2     :     0.142993  d :     0.440087
      dxz     :     0.030033
      dyz     :     0.087393
      dx2y2   :     0.062261
      dxy     :     0.117406
      f0      :     0.005681  f :     0.061572
      f+1     :     0.003883
      f-1     :     0.015618
      f+2     :     0.010624
      f-2     :     0.011269
      f+3     :     0.007930
      f-3     :     0.006567
  9 H s       :     0.831755  s :     0.831755
      pz      :     0.012672  p :     0.064111
      px      :     0.025573
      py      :     0.025865
 10 H s       :     0.846584  s :     0.846584
      pz      :     0.012381  p :     0.063841
      px      :     0.036572
      py      :     0.014887
 11 H s       :     0.844688  s :     0.844688
      pz      :     0.038448  p :     0.063808
      px      :     0.013339
      py      :     0.012021
 12 O s       :     3.391977  s :     3.391977
      pz      :     1.370032  p :     4.628645
      px      :     1.676546
      py      :     1.582067
      dz2     :     0.018090  d :     0.096833
      dxz     :     0.017131
      dyz     :     0.031356
      dx2y2   :     0.013886
      dxy     :     0.016370
      f0      :     0.000726  f :     0.007004
      f+1     :     0.001013
      f-1     :     0.001403
      f+2     :     0.001373
      f-2     :     0.001078
      f+3     :     0.000689
      f-3     :     0.000723
 13 H s       :     0.663875  s :     0.663875
      pz      :     0.057261  p :     0.149531
      px      :     0.037728
      py      :     0.054542
 14 C s       :     2.861990  s :     2.861990
      pz      :     0.961949  p :     2.979166
      px      :     0.993618
      py      :     1.023598
      dz2     :     0.080705  d :     0.441577
      dxz     :     0.077889
      dyz     :     0.115632
      dx2y2   :     0.084895
      dxy     :     0.082456
      f0      :     0.009441  f :     0.061741
      f+1     :     0.007642
      f-1     :     0.009206
      f+2     :     0.011663
      f-2     :     0.010798
      f+3     :     0.007510
      f-3     :     0.005481
 15 H s       :     0.832474  s :     0.832474
      pz      :     0.028378  p :     0.063873
      px      :     0.012745
      py      :     0.022750
 16 H s       :     0.848288  s :     0.848288
      pz      :     0.015243  p :     0.063847
      px      :     0.017205
      py      :     0.031400
 17 H s       :     0.844279  s :     0.844279
      pz      :     0.015196  p :     0.063938
      px      :     0.034631
      py      :     0.014111


                      *****************************
                      * MAYER POPULATION ANALYSIS *
                      *****************************

  NA   - Mulliken gross atomic population
  ZA   - Total nuclear charge
  QA   - Mulliken gross atomic charge
  VA   - Mayer's total valence
  BVA  - Mayer's bonded valence
  FA   - Mayer's free valence

  ATOM       NA         ZA         QA         VA         BVA        FA
  0 O      8.5465     8.0000    -0.5465     2.0852     1.6795     0.4057
  1 H      0.6691     1.0000     0.3309     0.9051     0.8527     0.0524
  2 C      6.0966     6.0000    -0.0966     3.9863     3.7074     0.2789
  3 H      0.8983     1.0000     0.1017     0.9706     0.9231     0.0475
  4 H      0.8820     1.0000     0.1180     0.9796     0.9306     0.0490
  5 H      0.9171     1.0000     0.0829     0.9717     0.9219     0.0498
  6 O      8.5483     8.0000    -0.5483     2.0856     1.6781     0.4075
  7 H      0.6620     1.0000     0.3380     0.8995     0.8474     0.0520
  8 C      6.0872     6.0000    -0.0872     3.9932     3.7149     0.2783
  9 H      0.8829     1.0000     0.1171     0.9722     0.9256     0.0466
 10 H      0.9093     1.0000     0.0907     0.9696     0.9200     0.0496
 11 H      0.9018     1.0000     0.0982     0.9729     0.9240     0.0489
 12 O      8.5385     8.0000    -0.5385     2.0904     1.6850     0.4054
 13 H      0.6699     1.0000     0.3301     0.9030     0.8506     0.0524
 14 C      6.0968     6.0000    -0.0968     3.9999     3.7210     0.2789
 15 H      0.8864     1.0000     0.1136     0.9713     0.9246     0.0468
 16 H      0.9087     1.0000     0.0913     0.9673     0.9178     0.0495
 17 H      0.8986     1.0000     0.1014     0.9734     0.9247     0.0486

  Mayer bond orders larger than 0.100000
B(  0-O ,  1-H ) :   0.8408 B(  0-O ,  2-C ) :   0.8697 B(  2-C ,  3-H ) :   0.9474 
B(  2-C ,  4-H ) :   0.9445 B(  2-C ,  5-H ) :   0.9511 B(  6-O ,  7-H ) :   0.8337 
B(  6-O ,  8-C ) :   0.8633 B(  8-C ,  9-H ) :   0.9473 B(  8-C , 10-H ) :   0.9457 
B(  8-C , 11-H ) :   0.9512 B( 12-O , 13-H ) :   0.8411 B( 12-O , 14-C ) :   0.8701 
B( 14-C , 15-H ) :   0.9459 B( 14-C , 16-H ) :   0.9471 B( 14-C , 17-H ) :   0.9511 



                *******************************************
                * RELAXED MP2 DENSITY POPULATION ANALYSIS *
                *******************************************

------------------------------------------------------------------------------
                           ORCA POPULATION ANALYSIS
------------------------------------------------------------------------------
Input electron density              ... 12meoh.boyd.etal.mol2,5,8-orca.engrad-mp2.def2tzvp.frozencore.pmp2re
BaseName (.gbw .S,...)              ... 12meoh.boyd.etal.mol2,5,8-orca.engrad-mp2.def2tzvp.frozencore

                    ********************************
                    * MULLIKEN POPULATION ANALYSIS *
                    ********************************

-----------------------
MULLIKEN ATOMIC CHARGES
-----------------------
   0 O :   -0.507949
   1 H :    0.324339
   2 C :   -0.177440
   3 H :    0.119868
   4 H :    0.127894
   5 H :    0.099677
   6 O :   -0.507216
   7 H :    0.331480
   8 C :   -0.168853
   9 H :    0.134730
  10 H :    0.107221
  11 H :    0.114384
  12 O :   -0.500757
  13 H :    0.324815
  14 C :   -0.178726
  15 H :    0.131727
  16 H :    0.107525
  17 H :    0.117281
Sum of atomic charges:   -0.0000000

--------------------------------
MULLIKEN REDUCED ORBITAL CHARGES
--------------------------------
  0 O s       :     3.800494  s :     3.800494
      pz      :     1.564733  p :     4.645511
      px      :     1.462617
      py      :     1.618161
      dz2     :     0.010855  d :     0.057615
      dxz     :     0.011576
      dyz     :     0.011498
      dx2y2   :     0.012858
      dxy     :     0.010829
      f0      :     0.000600  f :     0.004328
      f+1     :     0.000487
      f-1     :     0.000794
      f+2     :     0.000702
      f-2     :     0.000655
      f+3     :     0.000494
      f-3     :     0.000597
  1 H s       :     0.630413  s :     0.630413
      pz      :     0.014016  p :     0.045248
      px      :     0.016369
      py      :     0.014863
  2 C s       :     3.213050  s :     3.213050
      pz      :     0.857094  p :     2.825689
      px      :     1.075056
      py      :     0.893540
      dz2     :     0.030756  d :     0.127000
      dxz     :     0.033129
      dyz     :     0.018060
      dx2y2   :     0.023232
      dxy     :     0.021823
      f0      :     0.001994  f :     0.011701
      f+1     :     0.000984
      f-1     :     0.002097
      f+2     :     0.002317
      f-2     :     0.002238
      f+3     :     0.001192
      f-3     :     0.000878
  3 H s       :     0.857185  s :     0.857185
      pz      :     0.006476  p :     0.022947
      px      :     0.011777
      py      :     0.004693
  4 H s       :     0.849510  s :     0.849510
      pz      :     0.008164  p :     0.022596
      px      :     0.009142
      py      :     0.005290
  5 H s       :     0.877984  s :     0.877984
      pz      :     0.005033  p :     0.022338
      px      :     0.005729
      py      :     0.011577
  6 O s       :     3.804003  s :     3.804003
      pz      :     1.707887  p :     4.641521
      px      :     1.581072
      py      :     1.352562
      dz2     :     0.011021  d :     0.057372
      dxz     :     0.009208
      dyz     :     0.011973
      dx2y2   :     0.008849
      dxy     :     0.016320
      f0      :     0.000573  f :     0.004320
      f+1     :     0.000530
      f-1     :     0.000705
      f+2     :     0.000636
      f-2     :     0.000575
      f+3     :     0.000591
      f-3     :     0.000711
  7 H s       :     0.623367  s :     0.623367
      pz      :     0.013833  p :     0.045153
      px      :     0.015936
      py      :     0.015385
  8 C s       :     3.213556  s :     3.213556
      pz      :     0.925646  p :     2.818223
      px      :     1.051451
      py      :     0.841125
      dz2     :     0.039120  d :     0.125428
      dxz     :     0.012867
      dyz     :     0.019605
      dx2y2   :     0.019966
      dxy     :     0.033871
      f0      :     0.001687  f :     0.011646
      f+1     :     0.000864
      f-1     :     0.002864
      f+2     :     0.001368
      f-2     :     0.001695
      f+3     :     0.001636
      f-3     :     0.001532
  9 H s       :     0.842156  s :     0.842156
      pz      :     0.004680  p :     0.023115
      px      :     0.008849
      py      :     0.009586
 10 H s       :     0.870667  s :     0.870667
      pz      :     0.004532  p :     0.022111
      px      :     0.012313
      py      :     0.005266
 11 H s       :     0.863224  s :     0.863224
      pz      :     0.013234  p :     0.022392
      px      :     0.004820
      py      :     0.004338
 12 O s       :     3.803663  s :     3.803663
      pz      :     1.362031  p :     4.635099
      px      :     1.716348
      py      :     1.556719
      dz2     :     0.008857  d :     0.057675
      dxz     :     0.009145
      dyz     :     0.018214
      dx2y2   :     0.010115
      dxy     :     0.011343
      f0      :     0.000490  f :     0.004321
      f+1     :     0.000704
      f-1     :     0.000761
      f+2     :     0.000692
      f-2     :     0.000722
      f+3     :     0.000466
      f-3     :     0.000486
 13 H s       :     0.629813  s :     0.629813
      pz      :     0.016509  p :     0.045373
      px      :     0.015064
      py      :     0.013800
 14 C s       :     3.216677  s :     3.216677
      pz      :     0.911993  p :     2.824681
      px      :     0.938846
      py      :     0.973842
      dz2     :     0.030264  d :     0.125731
      dxz     :     0.019448
      dyz     :     0.029294
      dx2y2   :     0.025294
      dxy     :     0.021431
      f0      :     0.001354  f :     0.011636
      f+1     :     0.001426
      f-1     :     0.001742
      f+2     :     0.002431
      f-2     :     0.002055
      f+3     :     0.001418
      f-3     :     0.001210
 15 H s       :     0.845174  s :     0.845174
      pz      :     0.010376  p :     0.023100
      px      :     0.004882
      py      :     0.007841
 16 H s       :     0.870337  s :     0.870337
      pz      :     0.005370  p :     0.022138
      px      :     0.006046
      py      :     0.010722
 17 H s       :     0.860443  s :     0.860443
      pz      :     0.005301  p :     0.022276
      px      :     0.011844
      py      :     0.005131


                     *******************************
                     * LOEWDIN POPULATION ANALYSIS *
                     *******************************

----------------------
LOEWDIN ATOMIC CHARGES
----------------------
   0 O :   -0.114585
   1 H :    0.188443
   2 C :   -0.383586
   3 H :    0.105784
   4 H :    0.097168
   5 H :    0.092748
   6 O :   -0.109084
   7 H :    0.191824
   8 C :   -0.374884
   9 H :    0.111290
  10 H :    0.095869
  11 H :    0.097584
  12 O :   -0.111157
  13 H :    0.189292
  14 C :   -0.379336
  15 H :    0.110911
  16 H :    0.093901
  17 H :    0.097818

-------------------------------
LOEWDIN REDUCED ORBITAL CHARGES
-------------------------------
  0 O s       :     3.393893  s :     3.393893
      pz      :     1.552655  p :     4.617558
      px      :     1.475039
      py      :     1.589864
      dz2     :     0.019159  d :     0.096025
      dxz     :     0.019957
      dyz     :     0.020835
      dx2y2   :     0.018337
      dxy     :     0.017736
      f0      :     0.001043  f :     0.007109
      f+1     :     0.000795
      f-1     :     0.001303
      f+2     :     0.001211
      f-2     :     0.001005
      f+3     :     0.000772
      f-3     :     0.000980
  1 H s       :     0.661416  s :     0.661416
      pz      :     0.036599  p :     0.150141
      px      :     0.074392
      py      :     0.039150
  2 C s       :     2.867904  s :     2.867904
      pz      :     0.948196  p :     3.024211
      px      :     1.102070
      py      :     0.973945
      dz2     :     0.094160  d :     0.431245
      dxz     :     0.105310
      dyz     :     0.090423
      dx2y2   :     0.080658
      dxy     :     0.060694
      f0      :     0.013252  f :     0.060225
      f+1     :     0.004049
      f-1     :     0.013025
      f+2     :     0.009545
      f-2     :     0.010194
      f+3     :     0.005503
      f-3     :     0.004658
  3 H s       :     0.830282  s :     0.830282
      pz      :     0.017416  p :     0.063934
      px      :     0.034030
      py      :     0.012488
  4 H s       :     0.835729  s :     0.835729
      pz      :     0.025009  p :     0.067103
      px      :     0.027002
      py      :     0.015092
  5 H s       :     0.843080  s :     0.843080
      pz      :     0.014384  p :     0.064172
      px      :     0.016704
      py      :     0.033084
  6 O s       :     3.393286  s :     3.393286
      pz      :     1.675645  p :     4.613049
      px      :     1.565718
      py      :     1.371686
      dz2     :     0.019485  d :     0.095708
      dxz     :     0.011325
      dyz     :     0.020819
      dx2y2   :     0.014231
      dxy     :     0.029849
      f0      :     0.000759  f :     0.007041
      f+1     :     0.000749
      f-1     :     0.001262
      f+2     :     0.001053
      f-2     :     0.001039
      f+3     :     0.000870
      f-3     :     0.001309
  7 H s       :     0.658511  s :     0.658511
      pz      :     0.037296  p :     0.149664
      px      :     0.063760
      py      :     0.048609
  8 C s       :     2.867429  s :     2.867429
      pz      :     1.001228  p :     3.017176
      px      :     1.088976
      py      :     0.926972
      dz2     :     0.141985  d :     0.430245
      dxz     :     0.029725
      dyz     :     0.083996
      dx2y2   :     0.059051
      dxy     :     0.115487
      f0      :     0.005418  f :     0.060034
      f+1     :     0.003810
      f-1     :     0.015122
      f+2     :     0.010466
      f-2     :     0.011132
      f+3     :     0.007707
      f-3     :     0.006379
  9 H s       :     0.824244  s :     0.824244
      pz      :     0.013107  p :     0.064465
      px      :     0.025559
      py      :     0.025800
 10 H s       :     0.839520  s :     0.839520
      pz      :     0.012865  p :     0.064611
      px      :     0.036314
      py      :     0.015432
 11 H s       :     0.837869  s :     0.837869
      pz      :     0.038245  p :     0.064547
      px      :     0.013805
      py      :     0.012497
 12 O s       :     3.394953  s :     3.394953
      pz      :     1.370885  p :     4.612768
      px      :     1.668270
      py      :     1.573613
      dz2     :     0.018409  d :     0.096322
      dxz     :     0.017006
      dyz     :     0.030423
      dx2y2   :     0.014194
      dxy     :     0.016290
      f0      :     0.000735  f :     0.007113
      f+1     :     0.001031
      f-1     :     0.001428
      f+2     :     0.001391
      f-2     :     0.001101
      f+3     :     0.000700
      f-3     :     0.000727
 13 H s       :     0.660636  s :     0.660636
      pz      :     0.056555  p :     0.150072
      px      :     0.038394
      py      :     0.055123
 14 C s       :     2.867967  s :     2.867967
      pz      :     0.974258  p :     3.019120
      px      :     1.007509
      py      :     1.037353
      dz2     :     0.080089  d :     0.432032
      dxz     :     0.073937
      dyz     :     0.113121
      dx2y2   :     0.084622
      dxy     :     0.080263
      f0      :     0.009341  f :     0.060217
      f+1     :     0.007433
      f-1     :     0.008921
      f+2     :     0.011240
      f-2     :     0.010645
      f+3     :     0.007385
      f-3     :     0.005253
 15 H s       :     0.824862  s :     0.824862
      pz      :     0.028249  p :     0.064227
      px      :     0.013208
      py      :     0.022770
 16 H s       :     0.841491  s :     0.841491
      pz      :     0.015746  p :     0.064608
      px      :     0.017484
      py      :     0.031378
 17 H s       :     0.837522  s :     0.837522
      pz      :     0.015553  p :     0.064660
      px      :     0.034513
      py      :     0.014594


                      *****************************
                      * MAYER POPULATION ANALYSIS *
                      *****************************

  NA   - Mulliken gross atomic population
  ZA   - Total nuclear charge
  QA   - Mulliken gross atomic charge
  VA   - Mayer's total valence
  BVA  - Mayer's bonded valence
  FA   - Mayer's free valence

  ATOM       NA         ZA         QA         VA         BVA        FA
  0 O      8.5079     8.0000    -0.5079     2.1405     1.7414     0.3991
  1 H      0.6757     1.0000     0.3243     0.9093     0.8568     0.0525
  2 C      6.1774     6.0000    -0.1774     4.0041     3.7274     0.2767
  3 H      0.8801     1.0000     0.1199     0.9621     0.9152     0.0469
  4 H      0.8721     1.0000     0.1279     0.9822     0.9341     0.0481
  5 H      0.9003     1.0000     0.0997     0.9631     0.9139     0.0492
  6 O      8.5072     8.0000    -0.5072     2.1462     1.7457     0.4005
  7 H      0.6685     1.0000     0.3315     0.9041     0.8521     0.0520
  8 C      6.1689     6.0000    -0.1689     4.0120     3.7359     0.2761
  9 H      0.8653     1.0000     0.1347     0.9638     0.9178     0.0460
 10 H      0.8928     1.0000     0.1072     0.9634     0.9145     0.0489
 11 H      0.8856     1.0000     0.1144     0.9654     0.9171     0.0483
 12 O      8.5008     8.0000    -0.5008     2.1450     1.7463     0.3987
 13 H      0.6752     1.0000     0.3248     0.9054     0.8530     0.0525
 14 C      6.1787     6.0000    -0.1787     4.0206     3.7439     0.2767
 15 H      0.8683     1.0000     0.1317     0.9630     0.9167     0.0462
 16 H      0.8925     1.0000     0.1075     0.9601     0.9112     0.0489
 17 H      0.8827     1.0000     0.1173     0.9661     0.9181     0.0480

  Mayer bond orders larger than 0.100000
B(  0-O ,  1-H ) :   0.8416 B(  0-O ,  2-C ) :   0.9233 B(  2-C ,  3-H ) :   0.9385 
B(  2-C ,  4-H ) :   0.9330 B(  2-C ,  5-H ) :   0.9400 B(  6-O ,  7-H ) :   0.8338 
B(  6-O ,  8-C ) :   0.9123 B(  8-C ,  9-H ) :   0.9389 B(  8-C , 10-H ) :   0.9351 
B(  8-C , 11-H ) :   0.9406 B( 12-O , 13-H ) :   0.8413 B( 12-O , 14-C ) :   0.9209 
B( 14-C , 15-H ) :   0.9378 B( 14-C , 16-H ) :   0.9364 B( 14-C , 17-H ) :   0.9405 



----------------------------------
MP2 DERIVATIVE INTEGRAL GENERATION
----------------------------------


Input Wavefunction Amplitudes       ... 12meoh.boyd.etal.mol2,5,8-orca.engrad-mp2.def2tzvp.frozencore.mp2tsaa.tmp
Input Correlated Electron Density   ... 12meoh.boyd.etal.mol2,5,8-orca.engrad-mp2.def2tzvp.frozencore.pmp2re
Input Energy Weighted Density       ... 12meoh.boyd.etal.mol2,5,8-orca.engrad-mp2.def2tzvp.frozencore.wmp2.tmp
Input SCF Electron Density          ... 12meoh.boyd.etal.mol2,5,8-orca.engrad-mp2.def2tzvp.frozencore.scfp

One-Electron Terms    ...
                        ... One-Electron Terms done
Prescreening matrices              ... done

Batch handling in the gradient evaluation:
Memory available                      ... 8000.0 MB
Memory per occupied orbital in Q2     ...   10.7 MB
Memory per occupied orbital in Q3     ...    0.1 MB
Total memory requirement per |i>      ...   10.8 MB
Max. Number of orbitals possible      ...    743
Number of orbitals treated per batch  ...     21
Number of batches to be done          ...      1
Batch   0: i=    6 ...    26

---------------------------------------
MP2 TOTAL ENERGY:     -346.525384238 Eh
---------------------------------------

The final MP2 gradient
  0:  -0.01991677   0.00755352  -0.00532789
  1:   0.02126193  -0.00913556   0.00968824
  2:  -0.00286242  -0.00142319  -0.00063828
  3:  -0.00252949   0.00182313  -0.00281058
  4:   0.00294231  -0.00109397  -0.00214656
  5:   0.00083264   0.00251601   0.00200567
  6:  -0.01656513  -0.01291505   0.00006616
  7:   0.01756908   0.01900463  -0.00059302
  8:  -0.00322469  -0.00413011   0.00262599
  9:  -0.00120728  -0.00440489  -0.00061842
 10:   0.00309998  -0.00070452   0.00029637
 11:  -0.00035627   0.00267469  -0.00299265
 12:   0.00490981   0.01517242  -0.01441253
 13:  -0.00498045  -0.01467327   0.01902501
 14:  -0.00159406   0.00133581  -0.00262418
 15:   0.00148941   0.00172551  -0.00368223
 16:  -0.00129846  -0.00273351  -0.00043883
 17:   0.00242986  -0.00059165   0.00257772

-----------------------------------
NORM OF THE MP2 GRADIENT:  0.058949
-----------------------------------

-------------------------   --------------------
FINAL SINGLE POINT ENERGY      -346.525384238175
-------------------------   --------------------


                            ***************************************
                            *     ORCA property calculations      *
                            ***************************************

                                    ---------------------
                                    Active property flags
                                    ---------------------
   (+) Dipole Moment


------------------------------------------------------------------------------
                       ORCA ELECTRIC PROPERTIES CALCULATION
------------------------------------------------------------------------------

Dipole Moment Calculation                       ... on
Quadrupole Moment Calculation                   ... off
Polarizability Calculation                      ... off
GBWName                                         ... 12meoh.boyd.etal.mol2,5,8-orca.engrad-mp2.def2tzvp.frozencore.gbw
Electron density file                           ... 12meoh.boyd.etal.mol2,5,8-orca.engrad-mp2.def2tzvp.frozencore.scfp
The origin for moment calculation is the CENTER OF MASS  = (-0.141210,  3.526057 -1.446805)

-------------
DIPOLE MOMENT
-------------
                                X             Y             Z
Electronic contribution:     -1.75024       1.06724       3.36146
Nuclear contribution   :      3.39715      -1.69195      -4.01744
                        -----------------------------------------
Total Dipole Moment    :      1.64690      -0.62471      -0.65599
                        -----------------------------------------
Magnitude (a.u.)       :      1.87959
Magnitude (Debye)      :      4.77755



--------------------
Rotational spectrum 
--------------------
 
Rotational constants in cm-1:     0.109641     0.016885     0.015261 
Rotational constants in MHz :  3286.962297   506.204088   457.523352 

 Dipole components along the rotational axes: 
x,y,z [a.u.] :    -1.753700    -0.675739    -0.028014 
x,y,z [Debye]:    -4.457550    -1.717593    -0.071206 

 

                         *** MP2 UNRELAXED DENSITY ***

------------------------------------------------------------------------------
                       ORCA ELECTRIC PROPERTIES CALCULATION
------------------------------------------------------------------------------

Dipole Moment Calculation                       ... on
Quadrupole Moment Calculation                   ... off
Polarizability Calculation                      ... off
GBWName                                         ... 12meoh.boyd.etal.mol2,5,8-orca.engrad-mp2.def2tzvp.frozencore.gbw
Electron density file                           ... 12meoh.boyd.etal.mol2,5,8-orca.engrad-mp2.def2tzvp.frozencore.pmp2ur
The origin for moment calculation is the CENTER OF MASS  = (-0.141210,  3.526057 -1.446805)

-------------
DIPOLE MOMENT
-------------
                                X             Y             Z
Electronic contribution:     -1.77807       1.07888       3.38127
Nuclear contribution   :      3.39715      -1.69195      -4.01744
                        -----------------------------------------
Total Dipole Moment    :      1.61908      -0.61307      -0.63617
                        -----------------------------------------
Magnitude (a.u.)       :      1.84445
Magnitude (Debye)      :      4.68821



--------------------
Rotational spectrum 
--------------------
 
Rotational constants in cm-1:     0.109641     0.016885     0.015261 
Rotational constants in MHz :  3286.962297   506.204088   457.523352 

 Dipole components along the rotational axes: 
x,y,z [a.u.] :    -1.723075    -0.657218    -0.032636 
x,y,z [Debye]:    -4.379709    -1.670515    -0.082955 

 

                           *** MP2 RELAXED DENSITY ***

------------------------------------------------------------------------------
                       ORCA ELECTRIC PROPERTIES CALCULATION
------------------------------------------------------------------------------

Dipole Moment Calculation                       ... on
Quadrupole Moment Calculation                   ... off
Polarizability Calculation                      ... off
GBWName                                         ... 12meoh.boyd.etal.mol2,5,8-orca.engrad-mp2.def2tzvp.frozencore.gbw
Electron density file                           ... 12meoh.boyd.etal.mol2,5,8-orca.engrad-mp2.def2tzvp.frozencore.pmp2re
The origin for moment calculation is the CENTER OF MASS  = (-0.141210,  3.526057 -1.446805)

-------------
DIPOLE MOMENT
-------------
                                X             Y             Z
Electronic contribution:     -1.80913       1.09235       3.41657
Nuclear contribution   :      3.39715      -1.69195      -4.01744
                        -----------------------------------------
Total Dipole Moment    :      1.58801      -0.59960      -0.60087
                        -----------------------------------------
Magnitude (a.u.)       :      1.80065
Magnitude (Debye)      :      4.57690



--------------------
Rotational spectrum 
--------------------
 
Rotational constants in cm-1:     0.109641     0.016885     0.015261 
Rotational constants in MHz :  3286.962297   506.204088   457.523352 

 Dipole components along the rotational axes: 
x,y,z [a.u.] :    -1.687481    -0.626591    -0.046334 
x,y,z [Debye]:    -4.289236    -1.592668    -0.117770 

 

Timings for individual modules:

Sum of individual times         ...       57.152 sec (=   0.953 min)
GTO integral calculation        ...        0.970 sec (=   0.016 min)   1.7 %
SCF iterations                  ...       12.841 sec (=   0.214 min)  22.5 %
MP2 module                      ...       43.342 sec (=   0.722 min)  75.8 %
                             ****ORCA TERMINATED NORMALLY****
TOTAL RUN TIME: 0 days 0 hours 0 minutes 58 seconds 45 msec
