30
Energy:    -91.52880232
C   -0.16115430   1.87431247  -2.24513725
H   -1.05219528   2.17189941  -1.73289885
H   -0.38581906   1.69253640  -3.27537134
H    0.56947715   2.65253573  -2.17134475
C    0.39306580   0.58756936  -1.60581554
N    0.80570787  -0.37046937  -1.12981147
C    0.49921553  -3.44925282  -2.60493573
H    1.03518703  -3.15259219  -1.72765174
H    1.09540503  -3.25132340  -3.47112342
H    0.28165139  -4.49562175  -2.55319592
C   -0.81712261  -2.65510232  -2.69537293
N   -1.79719618  -2.06382117  -2.76270754
C   -2.14789508  -1.50030590   0.89257707
H   -2.06942067  -1.69247170   1.94225048
H   -1.26317452  -1.84555449   0.39965514
H   -2.99947305  -2.01454073   0.49852555
C   -2.30854044   0.01328553   0.65841035
N   -2.42814820   1.14022315   0.48406258
C   -0.73071081   2.94360346   2.63872281
H   -0.81832739   1.96024676   3.05131596
H   -1.66379436   3.23120569   2.20107097
H   -0.47264424   3.63411141   3.41428681
C    0.36691340   2.95115455   1.55855427
N    1.18414451   2.95677668   0.75431969
C    2.93660699  -0.15596169   1.32539271
H    3.00891267   0.85084175   0.97040130
H    2.97881676  -0.83052602   0.49588660
H    3.74910848  -0.35849857   1.99151524
C    1.60239319  -0.34263627   2.07146653
N    0.60901037  -0.48162398   2.62695240
