60
Energy:   -860.24772887
O    1.74075509  -2.35317153   2.50231789
H    1.28077155  -2.66444371   1.72273042
H    2.08273998  -3.14759869   2.91239554
O    2.69619385   0.40642028  -0.77511474
H    2.60032692   1.35784916  -0.81782841
H    3.07699627   0.24207665   0.08756280
O    1.24474844  -3.47632410  -2.38608960
H    1.55334542  -2.60726434  -2.64247774
H    1.79811968  -4.08246138  -2.87864387
O    1.06487368   3.32617718   1.57222266
H    1.41821545   2.77115858   2.26744622
H    0.11579500   3.28114179   1.68821111
O    2.07284150   1.61430495   3.48489033
H    2.41138865   1.89082165   4.33645136
H    1.42277313   0.94280966   3.69161973
O   -3.31157163   0.62913277  -1.74856602
H   -3.89972833   0.61362506  -2.50359123
H   -2.44858023   0.43161233  -2.11252119
O    1.85228788  -0.94342455  -3.02500266
H    2.31502639  -0.47784639  -2.32833782
H    1.00403990  -0.50398354  -3.08499262
O   -1.48140545   0.31631602   1.96686645
H   -1.60375689   1.26560114   1.97780874
H   -0.85695697   0.16298517   1.25779270
O   -3.33606360  -1.03320642   0.45648116
H   -2.80213911  -0.55352022   1.08977227
H   -3.43734795  -0.42870400  -0.27874001
O   -1.66880070   3.04403783   1.78639114
H   -2.23270434   3.66011432   2.25403876
H   -1.95847850   3.09735368   0.87563539
O    2.00617203   3.04360825  -0.92852635
H    1.67120073   3.18316130  -0.04277750
H    2.53932337   3.81799793  -1.10825427
O    0.19029570  -0.33615589  -0.07299925
H    0.26935963  -1.28514543   0.02395229
H    1.08559682  -0.03539841  -0.22860357
O    0.39782164  -3.03537357   0.20324191
H   -0.53049244  -3.25314762   0.11934151
H    0.78005588  -3.28587443  -0.63781584
O   -1.36409243  -2.62974435  -2.83264689
H   -1.79836328  -2.93499488  -2.03611517
H   -0.50565180  -3.05283491  -2.81515687
O   -0.76616628  -0.00979894  -2.56296253
H   -1.03022885  -0.89906157  -2.79900235
H   -0.46249427  -0.08183915  -1.65807283
O    3.32635804  -0.17297579   1.79418635
H    2.86021728  -0.96918488   2.04912893
H    2.99856053   0.49886890   2.39202024
O   -0.29917828   2.81520989  -2.43657209
H   -0.34912323   1.89012018  -2.67729261
H    0.53044962   2.89630508  -1.96606919
O    0.33723809  -0.39201424   3.88303607
H   -0.40129120  -0.18295754   3.31110807
H    0.75740549  -1.14473711   3.46698380
O   -2.44828674   3.06586732  -0.77999783
H   -1.70586290   3.14477080  -1.37900779
H   -2.90230300   2.27239917  -1.06373957
O   -2.28087222  -3.37126219  -0.32146539
H   -2.91664997  -4.05417290  -0.10780335
H   -2.68804058  -2.56041765  -0.01654425
