
                                 *****************
                                 * O   R   C   A *
                                 *****************

           --- An Ab Initio, DFT and Semiempirical electronic structure package ---

                  #######################################################
                  #                        -***-                        #
                  #          Department of theory and spectroscopy      #
                  #               Directorship: Frank Neese             #
                  #        Max Planck Institute fuer Kohlenforschung    #
                  #                Kaiser Wilhelm Platz 1               #
                  #                 D-45470 Muelheim/Ruhr               #
                  #                      Germany                        #
                  #                                                     #
                  #                  All rights reserved                #
                  #                        -***-                        #
                  #######################################################


                         Program Version 4.2.0 -  RELEASE  -


 With contributions from (in alphabetic order):
   Daniel Aravena         : Magnetic Suceptibility
   Michael Atanasov       : Ab Initio Ligand Field Theory (pilot matlab implementation)
   Alexander A. Auer      : GIAO ZORA, VPT2
   Ute Becker             : Parallelization
   Giovanni Bistoni       : ED, misc. LED, open-shell LED, HFLED
   Martin Brehm           : Molecular dynamics
   Dmytro Bykov           : SCF Hessian
   Vijay G. Chilkuri      : MRCI spin determinant printing, contributions to CSF-ICE
   Dipayan Datta          : RHF DLPNO-CCSD density
   Achintya Kumar Dutta   : EOM-CC, STEOM-CC
   Dmitry Ganyushin       : Spin-Orbit,Spin-Spin,Magnetic field MRCI
   Miquel Garcia          : C-PCM Hessian, Gaussian charge scheme
   Yang Guo               : DLPNO-NEVPT2, CIM, IAO-localization
   Andreas Hansen         : Spin unrestricted coupled pair/coupled cluster methods
   Benjamin Helmich-Paris : CASSCF linear response (MC-RPA)
   Lee Huntington         : MR-EOM, pCC
   Robert Izsak           : Overlap fitted RIJCOSX, COSX-SCS-MP3, EOM
   Christian Kollmar      : KDIIS, OOCD, Brueckner-CCSD(T), CCSD density
   Simone Kossmann        : Meta GGA functionals, TD-DFT gradient, OOMP2, MP2 Hessian
   Martin Krupicka        : AUTO-CI
   Lucas Lang             : DCDCAS
   Dagmar Lenk            : GEPOL surface, SMD
   Dimitrios Liakos       : Extrapolation schemes; Compound Job, initial MDCI parallelization
   Dimitrios Manganas     : Further ROCIS development; embedding schemes
   Dimitrios Pantazis     : SARC Basis sets
   Taras Petrenko         : DFT Hessian,TD-DFT gradient, ASA, ECA, R-Raman, ABS, FL, XAS/XES, NRVS
   Peter Pinski           : DLPNO-MP2, DLPNO-MP2 Gradient
   Christoph Reimann      : Effective Core Potentials
   Marius Retegan         : Local ZFS, SOC
   Christoph Riplinger    : Optimizer, TS searches, QM/MM, DLPNO-CCSD(T), (RO)-DLPNO pert. Triples
   Tobias Risthaus        : Range-separated hybrids, TD-DFT gradient, RPA, STAB
   Michael Roemelt        : Original ROCIS implementation
   Masaaki Saitow         : Open-shell DLPNO-CCSD energy and density
   Barbara Sandhoefer     : DKH picture change effects
   Avijit Sen             : IP-ROCIS
   Kantharuban Sivalingam : CASSCF convergence, NEVPT2, FIC-MRCI
   Bernardo de Souza      : ESD, SOC TD-DFT
   Georgi Stoychev        : AutoAux, RI-MP2 NMR
   Willem Van den Heuvel  : Paramagnetic NMR
   Boris Wezisla          : Elementary symmetry handling
   Frank Wennmohs         : Technical directorship


 We gratefully acknowledge several colleagues who have allowed us to
 interface, adapt or use parts of their codes:
   Stefan Grimme, W. Hujo, H. Kruse,             : VdW corrections, initial TS optimization,
                  C. Bannwarth                     DFT functionals, gCP, sTDA/sTD-DF
   Ed Valeev, F. Pavosevic, A. Kumar             : LibInt (2-el integral package), F12 methods
   Garnet Chan, S. Sharma, J. Yang, R. Olivares  : DMRG
   Ulf Ekstrom                                   : XCFun DFT Library
   Mihaly Kallay                                 : mrcc  (arbitrary order and MRCC methods)
   Andreas Klamt, Michael Diedenhofen            : otool_cosmo (COSMO solvation model)
   Jiri Pittner, Ondrej Demel                    : Mk-CCSD
   Frank Weinhold                                : gennbo (NPA and NBO analysis)
   Christopher J. Cramer and Donald G. Truhlar   : smd solvation model
   Lars Goerigk                                  : TD-DFT with DH, B97 family of functionals
   V. Asgeirsson, H. Jonsson                     : NEB implementation
   FAccTs GmbH                                   : IRC, NEB, NEB-TS, Multilevel, MM, QM/MM, CI optimization
   S Lehtola, MJT Oliveira, MAL Marques          : LibXC Library


 Your calculation uses the libint2 library for the computation of 2-el integrals
 For citations please refer to: http://libint.valeyev.net

 Your ORCA version has been built with support for libXC version: 4.2.3
 For citations please refer to: https://tddft.org/programs/libxc/

 This ORCA versions uses:
   CBLAS   interface :  Fast vector & matrix operations
   LAPACKE interface :  Fast linear algebra routines
   SCALAPACK package :  Parallel linear algebra routines


----- Orbital basis set information -----
Your calculation utilizes the basis: def2-TZVP
   F. Weigend and R. Ahlrichs, Phys. Chem. Chem. Phys. 7, 3297 (2005).

================================================================================
                                        WARNINGS
                       Please study these warnings very carefully!
================================================================================


WARNING: The frozen-core approximation for MP2-gradient calculations is turned on by default.

INFO   : the flag for use of LIBINT has been found!

================================================================================
                                       INPUT FILE
================================================================================
NAME = 12h2o.su.etal.mol0,3,4,5,6,7,9,10-orca.engrad-mp2.def2tzvp.frozencore.inp
|  1> # 12h2o.su.etal.mol0,3,4,5,6,7,9,10
|  2> ! MP2 def2-TZVP EnGrad TightSCF
|  3> 
|  4> %pal
|  5>     nprocs 6
|  6> end
|  7> 
|  8> %maxcore 8000
|  9> 
| 10> %scf
| 11>     ConvForced true
| 12> end
| 13> 
| 14> *xyz 0 1
| 15> O   1.794470000   0.923410000   2.768350000
| 16> H   2.338250000   1.359750000   3.430940000
| 17> H   0.879480000   1.303000000   2.865760000
| 18> O  -1.752130000  -0.741530000  -2.896280000
| 19> H  -2.036450000  -0.920500000  -1.984040000
| 20> H  -0.921210000  -1.242140000  -2.984230000
| 21> O  -0.885520000   1.737840000   0.052730000
| 22> H  -1.032320000   2.090180000  -0.841890000
| 23> H  -1.284090000   0.839590000   0.017130000
| 24> O   0.885520000  -1.737840000   0.052730000
| 25> H   1.284090000  -0.839590000   0.017130000
| 26> H   1.032320000  -2.090180000  -0.841890000
| 27> O   1.737840000   0.885520000  -0.052730000
| 28> H   2.090180000   1.032320000   0.841890000
| 29> H   0.839590000   1.284090000  -0.017130000
| 30> O  -1.737840000  -0.885520000  -0.052730000
| 31> H  -2.090180000  -1.032320000   0.841890000
| 32> H  -0.839590000  -1.284090000  -0.017130000
| 33> O   0.741530000  -1.752130000   2.896280000
| 34> H   0.920500000  -2.036450000   1.984040000
| 35> H   1.242140000  -0.921210000   2.984230000
| 36> O  -0.923410000   1.794470000  -2.768350000
| 37> H  -1.359750000   2.338250000  -3.430940000
| 38> H  -1.303000000   0.879480000  -2.865760000
| 39> *
| 40> 
| 41>                          ****END OF INPUT****
================================================================================

                     *******************************
                     * Energy+Gradient Calculation *
                     *******************************

---------------------------------
CARTESIAN COORDINATES (ANGSTROEM)
---------------------------------
  O      1.794470    0.923410    2.768350
  H      2.338250    1.359750    3.430940
  H      0.879480    1.303000    2.865760
  O     -1.752130   -0.741530   -2.896280
  H     -2.036450   -0.920500   -1.984040
  H     -0.921210   -1.242140   -2.984230
  O     -0.885520    1.737840    0.052730
  H     -1.032320    2.090180   -0.841890
  H     -1.284090    0.839590    0.017130
  O      0.885520   -1.737840    0.052730
  H      1.284090   -0.839590    0.017130
  H      1.032320   -2.090180   -0.841890
  O      1.737840    0.885520   -0.052730
  H      2.090180    1.032320    0.841890
  H      0.839590    1.284090   -0.017130
  O     -1.737840   -0.885520   -0.052730
  H     -2.090180   -1.032320    0.841890
  H     -0.839590   -1.284090   -0.017130
  O      0.741530   -1.752130    2.896280
  H      0.920500   -2.036450    1.984040
  H      1.242140   -0.921210    2.984230
  O     -0.923410    1.794470   -2.768350
  H     -1.359750    2.338250   -3.430940
  H     -1.303000    0.879480   -2.865760

----------------------------
CARTESIAN COORDINATES (A.U.)
----------------------------
  NO LB      ZA    FRAG     MASS         X           Y           Z
   0 O     8.0000    0    15.999    3.391057    1.744992    5.231423
   1 H     1.0000    0     1.008    4.418652    2.569555    6.483537
   2 H     1.0000    0     1.008    1.661976    2.462313    5.415502
   3 O     8.0000    0    15.999   -3.311046   -1.401289   -5.473176
   4 H     1.0000    0     1.008   -3.848333   -1.739493   -3.749292
   5 H     1.0000    0     1.008   -1.740835   -2.347304   -5.639377
   6 O     8.0000    0    15.999   -1.673390    3.284042    0.099645
   7 H     1.0000    0     1.008   -1.950802    3.949868   -1.590942
   8 H     1.0000    0     1.008   -2.426578    1.586595    0.032371
   9 O     8.0000    0    15.999    1.673390   -3.284042    0.099645
  10 H     1.0000    0     1.008    2.426578   -1.586595    0.032371
  11 H     1.0000    0     1.008    1.950802   -3.949868   -1.590942
  12 O     8.0000    0    15.999    3.284042    1.673390   -0.099645
  13 H     1.0000    0     1.008    3.949868    1.950802    1.590942
  14 H     1.0000    0     1.008    1.586595    2.426578   -0.032371
  15 O     8.0000    0    15.999   -3.284042   -1.673390   -0.099645
  16 H     1.0000    0     1.008   -3.949868   -1.950802    1.590942
  17 H     1.0000    0     1.008   -1.586595   -2.426578   -0.032371
  18 O     8.0000    0    15.999    1.401289   -3.311046    5.473176
  19 H     1.0000    0     1.008    1.739493   -3.848333    3.749292
  20 H     1.0000    0     1.008    2.347304   -1.740835    5.639377
  21 O     8.0000    0    15.999   -1.744992    3.391057   -5.231423
  22 H     1.0000    0     1.008   -2.569555    4.418652   -6.483537
  23 H     1.0000    0     1.008   -2.462313    1.661976   -5.415502

--------------------------------
INTERNAL COORDINATES (ANGSTROEM)
--------------------------------
 O      0   0   0     0.000000000000     0.00000000     0.00000000
 H      1   0   0     0.961828878803     0.00000000     0.00000000
 H      1   2   0     0.995381322057   106.21731035     0.00000000
 O      3   1   2     6.656318732948    99.29837960   164.71437028
 H      4   3   1     0.972136791249    50.19793542   121.30203245
 H      4   3   1     0.974050112161    84.18963930     7.83137870
 O      3   1   2     3.349245975813   116.85538783   143.82107740
 H      7   3   1     0.972645187106   154.03893681   304.15813038
 H      7   3   1     0.983350632989    97.20424340    87.67157074
 O      9   7   3     3.369216573181   115.93827062   304.27214190
 H     10   9   7     0.983350632989    64.01297461   355.38487433
 H     10   9   7     0.972645187106   111.38238039   260.12892927
 O     11  10   9     1.785153773264   170.81379649   358.44265882
 H     13  11  10     0.972645187106   101.65007623   109.44492584
 H     13  11  10     0.983350632989    99.09581498     3.33484705
 O      9   7   3     1.785153773264   170.81379649   301.36914736
 H     16   9   7     0.972645187106   101.65007623   109.44492584
 H     16   9   7     0.983350632989    99.09581498     3.33484705
 O     10   9   7     2.847229166523    88.95865904    89.80090032
 H     19  10   9     0.972136791249    19.08819947   164.57944949
 H     19  10   9     0.974050112161    93.43428486   288.67572938
 O      8   7   3     1.952064016317   147.60984291    95.04037974
 H     22   8   7     0.961828878803   124.67322417   165.49513251
 H     22   8   7     0.995381322057   102.38931089    45.51897547

---------------------------
INTERNAL COORDINATES (A.U.)
---------------------------
 O      0   0   0     0.000000000000     0.00000000     0.00000000
 H      1   0   0     1.817593168635     0.00000000     0.00000000
 H      1   2   0     1.880998097508   106.21731035     0.00000000
 O      3   1   2    12.578619465362    99.29837960   164.71437028
 H      4   3   1     1.837072300170    50.19793542   121.30203245
 H      4   3   1     1.840687952699    84.18963930     7.83137870
 O      3   1   2     6.329157649425   116.85538783   143.82107740
 H      7   3   1     1.838033029106   154.03893681   304.15813038
 H      7   3   1     1.858263389967    97.20424340    87.67157074
 O      9   7   3     6.366896609181   115.93827062   304.27214190
 H     10   9   7     1.858263389967    64.01297461   355.38487433
 H     10   9   7     1.838033029106   111.38238039   260.12892927
 O     11  10   9     3.373451738406   170.81379649   358.44265882
 H     13  11  10     1.838033029106   101.65007623   109.44492584
 H     13  11  10     1.858263389967    99.09581498     3.33484705
 O      9   7   3     3.373451738406   170.81379649   301.36914736
 H     16   9   7     1.838033029106   101.65007623   109.44492584
 H     16   9   7     1.858263389967    99.09581498     3.33484705
 O     10   9   7     5.380483365242    88.95865904    89.80090032
 H     19  10   9     1.837072300170    19.08819947   164.57944949
 H     19  10   9     1.840687952699    93.43428486   288.67572938
 O      8   7   3     3.688866386722   147.60984291    95.04037974
 H     22   8   7     1.817593168635   124.67322417   165.49513251
 H     22   8   7     1.880998097508   102.38931089    45.51897547

---------------------
BASIS SET INFORMATION
---------------------
There are 2 groups of distinct atoms

 Group   1 Type O   : 11s6p2d1f contracted to 5s3p2d1f pattern {62111/411/11/1}
 Group   2 Type H   : 5s1p contracted to 3s1p pattern {311/1}

Atom   0O    basis set group =>   1
Atom   1H    basis set group =>   2
Atom   2H    basis set group =>   2
Atom   3O    basis set group =>   1
Atom   4H    basis set group =>   2
Atom   5H    basis set group =>   2
Atom   6O    basis set group =>   1
Atom   7H    basis set group =>   2
Atom   8H    basis set group =>   2
Atom   9O    basis set group =>   1
Atom  10H    basis set group =>   2
Atom  11H    basis set group =>   2
Atom  12O    basis set group =>   1
Atom  13H    basis set group =>   2
Atom  14H    basis set group =>   2
Atom  15O    basis set group =>   1
Atom  16H    basis set group =>   2
Atom  17H    basis set group =>   2
Atom  18O    basis set group =>   1
Atom  19H    basis set group =>   2
Atom  20H    basis set group =>   2
Atom  21O    basis set group =>   1
Atom  22H    basis set group =>   2
Atom  23H    basis set group =>   2


           ************************************************************
           *        Program running with 6 parallel MPI-processes     *
           *              working on a common directory               *
           ************************************************************
------------------------------------------------------------------------------
                           ORCA GTO INTEGRAL CALCULATION
------------------------------------------------------------------------------

                         BASIS SET STATISTICS AND STARTUP INFO

 # of primitive gaussian shells          ...  256
 # of primitive gaussian functions       ...  496
 # of contracted shells                  ...  152
 # of contracted basis functions         ...  344
 Highest angular momentum                ...    3
 Maximum contraction depth               ...    6
 Integral package used                   ... LIBINT
 Integral threshhold            Thresh   ...  2.500e-11
 Primitive cut-off              TCut     ...  2.500e-12


------------------------------ INTEGRAL EVALUATION ----------------------------


 * One electron integrals 
 Pre-screening matrix                    ... done
 Shell pair data                         ... done (   0.002 sec)



           ************************************************************
           *        Program running with 6 parallel MPI-processes     *
           *              working on a common directory               *
           ************************************************************
-------------------------------------------------------------------------------
                                 ORCA SCF
-------------------------------------------------------------------------------

------------
SCF SETTINGS
------------
Hamiltonian:
 Ab initio Hamiltonian  Method          .... Hartree-Fock(GTOs)


General Settings:
 Integral files         IntName         .... 12h2o.su.etal.mol0,3,4,5,6,7,9,10-orca.engrad-mp2.def2tzvp.frozencore
 Hartree-Fock type      HFTyp           .... RHF
 Total Charge           Charge          ....    0
 Multiplicity           Mult            ....    1
 Number of Electrons    NEL             ....   80
 Basis Dimension        Dim             ....  344
 Nuclear Repulsion      ENuc            ....    475.0122233636 Eh

Convergence Acceleration:
 DIIS                   CNVDIIS         .... on
   Start iteration      DIISMaxIt       ....    12
   Startup error        DIISStart       ....  0.200000
   # of expansion vecs  DIISMaxEq       ....     5
   Bias factor          DIISBfac        ....   1.050
   Max. coefficient     DIISMaxC        ....  10.000
 Newton-Raphson         CNVNR           .... off
 SOSCF                  CNVSOSCF        .... on
   Start iteration      SOSCFMaxIt      ....   150
   Startup grad/error   SOSCFStart      ....  0.003300
 Level Shifting         CNVShift        .... on
   Level shift para.    LevelShift      ....    0.2500
   Turn off err/grad.   ShiftErr        ....    0.0010
 Zerner damping         CNVZerner       .... off
 Static damping         CNVDamp         .... on
   Fraction old density DampFac         ....    0.7000
   Max. Damping (<1)    DampMax         ....    0.9800
   Min. Damping (>=0)   DampMin         ....    0.0000
   Turn off err/grad.   DampErr         ....    0.1000
 Fernandez-Rico         CNVRico         .... off

SCF Procedure:
 Maximum # iterations   MaxIter         ....   125
 SCF integral mode      SCFMode         .... Direct
   Integral package                     .... LIBINT
 Reset frequency        DirectResetFreq ....    20
 Integral Threshold     Thresh          ....  2.500e-11 Eh
 Primitive CutOff       TCut            ....  2.500e-12 Eh

Convergence Tolerance:
 Convergence Check Mode ConvCheckMode   .... Total+1el-Energy
 Convergence forced     ConvForced      .... 1
 Energy Change          TolE            ....  1.000e-08 Eh
 1-El. energy change                    ....  1.000e-05 Eh
 Orbital Gradient       TolG            ....  1.000e-05
 Orbital Rotation angle TolX            ....  1.000e-05
 DIIS Error             TolErr          ....  5.000e-07


Diagonalization of the overlap matrix:
Smallest eigenvalue                        ... 2.851e-03
Time for diagonalization                   ...    0.016 sec
Threshold for overlap eigenvalues          ... 1.000e-08
Number of eigenvalues below threshold      ... 0
Time for construction of square roots      ...    0.009 sec
Total time needed                          ...    0.025 sec

-------------------
DFT GRID GENERATION
-------------------

General Integration Accuracy     IntAcc      ...  4.340
Radial Grid Type                 RadialGrid  ... Gauss-Chebyshev
Angular Grid (max. acc.)         AngularGrid ... Lebedev-110
Angular grid pruning method      GridPruning ... 3 (G Style)
Weight generation scheme         WeightScheme... Becke
Basis function cutoff            BFCut       ...    1.0000e-11
Integration weight cutoff        WCut        ...    1.0000e-14
Grids for H and He will be reduced by one unit

# of grid points (after initial pruning)     ...  26432 (   0.0 sec)
# of grid points (after weights+screening)   ...  24508 (   0.0 sec)
nearest neighbour list constructed           ...    0.0 sec
Grid point re-assignment to atoms done       ...    0.0 sec
Grid point division into batches done        ...    0.0 sec
Reduced shell lists constructed in    0.1 sec

Total number of grid points                  ...    24508
Total number of batches                      ...      395
Average number of points per batch           ...       62
Average number of grid points per atom       ...     1021
Average number of shells per batch           ...    66.96 (44.05%)
Average number of basis functions per batch  ...   132.42 (38.49%)
Average number of large shells per batch     ...    44.25 (66.09%)
Average number of large basis fcns per batch ...    85.72 (64.73%)
Maximum spatial batch extension              ...  15.87, 15.25, 14.40 au
Average spatial batch extension              ...   0.58,  0.59,  0.55 au

Time for grid setup =    0.090 sec

------------------------------
INITIAL GUESS: MODEL POTENTIAL
------------------------------
Loading Hartree-Fock densities                     ... done
Calculating cut-offs                               ... done
Setting up the integral package                    ... done
Initializing the effective Hamiltonian             ... done
Starting the Coulomb interaction                   ... done (   0.0 sec)
Reading the grid                                   ... done
Mapping shells                                     ... done
Starting the XC term evaluation                    ... done (   0.0 sec)
Transforming the Hamiltonian                       ... done (   0.0 sec)
Diagonalizing the Hamiltonian                      ... done (   0.0 sec)
Back transforming the eigenvectors                 ... done (   0.0 sec)
Now organizing SCF variables                       ... done
                      ------------------
                      INITIAL GUESS DONE (   0.3 sec)
                      ------------------
--------------
SCF ITERATIONS
--------------
ITER       Energy         Delta-E        Max-DP      RMS-DP      [F,P]     Damp
               ***  Starting incremental Fock matrix formation  ***
  0   -607.8475071459   0.000000000000 0.04382045  0.00082570  0.3385988 0.7000
  1   -608.1085963699  -0.261089223981 0.02902224  0.00057485  0.2167242 0.7000
                               ***Turning on DIIS***
  2   -608.2480140565  -0.139417686572 0.01602931  0.00032479  0.1634531 0.7000
  3   -609.5507937127  -1.302779656195 0.00757447  0.00015211  0.1217770 0.7000
  4   -609.2897645820   0.261029130657 0.01723928  0.00035262  0.0861433 0.0000
  5   -608.5664527310   0.723311850973 0.00218567  0.00005616  0.0055104 0.0000
                      *** Initiating the SOSCF procedure ***
                           *** Shutting down DIIS ***
                      *** Re-Reading the Fockian *** 
                      *** Removing any level shift *** 
ITER      Energy       Delta-E        Grad      Rot      Max-DP    RMS-DP
  6   -608.52949294   0.0369597865  0.000794  0.000794  0.001396  0.000035
               *** Restarting incremental Fock matrix formation ***
  7   -608.51854239   0.0109505507  0.000300  0.000406  0.000640  0.000015
  8   -608.51855384  -0.0000114463  0.000105  0.000303  0.000561  0.000013
  9   -608.51855666  -0.0000028222  0.000062  0.000029  0.000094  0.000002
 10   -608.51855687  -0.0000002086  0.000014  0.000010  0.000019  0.000000
                  ***Gradient check signals convergence***
              ***Rediagonalizing the Fockian in SOSCF/NRSCF***

               *****************************************************
               *                     SUCCESS                       *
               *           SCF CONVERGED AFTER  11 CYCLES          *
               *****************************************************


----------------
TOTAL SCF ENERGY
----------------

Total Energy       :         -608.51855688 Eh          -16558.63176 eV

Components:
Nuclear Repulsion  :          475.01222336 Eh           12925.73973 eV
Electronic Energy  :        -1083.53078024 Eh          -29484.37149 eV
One Electron Energy:        -1787.36192988 Eh          -48636.59075 eV
Two Electron Energy:          703.83114963 Eh           19152.21926 eV

Virial components:
Potential Energy   :        -1216.30374318 Eh          -33097.30749 eV
Kinetic Energy     :          607.78518630 Eh           16538.67573 eV
Virial Ratio       :            2.00120663


---------------
SCF CONVERGENCE
---------------

  Last Energy change         ...   -7.9322e-09  Tolerance :   1.0000e-08
  Last MAX-Density change    ...    5.4021e-06  Tolerance :   1.0000e-07
  Last RMS-Density change    ...    1.1796e-07  Tolerance :   5.0000e-09
  Last Orbital Gradient      ...    2.1095e-06  Tolerance :   1.0000e-05
  Last Orbital Rotation      ...    2.5883e-06  Tolerance :   1.0000e-05

             **** THE GBW FILE WAS UPDATED (12h2o.su.etal.mol0,3,4,5,6,7,9,10-orca.engrad-mp2.def2tzvp.frozencore.gbw) ****
             **** DENSITY FILE WAS UPDATED (12h2o.su.etal.mol0,3,4,5,6,7,9,10-orca.engrad-mp2.def2tzvp.frozencore.scfp) ****
             **** ENERGY FILE WAS UPDATED (12h2o.su.etal.mol0,3,4,5,6,7,9,10-orca.engrad-mp2.def2tzvp.frozencore.en.tmp) ****
             **** THE GBW FILE WAS UPDATED (12h2o.su.etal.mol0,3,4,5,6,7,9,10-orca.engrad-mp2.def2tzvp.frozencore.gbw) ****
             **** DENSITY FILE WAS UPDATED (12h2o.su.etal.mol0,3,4,5,6,7,9,10-orca.engrad-mp2.def2tzvp.frozencore.scfp) ****
----------------
ORBITAL ENERGIES
----------------

  NO   OCC          E(Eh)            E(eV) 
   0   2.0000     -20.608362      -560.7820 
   1   2.0000     -20.586714      -560.1930 
   2   2.0000     -20.584740      -560.1392 
   3   2.0000     -20.584410      -560.1303 
   4   2.0000     -20.540843      -558.9448 
   5   2.0000     -20.537925      -558.8653 
   6   2.0000     -20.535512      -558.7997 
   7   2.0000     -20.520516      -558.3916 
   8   2.0000      -1.388937       -37.7949 
   9   2.0000      -1.384598       -37.6768 
  10   2.0000      -1.373625       -37.3782 
  11   2.0000      -1.364975       -37.1428 
  12   2.0000      -1.334067       -36.3018 
  13   2.0000      -1.324308       -36.0362 
  14   2.0000      -1.314006       -35.7559 
  15   2.0000      -1.305603       -35.5273 
  16   2.0000      -0.754236       -20.5238 
  17   2.0000      -0.745308       -20.2809 
  18   2.0000      -0.736865       -20.0511 
  19   2.0000      -0.731482       -19.9046 
  20   2.0000      -0.709512       -19.3068 
  21   2.0000      -0.699794       -19.0424 
  22   2.0000      -0.698657       -19.0114 
  23   2.0000      -0.685276       -18.6473 
  24   2.0000      -0.644378       -17.5344 
  25   2.0000      -0.630551       -17.1582 
  26   2.0000      -0.612299       -16.6615 
  27   2.0000      -0.600558       -16.3420 
  28   2.0000      -0.594047       -16.1648 
  29   2.0000      -0.580121       -15.7859 
  30   2.0000      -0.558963       -15.2101 
  31   2.0000      -0.546224       -14.8635 
  32   2.0000      -0.534535       -14.5454 
  33   2.0000      -0.525241       -14.2925 
  34   2.0000      -0.523705       -14.2507 
  35   2.0000      -0.518047       -14.0968 
  36   2.0000      -0.490102       -13.3364 
  37   2.0000      -0.488943       -13.3048 
  38   2.0000      -0.481784       -13.1100 
  39   2.0000      -0.470181       -12.7943 
  40   0.0000       0.090575         2.4647 
  41   0.0000       0.109122         2.9694 
  42   0.0000       0.145290         3.9535 
  43   0.0000       0.154834         4.2132 
  44   0.0000       0.185357         5.0438 
  45   0.0000       0.190011         5.1705 
  46   0.0000       0.227238         6.1835 
  47   0.0000       0.238502         6.4900 
  48   0.0000       0.251311         6.8385 
  49   0.0000       0.267631         7.2826 
  50   0.0000       0.301131         8.1942 
  51   0.0000       0.311412         8.4739 
  52   0.0000       0.323649         8.8069 
  53   0.0000       0.335953         9.1417 
  54   0.0000       0.347253         9.4492 
  55   0.0000       0.356192         9.6925 
  56   0.0000       0.413867        11.2619 
  57   0.0000       0.458292        12.4708 
  58   0.0000       0.484611        13.1869 
  59   0.0000       0.495304        13.4779 
  60   0.0000       0.503662        13.7053 
  61   0.0000       0.513650        13.9771 
  62   0.0000       0.528988        14.3945 
  63   0.0000       0.535613        14.5748 
  64   0.0000       0.542924        14.7737 
  65   0.0000       0.544680        14.8215 
  66   0.0000       0.555983        15.1291 
  67   0.0000       0.571716        15.5572 
  68   0.0000       0.578103        15.7310 
  69   0.0000       0.592624        16.1261 
  70   0.0000       0.609264        16.5789 
  71   0.0000       0.614625        16.7248 
  72   0.0000       0.618395        16.8274 
  73   0.0000       0.634762        17.2727 
  74   0.0000       0.641605        17.4590 
  75   0.0000       0.659422        17.9438 
  76   0.0000       0.660416        17.9708 
  77   0.0000       0.688883        18.7454 
  78   0.0000       0.711480        19.3604 
  79   0.0000       0.718879        19.5617 
  80   0.0000       0.726153        19.7596 
  81   0.0000       0.735863        20.0239 
  82   0.0000       0.749890        20.4056 
  83   0.0000       0.763561        20.7776 
  84   0.0000       0.772988        21.0341 
  85   0.0000       0.780798        21.2466 
  86   0.0000       0.788756        21.4631 
  87   0.0000       0.814969        22.1764 
  88   0.0000       0.829042        22.5594 
  89   0.0000       0.836368        22.7587 
  90   0.0000       0.852958        23.2102 
  91   0.0000       0.880740        23.9661 
  92   0.0000       0.900546        24.5051 
  93   0.0000       0.904724        24.6188 
  94   0.0000       0.927453        25.2373 
  95   0.0000       0.942785        25.6545 
  96   0.0000       0.962782        26.1986 
  97   0.0000       0.984489        26.7893 
  98   0.0000       1.013495        27.5786 
  99   0.0000       1.036140        28.1948 
 100   0.0000       1.074871        29.2487 
 101   0.0000       1.120585        30.4927 
 102   0.0000       1.140291        31.0289 
 103   0.0000       1.170635        31.8546 
 104   0.0000       1.340437        36.4751 
 105   0.0000       1.357117        36.9290 
 106   0.0000       1.378540        37.5120 
 107   0.0000       1.392815        37.9004 
 108   0.0000       1.405712        38.2514 
 109   0.0000       1.407533        38.3009 
 110   0.0000       1.414909        38.5016 
 111   0.0000       1.427044        38.8318 
 112   0.0000       1.438501        39.1436 
 113   0.0000       1.453263        39.5453 
 114   0.0000       1.461117        39.7590 
 115   0.0000       1.490614        40.5617 
 116   0.0000       1.501612        40.8609 
 117   0.0000       1.527653        41.5695 
 118   0.0000       1.529907        41.6309 
 119   0.0000       1.555148        42.3177 
 120   0.0000       1.564578        42.5743 
 121   0.0000       1.577159        42.9167 
 122   0.0000       1.596883        43.4534 
 123   0.0000       1.605475        43.6872 
 124   0.0000       1.615906        43.9710 
 125   0.0000       1.627729        44.2928 
 126   0.0000       1.648638        44.8617 
 127   0.0000       1.671104        45.4730 
 128   0.0000       1.805896        49.1409 
 129   0.0000       1.813398        49.3451 
 130   0.0000       1.830440        49.8088 
 131   0.0000       1.845316        50.2136 
 132   0.0000       1.874161        50.9985 
 133   0.0000       1.879005        51.1303 
 134   0.0000       1.895846        51.5886 
 135   0.0000       1.928265        52.4708 
 136   0.0000       1.937266        52.7157 
 137   0.0000       1.957816        53.2749 
 138   0.0000       1.963866        53.4395 
 139   0.0000       1.978274        53.8316 
 140   0.0000       1.990368        54.1607 
 141   0.0000       2.004414        54.5429 
 142   0.0000       2.034955        55.3740 
 143   0.0000       2.050747        55.8037 
 144   0.0000       2.070035        56.3285 
 145   0.0000       2.104346        57.2622 
 146   0.0000       2.116888        57.6035 
 147   0.0000       2.138765        58.1987 
 148   0.0000       2.150281        58.5121 
 149   0.0000       2.165595        58.9288 
 150   0.0000       2.180477        59.3338 
 151   0.0000       2.236559        60.8599 
 152   0.0000       2.250366        61.2356 
 153   0.0000       2.257042        61.4172 
 154   0.0000       2.263388        61.5899 
 155   0.0000       2.294060        62.4246 
 156   0.0000       2.300631        62.6033 
 157   0.0000       2.318766        63.0968 
 158   0.0000       2.327522        63.3351 
 159   0.0000       2.342430        63.7407 
 160   0.0000       2.351037        63.9750 
 161   0.0000       2.374309        64.6082 
 162   0.0000       2.381186        64.7954 
 163   0.0000       2.388318        64.9894 
 164   0.0000       2.400229        65.3136 
 165   0.0000       2.417639        65.7873 
 166   0.0000       2.447308        66.5946 
 167   0.0000       2.461916        66.9921 
 168   0.0000       2.497532        67.9613 
 169   0.0000       2.512305        68.3633 
 170   0.0000       2.526113        68.7390 
 171   0.0000       2.541665        69.1622 
 172   0.0000       2.547053        69.3088 
 173   0.0000       2.560435        69.6730 
 174   0.0000       2.576081        70.0987 
 175   0.0000       2.591124        70.5081 
 176   0.0000       2.606771        70.9338 
 177   0.0000       2.623730        71.3953 
 178   0.0000       2.642562        71.9078 
 179   0.0000       2.647636        72.0458 
 180   0.0000       2.655766        72.2671 
 181   0.0000       2.666607        72.5621 
 182   0.0000       2.672355        72.7185 
 183   0.0000       2.679778        72.9205 
 184   0.0000       2.711888        73.7942 
 185   0.0000       2.717269        73.9407 
 186   0.0000       2.734645        74.4135 
 187   0.0000       2.741588        74.6024 
 188   0.0000       2.776226        75.5449 
 189   0.0000       2.779522        75.6346 
 190   0.0000       2.792206        75.9798 
 191   0.0000       2.825445        76.8843 
 192   0.0000       2.894186        78.7548 
 193   0.0000       2.900237        78.9195 
 194   0.0000       2.927206        79.6533 
 195   0.0000       2.954073        80.3844 
 196   0.0000       2.968362        80.7732 
 197   0.0000       2.972060        80.8739 
 198   0.0000       2.982841        81.1672 
 199   0.0000       2.993952        81.4696 
 200   0.0000       3.007403        81.8356 
 201   0.0000       3.028016        82.3965 
 202   0.0000       3.046542        82.9006 
 203   0.0000       3.057654        83.2030 
 204   0.0000       3.080553        83.8261 
 205   0.0000       3.094218        84.1979 
 206   0.0000       3.102217        84.4156 
 207   0.0000       3.140655        85.4616 
 208   0.0000       3.159474        85.9736 
 209   0.0000       3.163848        86.0927 
 210   0.0000       3.207960        87.2930 
 211   0.0000       3.233138        87.9782 
 212   0.0000       3.267114        88.9027 
 213   0.0000       3.275619        89.1341 
 214   0.0000       3.291333        89.5617 
 215   0.0000       3.319053        90.3160 
 216   0.0000       3.330820        90.6362 
 217   0.0000       3.352540        91.2272 
 218   0.0000       3.366446        91.6057 
 219   0.0000       3.406742        92.7022 
 220   0.0000       3.464972        94.2867 
 221   0.0000       3.480056        94.6971 
 222   0.0000       3.511070        95.5411 
 223   0.0000       3.534515        96.1790 
 224   0.0000       3.978293       108.2549 
 225   0.0000       4.042749       110.0088 
 226   0.0000       4.061386       110.5159 
 227   0.0000       4.101969       111.6202 
 228   0.0000       4.108804       111.8062 
 229   0.0000       4.114874       111.9714 
 230   0.0000       4.166804       113.3845 
 231   0.0000       4.177686       113.6806 
 232   0.0000       4.274220       116.3074 
 233   0.0000       4.295483       116.8860 
 234   0.0000       4.319890       117.5502 
 235   0.0000       4.337969       118.0421 
 236   0.0000       4.360506       118.6554 
 237   0.0000       4.373725       119.0151 
 238   0.0000       4.375765       119.0706 
 239   0.0000       4.400101       119.7328 
 240   0.0000       5.505781       149.8199 
 241   0.0000       5.514426       150.0552 
 242   0.0000       5.517971       150.1516 
 243   0.0000       5.521232       150.2404 
 244   0.0000       5.559538       151.2827 
 245   0.0000       5.561113       151.3256 
 246   0.0000       5.568162       151.5174 
 247   0.0000       5.583552       151.9362 
 248   0.0000       5.600359       152.3935 
 249   0.0000       5.643374       153.5640 
 250   0.0000       5.647213       153.6685 
 251   0.0000       5.652039       153.7998 
 252   0.0000       5.670087       154.2909 
 253   0.0000       5.690827       154.8553 
 254   0.0000       5.693191       154.9196 
 255   0.0000       5.699614       155.0944 
 256   0.0000       5.768566       156.9706 
 257   0.0000       5.792258       157.6154 
 258   0.0000       5.802566       157.8959 
 259   0.0000       5.805851       157.9852 
 260   0.0000       5.810015       158.0986 
 261   0.0000       5.814732       158.2269 
 262   0.0000       5.828507       158.6017 
 263   0.0000       5.835650       158.7961 
 264   0.0000       5.838993       158.8871 
 265   0.0000       5.849890       159.1836 
 266   0.0000       5.861044       159.4871 
 267   0.0000       5.865818       159.6170 
 268   0.0000       5.867033       159.6501 
 269   0.0000       5.871437       159.7699 
 270   0.0000       5.873469       159.8252 
 271   0.0000       5.879345       159.9851 
 272   0.0000       5.881023       160.0308 
 273   0.0000       5.889433       160.2596 
 274   0.0000       5.895335       160.4202 
 275   0.0000       5.916372       160.9927 
 276   0.0000       5.921946       161.1443 
 277   0.0000       5.926252       161.2615 
 278   0.0000       5.941660       161.6808 
 279   0.0000       5.947703       161.8452 
 280   0.0000       6.386983       173.7986 
 281   0.0000       6.447727       175.4516 
 282   0.0000       6.460331       175.7946 
 283   0.0000       6.468845       176.0262 
 284   0.0000       6.486977       176.5196 
 285   0.0000       6.497430       176.8041 
 286   0.0000       6.501817       176.9234 
 287   0.0000       6.524589       177.5431 
 288   0.0000       6.636831       180.5973 
 289   0.0000       6.665245       181.3705 
 290   0.0000       6.692572       182.1141 
 291   0.0000       6.717551       182.7939 
 292   0.0000       6.732352       183.1966 
 293   0.0000       6.741956       183.4580 
 294   0.0000       6.761628       183.9933 
 295   0.0000       6.778304       184.4470 
 296   0.0000       6.839438       186.1106 
 297   0.0000       6.842776       186.2014 
 298   0.0000       6.847209       186.3220 
 299   0.0000       6.865009       186.8064 
 300   0.0000       6.870386       186.9527 
 301   0.0000       6.873394       187.0346 
 302   0.0000       6.884516       187.3372 
 303   0.0000       6.888920       187.4570 
 304   0.0000       6.897782       187.6982 
 305   0.0000       6.904358       187.8771 
 306   0.0000       6.914846       188.1625 
 307   0.0000       6.917470       188.2339 
 308   0.0000       6.923080       188.3866 
 309   0.0000       6.942318       188.9101 
 310   0.0000       6.952171       189.1782 
 311   0.0000       6.968200       189.6144 
 312   0.0000       6.979385       189.9187 
 313   0.0000       6.997680       190.4166 
 314   0.0000       7.000581       190.4955 
 315   0.0000       7.019372       191.0068 
 316   0.0000       7.044494       191.6904 
 317   0.0000       7.057487       192.0440 
 318   0.0000       7.082108       192.7140 
 319   0.0000       7.116756       193.6568 
 320   0.0000       7.340247       199.7383 
 321   0.0000       7.354689       200.1313 
 322   0.0000       7.411254       201.6705 
 323   0.0000       7.433699       202.2812 
 324   0.0000       7.458564       202.9579 
 325   0.0000       7.467412       203.1986 
 326   0.0000       7.471999       203.3234 
 327   0.0000       7.493802       203.9167 
 328   0.0000       7.524598       204.7547 
 329   0.0000       7.539500       205.1602 
 330   0.0000       7.561374       205.7555 
 331   0.0000       7.569211       205.9687 
 332   0.0000       7.589076       206.5093 
 333   0.0000       7.617596       207.2853 
 334   0.0000       7.628660       207.5864 
 335   0.0000       7.633968       207.7308 
 336   0.0000      44.898075      1221.7387 
 337   0.0000      44.967466      1223.6270 
 338   0.0000      44.986149      1224.1354 
 339   0.0000      44.999650      1224.5027 
 340   0.0000      45.064043      1226.2549 
 341   0.0000      45.070862      1226.4405 
 342   0.0000      45.089037      1226.9351 
 343   0.0000      45.156660      1228.7752 

                    ********************************
                    * MULLIKEN POPULATION ANALYSIS *
                    ********************************

-----------------------
MULLIKEN ATOMIC CHARGES
-----------------------
   0 O :   -0.747271
   1 H :    0.373209
   2 H :    0.388829
   3 O :   -0.724524
   4 H :    0.407580
   5 H :    0.350226
   6 O :   -0.785389
   7 H :    0.401361
   8 H :    0.378901
   9 O :   -0.778118
  10 H :    0.408633
  11 H :    0.357566
  12 O :   -0.777503
  13 H :    0.385563
  14 H :    0.398843
  15 O :   -0.785930
  16 H :    0.381069
  17 H :    0.398272
  18 O :   -0.753440
  19 H :    0.381588
  20 H :    0.364310
  21 O :   -0.767623
  22 H :    0.344600
  23 H :    0.399247
Sum of atomic charges:    0.0000000

--------------------------------
MULLIKEN REDUCED ORBITAL CHARGES
--------------------------------
  0 O s       :     3.807047  s :     3.807047
      pz      :     1.733003  p :     4.914859
      px      :     1.386495
      py      :     1.795361
      dz2     :     0.004035  d :     0.023886
      dxz     :     0.004520
      dyz     :     0.005402
      dx2y2   :     0.002543
      dxy     :     0.007385
      f0      :     0.000085  f :     0.001480
      f+1     :     0.000334
      f-1     :     0.000181
      f+2     :     0.000063
      f-2     :     0.000349
      f+3     :     0.000094
      f-3     :     0.000374
  1 H s       :     0.581793  s :     0.581793
      pz      :     0.016998  p :     0.044999
      px      :     0.013266
      py      :     0.014735
  2 H s       :     0.570802  s :     0.570802
      pz      :     0.010320  p :     0.040369
      px      :     0.018017
      py      :     0.012032
  3 O s       :     3.797680  s :     3.797680
      pz      :     1.577268  p :     4.900301
      px      :     1.539889
      py      :     1.783144
      dz2     :     0.011956  d :     0.025141
      dxz     :     0.001195
      dyz     :     0.002389
      dx2y2   :     0.002512
      dxy     :     0.007089
      f0      :     0.000227  f :     0.001402
      f+1     :     0.000382
      f-1     :     0.000156
      f+2     :     0.000050
      f-2     :     0.000056
      f+3     :     0.000053
      f-3     :     0.000478
  4 H s       :     0.544574  s :     0.544574
      pz      :     0.024961  p :     0.047846
      px      :     0.011036
      py      :     0.011849
  5 H s       :     0.605836  s :     0.605836
      pz      :     0.010688  p :     0.043938
      px      :     0.018253
      py      :     0.014996
  6 O s       :     3.796760  s :     3.796760
      pz      :     1.611387  p :     4.963890
      px      :     1.839924
      py      :     1.512579
      dz2     :     0.010905  d :     0.023429
      dxz     :     0.001991
      dyz     :     0.002699
      dx2y2   :     0.003272
      dxy     :     0.004561
      f0      :     0.000149  f :     0.001310
      f+1     :     0.000106
      f-1     :     0.000447
      f+2     :     0.000067
      f-2     :     0.000039
      f+3     :     0.000407
      f-3     :     0.000095
  7 H s       :     0.550310  s :     0.550310
      pz      :     0.025190  p :     0.048329
      px      :     0.012323
      py      :     0.010817
  8 H s       :     0.567696  s :     0.567696
      pz      :     0.009614  p :     0.053403
      px      :     0.015017
      py      :     0.028771
  9 O s       :     3.802635  s :     3.802635
      pz      :     1.555358  p :     4.951092
      px      :     1.848642
      py      :     1.547092
      dz2     :     0.010871  d :     0.023049
      dxz     :     0.001997
      dyz     :     0.002717
      dx2y2   :     0.003092
      dxy     :     0.004372
      f0      :     0.000187  f :     0.001342
      f+1     :     0.000110
      f-1     :     0.000446
      f+2     :     0.000067
      f-2     :     0.000037
      f+3     :     0.000404
      f-3     :     0.000091
 10 H s       :     0.538856  s :     0.538856
      pz      :     0.008245  p :     0.052510
      px      :     0.013967
      py      :     0.030299
 11 H s       :     0.598307  s :     0.598307
      pz      :     0.018772  p :     0.044127
      px      :     0.013511
      py      :     0.011845
 12 O s       :     3.799100  s :     3.799100
      pz      :     1.590428  p :     4.953260
      px      :     1.529385
      py      :     1.833448
      dz2     :     0.011315  d :     0.023851
      dxz     :     0.002916
      dyz     :     0.002080
      dx2y2   :     0.003229
      dxy     :     0.004311
      f0      :     0.000150  f :     0.001292
      f+1     :     0.000449
      f-1     :     0.000105
      f+2     :     0.000065
      f-2     :     0.000038
      f+3     :     0.000089
      f-3     :     0.000397
 13 H s       :     0.566136  s :     0.566136
      pz      :     0.024318  p :     0.048301
      px      :     0.011102
      py      :     0.012881
 14 H s       :     0.547675  s :     0.547675
      pz      :     0.009308  p :     0.053483
      px      :     0.029618
      py      :     0.014557
 15 O s       :     3.801229  s :     3.801229
      pz      :     1.572377  p :     4.960735
      px      :     1.533154
      py      :     1.855204
      dz2     :     0.010437  d :     0.022600
      dxz     :     0.002508
      dyz     :     0.001919
      dx2y2   :     0.003113
      dxy     :     0.004623
      f0      :     0.000191  f :     0.001366
      f+1     :     0.000445
      f-1     :     0.000112
      f+2     :     0.000069
      f-2     :     0.000037
      f+3     :     0.000098
      f-3     :     0.000415
 16 H s       :     0.575256  s :     0.575256
      pz      :     0.019081  p :     0.043675
      px      :     0.011549
      py      :     0.013045
 17 H s       :     0.549235  s :     0.549235
      pz      :     0.008547  p :     0.052493
      px      :     0.029566
      py      :     0.014380
 18 O s       :     3.805905  s :     3.805905
      pz      :     1.545428  p :     4.921299
      px      :     1.818566
      py      :     1.557305
      dz2     :     0.011508  d :     0.024790
      dxz     :     0.002889
      dyz     :     0.001248
      dx2y2   :     0.002057
      dxy     :     0.007089
      f0      :     0.000253  f :     0.001446
      f+1     :     0.000161
      f-1     :     0.000371
      f+2     :     0.000055
      f-2     :     0.000055
      f+3     :     0.000486
      f-3     :     0.000065
 19 H s       :     0.569776  s :     0.569776
      pz      :     0.023784  p :     0.048636
      px      :     0.013164
      py      :     0.011687
 20 H s       :     0.585209  s :     0.585209
      pz      :     0.010367  p :     0.050481
      px      :     0.016649
      py      :     0.023464
 21 O s       :     3.807781  s :     3.807781
      pz      :     1.708382  p :     4.935472
      px      :     1.810939
      py      :     1.416151
      dz2     :     0.003599  d :     0.022938
      dxz     :     0.005433
      dyz     :     0.004197
      dx2y2   :     0.002257
      dxy     :     0.007451
      f0      :     0.000079  f :     0.001432
      f+1     :     0.000178
      f-1     :     0.000310
      f+2     :     0.000070
      f-2     :     0.000349
      f+3     :     0.000356
      f-3     :     0.000089
 22 H s       :     0.609526  s :     0.609526
      pz      :     0.016874  p :     0.045874
      px      :     0.015080
      py      :     0.013920
 23 H s       :     0.544188  s :     0.544188
      pz      :     0.010263  p :     0.056565
      px      :     0.014087
      py      :     0.032215


                     *******************************
                     * LOEWDIN POPULATION ANALYSIS *
                     *******************************

----------------------
LOEWDIN ATOMIC CHARGES
----------------------
   0 O :   -0.298486
   1 H :    0.167231
   2 H :    0.195675
   3 O :   -0.284075
   4 H :    0.164910
   5 H :    0.167713
   6 O :   -0.334605
   7 H :    0.158447
   8 H :    0.146102
   9 O :   -0.307822
  10 H :    0.159034
  11 H :    0.164838
  12 O :   -0.328112
  13 H :    0.151864
  14 H :    0.152250
  15 O :   -0.310858
  16 H :    0.176655
  17 H :    0.155402
  18 O :   -0.357026
  19 H :    0.152866
  20 H :    0.147425
  21 O :   -0.346280
  22 H :    0.152797
  23 H :    0.154053

-------------------------------
LOEWDIN REDUCED ORBITAL CHARGES
-------------------------------
  0 O s       :     3.461990  s :     3.461990
      pz      :     1.687627  p :     4.803143
      px      :     1.366722
      py      :     1.748793
      dz2     :     0.005426  d :     0.031290
      dxz     :     0.006717
      dyz     :     0.005284
      dx2y2   :     0.004176
      dxy     :     0.009687
      f0      :     0.000091  f :     0.002062
      f+1     :     0.000446
      f-1     :     0.000272
      f+2     :     0.000033
      f-2     :     0.000600
      f+3     :     0.000090
      f-3     :     0.000530
  1 H s       :     0.668576  s :     0.668576
      pz      :     0.066736  p :     0.164194
      px      :     0.044602
      py      :     0.052856
  2 H s       :     0.655077  s :     0.655077
      pz      :     0.033177  p :     0.149248
      px      :     0.072633
      py      :     0.043438
  3 O s       :     3.453364  s :     3.453364
      pz      :     1.545300  p :     4.796400
      px      :     1.526061
      py      :     1.725039
      dz2     :     0.015428  d :     0.032186
      dxz     :     0.001707
      dyz     :     0.001809
      dx2y2   :     0.003794
      dxy     :     0.009449
      f0      :     0.000405  f :     0.002124
      f+1     :     0.000562
      f-1     :     0.000333
      f+2     :     0.000021
      f-2     :     0.000046
      f+3     :     0.000027
      f-3     :     0.000732
  4 H s       :     0.663102  s :     0.663102
      pz      :     0.094817  p :     0.171988
      px      :     0.035856
      py      :     0.041315
  5 H s       :     0.674345  s :     0.674345
      pz      :     0.031367  p :     0.157942
      px      :     0.071765
      py      :     0.054810
  6 O s       :     3.454621  s :     3.454621
      pz      :     1.581462  p :     4.849793
      px      :     1.782964
      py      :     1.485367
      dz2     :     0.013066  d :     0.028301
      dxz     :     0.001156
      dyz     :     0.003518
      dx2y2   :     0.004842
      dxy     :     0.005718
      f0      :     0.000319  f :     0.001890
      f+1     :     0.000193
      f-1     :     0.000689
      f+2     :     0.000035
      f-2     :     0.000043
      f+3     :     0.000544
      f-3     :     0.000067
  7 H s       :     0.666467  s :     0.666467
      pz      :     0.095278  p :     0.175087
      px      :     0.042447
      py      :     0.037362
  8 H s       :     0.667731  s :     0.667731
      pz      :     0.030851  p :     0.186167
      px      :     0.052796
      py      :     0.102520
  9 O s       :     3.455948  s :     3.455948
      pz      :     1.530076  p :     4.819893
      px      :     1.788539
      py      :     1.501278
      dz2     :     0.015034  d :     0.030019
      dxz     :     0.001282
      dyz     :     0.004191
      dx2y2   :     0.004393
      dxy     :     0.005119
      f0      :     0.000388  f :     0.001962
      f+1     :     0.000191
      f-1     :     0.000735
      f+2     :     0.000039
      f-2     :     0.000047
      f+3     :     0.000501
      f-3     :     0.000061
 10 H s       :     0.649680  s :     0.649680
      pz      :     0.028568  p :     0.191286
      px      :     0.052600
      py      :     0.110118
 11 H s       :     0.675220  s :     0.675220
      pz      :     0.079163  p :     0.159941
      px      :     0.043286
      py      :     0.037492
 12 O s       :     3.455443  s :     3.455443
      pz      :     1.569365  p :     4.841960
      px      :     1.493863
      py      :     1.778732
      dz2     :     0.013764  d :     0.028828
      dxz     :     0.003939
      dyz     :     0.001230
      dx2y2   :     0.004646
      dxy     :     0.005249
      f0      :     0.000337  f :     0.001881
      f+1     :     0.000696
      f-1     :     0.000191
      f+2     :     0.000036
      f-2     :     0.000045
      f+3     :     0.000063
      f-3     :     0.000512
 13 H s       :     0.675196  s :     0.675196
      pz      :     0.092065  p :     0.172939
      px      :     0.037883
      py      :     0.042992
 14 H s       :     0.658689  s :     0.658689
      pz      :     0.030070  p :     0.189061
      px      :     0.106447
      py      :     0.052544
 15 O s       :     3.453694  s :     3.453694
      pz      :     1.538481  p :     4.826062
      px      :     1.494349
      py      :     1.793232
      dz2     :     0.014063  d :     0.029138
      dxz     :     0.003829
      dyz     :     0.001220
      dx2y2   :     0.004508
      dxy     :     0.005517
      f0      :     0.000374  f :     0.001964
      f+1     :     0.000721
      f-1     :     0.000192
      f+2     :     0.000038
      f-2     :     0.000046
      f+3     :     0.000065
      f-3     :     0.000527
 16 H s       :     0.663218  s :     0.663218
      pz      :     0.080355  p :     0.160127
      px      :     0.036934
      py      :     0.042837
 17 H s       :     0.656039  s :     0.656039
      pz      :     0.029062  p :     0.188559
      px      :     0.106735
      py      :     0.052763
 18 O s       :     3.460586  s :     3.460586
      pz      :     1.530821  p :     4.864051
      px      :     1.791819
      py      :     1.541411
      dz2     :     0.015041  d :     0.030346
      dxz     :     0.002242
      dyz     :     0.001926
      dx2y2   :     0.002155
      dxy     :     0.008981
      f0      :     0.000452  f :     0.002043
      f+1     :     0.000304
      f-1     :     0.000548
      f+2     :     0.000023
      f-2     :     0.000047
      f+3     :     0.000667
      f-3     :     0.000002
 19 H s       :     0.676629  s :     0.676629
      pz      :     0.091253  p :     0.170504
      px      :     0.042379
      py      :     0.036872
 20 H s       :     0.679733  s :     0.679733
      pz      :     0.031273  p :     0.172842
      px      :     0.057700
      py      :     0.083869
 21 O s       :     3.460910  s :     3.460910
      pz      :     1.676486  p :     4.854051
      px      :     1.781979
      py      :     1.395586
      dz2     :     0.004581  d :     0.029331
      dxz     :     0.005657
      dyz     :     0.006768
      dx2y2   :     0.003227
      dxy     :     0.009099
      f0      :     0.000082  f :     0.001987
      f+1     :     0.000263
      f-1     :     0.000427
      f+2     :     0.000034
      f-2     :     0.000619
      f+3     :     0.000479
      f-3     :     0.000084
 22 H s       :     0.682428  s :     0.682428
      pz      :     0.065730  p :     0.164776
      px      :     0.053324
      py      :     0.045722
 23 H s       :     0.650331  s :     0.650331
      pz      :     0.033444  p :     0.195616
      px      :     0.047611
      py      :     0.114561


                      *****************************
                      * MAYER POPULATION ANALYSIS *
                      *****************************

  NA   - Mulliken gross atomic population
  ZA   - Total nuclear charge
  QA   - Mulliken gross atomic charge
  VA   - Mayer's total valence
  BVA  - Mayer's bonded valence
  FA   - Mayer's free valence

  ATOM       NA         ZA         QA         VA         BVA        FA
  0 O      8.7473     8.0000    -0.7473     1.7515     1.7515     0.0000
  1 H      0.6268     1.0000     0.3732     0.8768     0.8768     0.0000
  2 H      0.6112     1.0000     0.3888     0.8640     0.8640    -0.0000
  3 O      8.7245     8.0000    -0.7245     1.7590     1.7590     0.0000
  4 H      0.5924     1.0000     0.4076     0.8594     0.8594     0.0000
  5 H      0.6498     1.0000     0.3502     0.8933     0.8933    -0.0000
  6 O      8.7854     8.0000    -0.7854     1.6953     1.6953     0.0000
  7 H      0.5986     1.0000     0.4014     0.8728     0.8728     0.0000
  8 H      0.6211     1.0000     0.3789     0.8959     0.8959    -0.0000
  9 O      8.7781     8.0000    -0.7781     1.6847     1.6847    -0.0000
 10 H      0.5914     1.0000     0.4086     0.8832     0.8832    -0.0000
 11 H      0.6424     1.0000     0.3576     0.8889     0.8889    -0.0000
 12 O      8.7775     8.0000    -0.7775     1.7062     1.7062     0.0000
 13 H      0.6144     1.0000     0.3856     0.8754     0.8754     0.0000
 14 H      0.6012     1.0000     0.3988     0.8835     0.8835     0.0000
 15 O      8.7859     8.0000    -0.7859     1.6887     1.6887     0.0000
 16 H      0.6189     1.0000     0.3811     0.8733     0.8733     0.0000
 17 H      0.6017     1.0000     0.3983     0.8861     0.8861    -0.0000
 18 O      8.7534     8.0000    -0.7534     1.7349     1.7349    -0.0000
 19 H      0.6184     1.0000     0.3816     0.8765     0.8765    -0.0000
 20 H      0.6357     1.0000     0.3643     0.8965     0.8965    -0.0000
 21 O      8.7676     8.0000    -0.7676     1.6953     1.6953    -0.0000
 22 H      0.6554     1.0000     0.3446     0.8977     0.8977     0.0000
 23 H      0.6008     1.0000     0.3992     0.8768     0.8768    -0.0000

  Mayer bond orders larger than 0.100000
B(  0-O ,  1-H ) :   0.8674 B(  0-O ,  2-H ) :   0.8509 B(  3-O ,  4-H ) :   0.8292 
B(  3-O ,  5-H ) :   0.8844 B(  6-O ,  7-H ) :   0.8278 B(  6-O ,  8-H ) :   0.8310 
B(  9-O , 10-H ) :   0.7689 B(  9-O , 11-H ) :   0.8791 B( 10-H , 12-O ) :   0.1025 
B( 12-O , 13-H ) :   0.8506 B( 12-O , 14-H ) :   0.8002 B( 15-O , 16-H ) :   0.8628 
B( 15-O , 17-H ) :   0.7946 B( 18-O , 19-H ) :   0.8602 B( 18-O , 20-H ) :   0.8668 
B( 21-O , 22-H ) :   0.8892 B( 21-O , 23-H ) :   0.7995 

-------
TIMINGS
-------

Total SCF time: 0 days 0 hours 0 min 28 sec 

Total time                  ....      28.706 sec
Sum of individual times     ....      28.400 sec  ( 98.9%)

Fock matrix formation       ....      27.826 sec  ( 96.9%)
Diagonalization             ....       0.137 sec  (  0.5%)
Density matrix formation    ....       0.016 sec  (  0.1%)
Population analysis         ....       0.023 sec  (  0.1%)
Initial guess               ....       0.197 sec  (  0.7%)
Orbital Transformation      ....       0.000 sec  (  0.0%)
Orbital Orthonormalization  ....       0.000 sec  (  0.0%)
DIIS solution               ....       0.052 sec  (  0.2%)
SOSCF solution              ....       0.060 sec  (  0.2%)


           ************************************************************
           *        Program running with 6 parallel MPI-processes     *
           *              working on a common directory               *
           ************************************************************

------------------------------------------------------------------------------
                                ORCA  MP2 
------------------------------------------------------------------------------

Freezing NCore=16 chemical core electrons
MP2 will be done in the AO integral direct mode
The Q1-step will be done using symmetric double matrices
Dimension of the basis                    ...  344
Memory devoted for MP2                    ... 8000 MB   
Memory needed for all in one shot         ...  935 MB
Number of MOs that can be treated together...   50      
MP2 density construction                  ... relaxed
The MP2 gradient is requested => amplitudes will be stored on disk
Total number of MOs              ...   32
Number of MOs treated per batch  ...    6 
Number of batches necessary      ...    1 
OPERATORS   0/  0 PASS   0
-----------------------------------------------
 MP2 CORRELATION ENERGY   :     -2.077213151 Eh
-----------------------------------------------


---------------------
MP2 DENSITY FORMATION
---------------------

Completing the external part of the density      ... done
Storing the unrelaxed density                    ... done

Calculating G(D)                                 ... done
Completing the Lagrangian                        ... done
Solving the Z-vector equations                   ... 

------------------------------------------------------------------------------
                           ORCA CP-SCF CALCULATION
------------------------------------------------------------------------------

Input orbitals are from        ... 12h2o.su.etal.mol0,3,4,5,6,7,9,10-orca.engrad-mp2.def2tzvp.frozencore.gbw
Input Perturbation             ... 12h2o.su.etal.mol0,3,4,5,6,7,9,10-orca.engrad-mp2.def2tzvp.frozencore.pin.tmp
Wavefunction output            ... 12h2o.su.etal.mol0,3,4,5,6,7,9,10-orca.engrad-mp2.def2tzvp.frozencore.pout.tmp
Perturbation mode              ... Real perturbation (singlet)
Solver                         ... POPLE
Max. number of iterations      ... 128
Convergence tolerance          ... 1.000e-08
Integral handling              ... Direct
Number of perturbations        ... 1
Number of operators            ... 1
Orbital ranges used for CP-SCF:
 Operator 0:  Orbitals   0... 39  to  40...343
Variables per vector in CP-SCF ... 12160
Number of vectors sought       ... 1
     CP-SCF ITERATION   0: 
     CP-SCF ITERATION   1:      0.001075784206
     CP-SCF ITERATION   2:      0.000030778810
     CP-SCF ITERATION   3:      0.000001062414
     CP-SCF ITERATION   4:      0.000000145748
     CP-SCF ITERATION   5:      0.000000013383
     CP-SCF ITERATION   6:      0.000000000762
                                                 ... done
Finalizing the relaxed density                   ... done
Transforming P to the AO basis                   ... done
Storing the relaxed density                      ... done

------------------------------------
ENERGY WEIGHTED DENSITY FINALIZATION
------------------------------------

Gathering the parts of the W-matrix              ...                                                      done
Forming the Z-density                            ... done
Transforming Z to the AO basis                   ... done
Calculating G(Z)                                 ... done
Finalizing the W-matrix                          ...                                                      done
Transforming W to the AO basis and storing       ... done

                *********************************************
                * UNRELAXED MP2 DENSITY POPULATION ANALYSIS *
                *********************************************

------------------------------------------------------------------------------
                           ORCA POPULATION ANALYSIS
------------------------------------------------------------------------------
Input electron density              ... 12h2o.su.etal.mol0,3,4,5,6,7,9,10-orca.engrad-mp2.def2tzvp.frozencore.pmp2ur
BaseName (.gbw .S,...)              ... 12h2o.su.etal.mol0,3,4,5,6,7,9,10-orca.engrad-mp2.def2tzvp.frozencore

                    ********************************
                    * MULLIKEN POPULATION ANALYSIS *
                    ********************************

-----------------------
MULLIKEN ATOMIC CHARGES
-----------------------
   0 O :   -0.741549
   1 H :    0.370952
   2 H :    0.385946
   3 O :   -0.717852
   4 H :    0.404607
   5 H :    0.347703
   6 O :   -0.777828
   7 H :    0.398066
   8 H :    0.374368
   9 O :   -0.770826
  10 H :    0.403502
  11 H :    0.355092
  12 O :   -0.769669
  13 H :    0.382579
  14 H :    0.394165
  15 O :   -0.778805
  16 H :    0.378645
  17 H :    0.393311
  18 O :   -0.747569
  19 H :    0.378700
  20 H :    0.361085
  21 O :   -0.761560
  22 H :    0.342317
  23 H :    0.394617
Sum of atomic charges:    0.0000000

--------------------------------
MULLIKEN REDUCED ORBITAL CHARGES
--------------------------------
  0 O s       :     3.802191  s :     3.802191
      pz      :     1.721954  p :     4.884111
      px      :     1.378631
      py      :     1.783526
      dz2     :     0.009607  d :     0.051198
      dxz     :     0.009930
      dyz     :     0.010914
      dx2y2   :     0.008033
      dxy     :     0.012715
      f0      :     0.000458  f :     0.004049
      f+1     :     0.000697
      f-1     :     0.000548
      f+2     :     0.000432
      f-2     :     0.000714
      f+3     :     0.000465
      f-3     :     0.000734
  1 H s       :     0.582526  s :     0.582526
      pz      :     0.017460  p :     0.046522
      px      :     0.013643
      py      :     0.015419
  2 H s       :     0.572214  s :     0.572214
      pz      :     0.011133  p :     0.041840
      px      :     0.017946
      py      :     0.012761
  3 O s       :     3.792532  s :     3.792532
      pz      :     1.567526  p :     4.868869
      px      :     1.530567
      py      :     1.770777
      dz2     :     0.017174  d :     0.052452
      dxz     :     0.006644
      dyz     :     0.008011
      dx2y2   :     0.008151
      dxy     :     0.012472
      f0      :     0.000611  f :     0.003998
      f+1     :     0.000751
      f-1     :     0.000535
      f+2     :     0.000414
      f-2     :     0.000423
      f+3     :     0.000427
      f-3     :     0.000837
  4 H s       :     0.546105  s :     0.546105
      pz      :     0.024999  p :     0.049288
      px      :     0.011658
      py      :     0.012632
  5 H s       :     0.606740  s :     0.606740
      pz      :     0.011489  p :     0.045557
      px      :     0.018439
      py      :     0.015628
  6 O s       :     3.791492  s :     3.791492
      pz      :     1.601294  p :     4.931119
      px      :     1.826786
      py      :     1.503039
      dz2     :     0.016262  d :     0.051298
      dxz     :     0.007709
      dyz     :     0.008199
      dx2y2   :     0.008973
      dxy     :     0.010155
      f0      :     0.000538  f :     0.003919
      f+1     :     0.000483
      f-1     :     0.000819
      f+2     :     0.000435
      f-2     :     0.000408
      f+3     :     0.000768
      f-3     :     0.000468
  7 H s       :     0.552125  s :     0.552125
      pz      :     0.025274  p :     0.049810
      px      :     0.013129
      py      :     0.011407
  8 H s       :     0.570522  s :     0.570522
      pz      :     0.010455  p :     0.055110
      px      :     0.015718
      py      :     0.028937
  9 O s       :     3.797265  s :     3.797265
      pz      :     1.545915  p :     4.918602
      px      :     1.835392
      py      :     1.537295
      dz2     :     0.016255  d :     0.051011
      dxz     :     0.007725
      dyz     :     0.008212
      dx2y2   :     0.008820
      dxy     :     0.010000
      f0      :     0.000572  f :     0.003948
      f+1     :     0.000485
      f-1     :     0.000816
      f+2     :     0.000434
      f-2     :     0.000406
      f+3     :     0.000769
      f-3     :     0.000466
 10 H s       :     0.542453  s :     0.542453
      pz      :     0.008995  p :     0.054044
      px      :     0.014605
      py      :     0.030444
 11 H s       :     0.599143  s :     0.599143
      pz      :     0.018938  p :     0.045765
      px      :     0.014358
      py      :     0.012469
 12 O s       :     3.793793  s :     3.793793
      pz      :     1.580518  p :     4.920310
      px      :     1.519702
      py      :     1.820090
      dz2     :     0.016634  d :     0.051664
      dxz     :     0.008393
      dyz     :     0.007779
      dx2y2   :     0.008935
      dxy     :     0.009924
      f0      :     0.000538  f :     0.003902
      f+1     :     0.000821
      f-1     :     0.000481
      f+2     :     0.000433
      f-2     :     0.000407
      f+3     :     0.000462
      f-3     :     0.000759
 13 H s       :     0.567543  s :     0.567543
      pz      :     0.024440  p :     0.049878
      px      :     0.011722
      py      :     0.013716
 14 H s       :     0.550730  s :     0.550730
      pz      :     0.010122  p :     0.055105
      px      :     0.029769
      py      :     0.015214
 15 O s       :     3.795954  s :     3.795954
      pz      :     1.562686  p :     4.928255
      px      :     1.523436
      py      :     1.842133
      dz2     :     0.015871  d :     0.050624
      dxz     :     0.008023
      dyz     :     0.007660
      dx2y2   :     0.008836
      dxy     :     0.010233
      f0      :     0.000577  f :     0.003972
      f+1     :     0.000814
      f-1     :     0.000488
      f+2     :     0.000437
      f-2     :     0.000406
      f+3     :     0.000472
      f-3     :     0.000778
 16 H s       :     0.576150  s :     0.576150
      pz      :     0.019197  p :     0.045205
      px      :     0.012145
      py      :     0.013863
 17 H s       :     0.552607  s :     0.552607
      pz      :     0.009318  p :     0.054081
      px      :     0.029711
      py      :     0.015052
 18 O s       :     3.801122  s :     3.801122
      pz      :     1.535933  p :     4.890653
      px      :     1.806933
      py      :     1.547787
      dz2     :     0.016676  d :     0.051774
      dxz     :     0.008396
      dyz     :     0.006706
      dx2y2   :     0.007625
      dxy     :     0.012372
      f0      :     0.000633  f :     0.004020
      f+1     :     0.000534
      f-1     :     0.000740
      f+2     :     0.000416
      f-2     :     0.000421
      f+3     :     0.000842
      f-3     :     0.000434
 19 H s       :     0.571063  s :     0.571063
      pz      :     0.023852  p :     0.050237
      px      :     0.014014
      py      :     0.012370
 20 H s       :     0.586779  s :     0.586779
      pz      :     0.011181  p :     0.052137
      px      :     0.017278
      py      :     0.023677
 21 O s       :     3.802848  s :     3.802848
      pz      :     1.697391  p :     4.904269
      px      :     1.799466
      py      :     1.407412
      dz2     :     0.009251  d :     0.050429
      dxz     :     0.010879
      dyz     :     0.009690
      dx2y2   :     0.007796
      dxy     :     0.012813
      f0      :     0.000451  f :     0.004014
      f+1     :     0.000544
      f-1     :     0.000677
      f+2     :     0.000440
      f-2     :     0.000716
      f+3     :     0.000723
      f-3     :     0.000464
 22 H s       :     0.610142  s :     0.610142
      pz      :     0.017362  p :     0.047541
      px      :     0.015810
      py      :     0.014369
 23 H s       :     0.547169  s :     0.547169
      pz      :     0.011080  p :     0.058214
      px      :     0.014816
      py      :     0.032318


                     *******************************
                     * LOEWDIN POPULATION ANALYSIS *
                     *******************************

----------------------
LOEWDIN ATOMIC CHARGES
----------------------
   0 O :   -0.294129
   1 H :    0.166049
   2 H :    0.193870
   3 O :   -0.279714
   4 H :    0.163008
   5 H :    0.166154
   6 O :   -0.330401
   7 H :    0.156337
   8 H :    0.143381
   9 O :   -0.303281
  10 H :    0.156209
  11 H :    0.163232
  12 O :   -0.323668
  13 H :    0.149801
  14 H :    0.149542
  15 O :   -0.306387
  16 H :    0.175197
  17 H :    0.152574
  18 O :   -0.354005
  19 H :    0.150954
  20 H :    0.145278
  21 O :   -0.342940
  22 H :    0.151478
  23 H :    0.151463

-------------------------------
LOEWDIN REDUCED ORBITAL CHARGES
-------------------------------
  0 O s       :     3.458229  s :     3.458229
      pz      :     1.676138  p :     4.771381
      px      :     1.358515
      py      :     1.736728
      dz2     :     0.011129  d :     0.059693
      dxz     :     0.012337
      dyz     :     0.011083
      dx2y2   :     0.009766
      dxy     :     0.015378
      f0      :     0.000475  f :     0.004826
      f+1     :     0.000856
      f-1     :     0.000659
      f+2     :     0.000409
      f-2     :     0.001009
      f+3     :     0.000475
      f-3     :     0.000944
  1 H s       :     0.666826  s :     0.666826
      pz      :     0.067905  p :     0.167125
      px      :     0.045400
      py      :     0.053820
  2 H s       :     0.653958  s :     0.653958
      pz      :     0.034005  p :     0.152172
      px      :     0.073773
      py      :     0.044394
  3 O s       :     3.449552  s :     3.449552
      pz      :     1.535591  p :     4.764693
      px      :     1.516512
      py      :     1.712590
      dz2     :     0.021318  d :     0.060550
      dxz     :     0.007111
      dyz     :     0.007362
      dx2y2   :     0.009411
      dxy     :     0.015348
      f0      :     0.000831  f :     0.004919
      f+1     :     0.000985
      f-1     :     0.000735
      f+2     :     0.000389
      f-2     :     0.000420
      f+3     :     0.000406
      f-3     :     0.001152
  4 H s       :     0.662299  s :     0.662299
      pz      :     0.096028  p :     0.174694
      px      :     0.036566
      py      :     0.042099
  5 H s       :     0.672688  s :     0.672688
      pz      :     0.032143  p :     0.161158
      px      :     0.073152
      py      :     0.055863
  6 O s       :     3.450943  s :     3.450943
      pz      :     1.571474  p :     4.817498
      px      :     1.769977
      py      :     1.476048
      dz2     :     0.019039  d :     0.057262
      dxz     :     0.006793
      dyz     :     0.009054
      dx2y2   :     0.010723
      dxy     :     0.011654
      f0      :     0.000739  f :     0.004698
      f+1     :     0.000585
      f-1     :     0.001131
      f+2     :     0.000410
      f-2     :     0.000419
      f+3     :     0.000963
      f-3     :     0.000451
  7 H s       :     0.665834  s :     0.665834
      pz      :     0.096511  p :     0.177830
      px      :     0.043190
      py      :     0.038128
  8 H s       :     0.667573  s :     0.667573
      pz      :     0.031706  p :     0.189046
      px      :     0.053672
      py      :     0.103668
  9 O s       :     3.452206  s :     3.452206
      pz      :     1.519822  p :     4.787223
      px      :     1.775488
      py      :     1.491913
      dz2     :     0.021064  d :     0.059085
      dxz     :     0.006944
      dyz     :     0.009730
      dx2y2   :     0.010283
      dxy     :     0.011065
      f0      :     0.000806  f :     0.004768
      f+1     :     0.000583
      f-1     :     0.001175
      f+2     :     0.000414
      f-2     :     0.000423
      f+3     :     0.000920
      f-3     :     0.000447
 10 H s       :     0.650015  s :     0.650015
      pz      :     0.029359  p :     0.193776
      px      :     0.053374
      py      :     0.111043
 11 H s       :     0.673586  s :     0.673586
      pz      :     0.080790  p :     0.163182
      px      :     0.044068
      py      :     0.038323
 12 O s       :     3.451738  s :     3.451738
      pz      :     1.559376  p :     4.809500
      px      :     1.484548
      py      :     1.765576
      dz2     :     0.019709  d :     0.057740
      dxz     :     0.009461
      dyz     :     0.006856
      dx2y2   :     0.010526
      dxy     :     0.011189
      f0      :     0.000757  f :     0.004690
      f+1     :     0.001139
      f-1     :     0.000583
      f+2     :     0.000411
      f-2     :     0.000421
      f+3     :     0.000448
      f-3     :     0.000931
 13 H s       :     0.674289  s :     0.674289
      pz      :     0.093454  p :     0.175911
      px      :     0.038699
      py      :     0.043758
 14 H s       :     0.658750  s :     0.658750
      pz      :     0.030890  p :     0.191708
      px      :     0.107477
      py      :     0.053340
 15 O s       :     3.449968  s :     3.449968
      pz      :     1.528128  p :     4.793422
      px      :     1.484956
      py      :     1.780338
      dz2     :     0.020111  d :     0.058229
      dxz     :     0.009375
      dyz     :     0.006889
      dx2y2   :     0.010398
      dxy     :     0.011456
      f0      :     0.000792  f :     0.004769
      f+1     :     0.001161
      f-1     :     0.000585
      f+2     :     0.000413
      f-2     :     0.000421
      f+3     :     0.000449
      f-3     :     0.000947
 16 H s       :     0.661710  s :     0.661710
      pz      :     0.081774  p :     0.163093
      px      :     0.037720
      py      :     0.043599
 17 H s       :     0.656214  s :     0.656214
      pz      :     0.029873  p :     0.191212
      px      :     0.107739
      py      :     0.053601
 18 O s       :     3.456931  s :     3.456931
      pz      :     1.521223  p :     4.833777
      px      :     1.780657
      py      :     1.531896
      dz2     :     0.020905  d :     0.058483
      dxz     :     0.007699
      dyz     :     0.007343
      dx2y2   :     0.007700
      dxy     :     0.014835
      f0      :     0.000874  f :     0.004814
      f+1     :     0.000701
      f-1     :     0.000972
      f+2     :     0.000388
      f-2     :     0.000420
      f+3     :     0.001082
      f-3     :     0.000376
 19 H s       :     0.675542  s :     0.675542
      pz      :     0.092652  p :     0.173503
      px      :     0.043199
      py      :     0.037653
 20 H s       :     0.678815  s :     0.678815
      pz      :     0.032069  p :     0.175907
      px      :     0.058687
      py      :     0.085152
 21 O s       :     3.457256  s :     3.457256
      pz      :     1.665018  p :     4.822978
      px      :     1.770863
      py      :     1.387097
      dz2     :     0.010321  d :     0.057940
      dxz     :     0.011435
      dyz     :     0.012474
      dx2y2   :     0.008874
      dxy     :     0.014836
      f0      :     0.000466  f :     0.004767
      f+1     :     0.000648
      f-1     :     0.000842
      f+2     :     0.000411
      f-2     :     0.001029
      f+3     :     0.000898
      f-3     :     0.000472
 22 H s       :     0.680511  s :     0.680511
      pz      :     0.066995  p :     0.168011
      px      :     0.054343
      py      :     0.046673
 23 H s       :     0.650481  s :     0.650481
      pz      :     0.034284  p :     0.198057
      px      :     0.048486
      py      :     0.115286


                      *****************************
                      * MAYER POPULATION ANALYSIS *
                      *****************************

  NA   - Mulliken gross atomic population
[...]
      f+2     :     0.000416
      f-2     :     0.000420
      f+3     :     0.000819
      f-3     :     0.000435
 19 H s       :     0.582462  s :     0.582462
      pz      :     0.022959  p :     0.050738
      px      :     0.014906
      py      :     0.012873
 20 H s       :     0.601442  s :     0.601442
      pz      :     0.011897  p :     0.052780
      px      :     0.017740
      py      :     0.023144
 21 O s       :     3.804544  s :     3.804544
      pz      :     1.686029  p :     4.879570
      px      :     1.794008
      py      :     1.399532
      dz2     :     0.009094  d :     0.048553
      dxz     :     0.010564
      dyz     :     0.009116
      dx2y2   :     0.007686
      dxy     :     0.012093
      f0      :     0.000449  f :     0.003947
      f+1     :     0.000536
      f-1     :     0.000658
      f+2     :     0.000440
      f-2     :     0.000696
      f+3     :     0.000706
      f-3     :     0.000462
 22 H s       :     0.615886  s :     0.615886
      pz      :     0.017486  p :     0.048326
      px      :     0.016445
      py      :     0.014395
 23 H s       :     0.570110  s :     0.570110
      pz      :     0.011806  p :     0.058414
      px      :     0.015337
      py      :     0.031271


                     *******************************
                     * LOEWDIN POPULATION ANALYSIS *
                     *******************************

----------------------
LOEWDIN ATOMIC CHARGES
----------------------
   0 O :   -0.288657
   1 H :    0.167640
   2 H :    0.194570
   3 O :   -0.273088
   4 H :    0.159419
   5 H :    0.167959
   6 O :   -0.322707
   7 H :    0.151621
   8 H :    0.136700
   9 O :   -0.295168
  10 H :    0.147427
  11 H :    0.164581
  12 O :   -0.314696
  13 H :    0.146274
  14 H :    0.142099
  15 O :   -0.298504
  16 H :    0.176285
  17 H :    0.144590
  18 O :   -0.353228
  19 H :    0.148127
  20 H :    0.141486
  21 O :   -0.340318
  22 H :    0.153422
  23 H :    0.144166

-------------------------------
LOEWDIN REDUCED ORBITAL CHARGES
-------------------------------
  0 O s       :     3.460016  s :     3.460016
      pz      :     1.671243  p :     4.765105
      px      :     1.363613
      py      :     1.730249
      dz2     :     0.011089  d :     0.058691
      dxz     :     0.011982
      dyz     :     0.011082
      dx2y2   :     0.009572
      dxy     :     0.014966
      f0      :     0.000478  f :     0.004845
      f+1     :     0.000862
      f-1     :     0.000659
      f+2     :     0.000409
      f-2     :     0.001009
      f+3     :     0.000478
      f-3     :     0.000949
  1 H s       :     0.665479  s :     0.665479
      pz      :     0.067913  p :     0.166881
      px      :     0.044632
      py      :     0.054335
  2 H s       :     0.653433  s :     0.653433
      pz      :     0.034680  p :     0.151997
      px      :     0.072300
      py      :     0.045017
  3 O s       :     3.450417  s :     3.450417
      pz      :     1.537195  p :     4.758053
      px      :     1.518031
      py      :     1.702827
      dz2     :     0.020786  d :     0.059680
      dxz     :     0.007010
      dyz     :     0.007411
      dx2y2   :     0.009450
      dxy     :     0.015023
      f0      :     0.000834  f :     0.004938
      f+1     :     0.000991
      f-1     :     0.000736
      f+2     :     0.000391
      f-2     :     0.000420
      f+3     :     0.000408
      f-3     :     0.001158
  4 H s       :     0.665817  s :     0.665817
      pz      :     0.095163  p :     0.174764
      px      :     0.036875
      py      :     0.042726
  5 H s       :     0.670699  s :     0.670699
      pz      :     0.032620  p :     0.161342
      px      :     0.072467
      py      :     0.056256
  6 O s       :     3.451449  s :     3.451449
      pz      :     1.573026  p :     4.809752
      px      :     1.758009
      py      :     1.478717
      dz2     :     0.018705  d :     0.056775
      dxz     :     0.006854
      dyz     :     0.008893
      dx2y2   :     0.010731
      dxy     :     0.011593
      f0      :     0.000740  f :     0.004730
      f+1     :     0.000587
      f-1     :     0.001143
      f+2     :     0.000412
      f-2     :     0.000418
      f+3     :     0.000976
      f-3     :     0.000454
  7 H s       :     0.670242  s :     0.670242
      pz      :     0.096053  p :     0.178137
      px      :     0.043736
      py      :     0.038349
  8 H s       :     0.673379  s :     0.673379
      pz      :     0.032297  p :     0.189921
      px      :     0.054195
      py      :     0.103429
  9 O s       :     3.453783  s :     3.453783
      pz      :     1.519386  p :     4.777901
      px      :     1.763790
      py      :     1.494724
      dz2     :     0.020671  d :     0.058680
      dxz     :     0.007028
      dyz     :     0.009524
      dx2y2   :     0.010366
      dxy     :     0.011091
      f0      :     0.000807  f :     0.004804
      f+1     :     0.000585
      f-1     :     0.001189
      f+2     :     0.000415
      f-2     :     0.000422
      f+3     :     0.000936
      f-3     :     0.000450
 10 H s       :     0.658165  s :     0.658165
      pz      :     0.029657  p :     0.194408
      px      :     0.053777
      py      :     0.110973
 11 H s       :     0.672024  s :     0.672024
      pz      :     0.080164  p :     0.163395
      px      :     0.044746
      py      :     0.038485
 12 O s       :     3.452424  s :     3.452424
      pz      :     1.560706  p :     4.800251
      px      :     1.487156
      py      :     1.752389
      dz2     :     0.019349  d :     0.057299
      dxz     :     0.009286
      dyz     :     0.006929
      dx2y2   :     0.010557
      dxy     :     0.011178
      f0      :     0.000757  f :     0.004722
      f+1     :     0.001151
      f-1     :     0.000585
      f+2     :     0.000413
      f-2     :     0.000420
      f+3     :     0.000451
      f-3     :     0.000944
 13 H s       :     0.677427  s :     0.677427
      pz      :     0.092976  p :     0.176299
      px      :     0.039006
      py      :     0.044316
 14 H s       :     0.665478  s :     0.665478
      pz      :     0.031396  p :     0.192423
      px      :     0.107357
      py      :     0.053670
 15 O s       :     3.451034  s :     3.451034
      pz      :     1.527246  p :     4.784918
      px      :     1.487730
      py      :     1.769942
      dz2     :     0.019721  d :     0.057749
      dxz     :     0.009177
      dyz     :     0.006956
      dx2y2   :     0.010458
      dxy     :     0.011437
      f0      :     0.000794  f :     0.004803
      f+1     :     0.001173
      f-1     :     0.000587
      f+2     :     0.000415
      f-2     :     0.000420
      f+3     :     0.000453
      f-3     :     0.000961
 16 H s       :     0.660807  s :     0.660807
      pz      :     0.080830  p :     0.162908
      px      :     0.037797
      py      :     0.044282
 17 H s       :     0.663446  s :     0.663446
      pz      :     0.030195  p :     0.191964
      px      :     0.107592
      py      :     0.054177
 18 O s       :     3.457702  s :     3.457702
      pz      :     1.522125  p :     4.833174
      px      :     1.778105
      py      :     1.532945
      dz2     :     0.020335  d :     0.057515
      dxz     :     0.007731
      dyz     :     0.007227
      dx2y2   :     0.007664
      dxy     :     0.014558
      f0      :     0.000878  f :     0.004837
      f+1     :     0.000700
      f-1     :     0.000980
      f+2     :     0.000390
      f-2     :     0.000420
      f+3     :     0.001092
      f-3     :     0.000376
 19 H s       :     0.678001  s :     0.678001
      pz      :     0.091755  p :     0.173872
      px      :     0.044029
      py      :     0.038088
 20 H s       :     0.681884  s :     0.681884
      pz      :     0.032600  p :     0.176631
      px      :     0.059247
      py      :     0.084784
 21 O s       :     3.458800  s :     3.458800
      pz      :     1.659456  p :     4.819421
      px      :     1.769435
      py      :     1.390530
      dz2     :     0.010361  d :     0.057292
      dxz     :     0.011369
      dyz     :     0.012124
      dx2y2   :     0.008876
      dxy     :     0.014561
      f0      :     0.000469  f :     0.004805
      f+1     :     0.000649
      f-1     :     0.000854
      f+2     :     0.000412
      f-2     :     0.001031
      f+3     :     0.000914
      f-3     :     0.000476
 22 H s       :     0.678437  s :     0.678437
      pz      :     0.066964  p :     0.168141
      px      :     0.054946
      py      :     0.046232
 23 H s       :     0.657579  s :     0.657579
      pz      :     0.034873  p :     0.198255
      px      :     0.049035
      py      :     0.114348


                      *****************************
                      * MAYER POPULATION ANALYSIS *
                      *****************************

  NA   - Mulliken gross atomic population
  ZA   - Total nuclear charge
  QA   - Mulliken gross atomic charge
  VA   - Mayer's total valence
  BVA  - Mayer's bonded valence
  FA   - Mayer's free valence

  ATOM       NA         ZA         QA         VA         BVA        FA
  0 O      8.7194     8.0000    -0.7194     2.1035     1.7174     0.3861
  1 H      0.6362     1.0000     0.3638     0.8879     0.8433     0.0447
  2 H      0.6218     1.0000     0.3782     0.8784     0.8321     0.0463
  3 O      8.6903     8.0000    -0.6903     2.1054     1.7234     0.3820
  4 H      0.6091     1.0000     0.3909     0.8843     0.8418     0.0425
  5 H      0.6583     1.0000     0.3417     0.9046     0.8570     0.0476
  6 O      8.7421     8.0000    -0.7421     2.0548     1.6658     0.3890
  7 H      0.6188     1.0000     0.3812     0.9022     0.8590     0.0432
  8 H      0.6475     1.0000     0.3525     0.9345     0.8879     0.0467
  9 O      8.7372     8.0000    -0.7372     2.0450     1.6558     0.3893
 10 H      0.6249     1.0000     0.3751     0.9289     0.8845     0.0444
 11 H      0.6523     1.0000     0.3477     0.9001     0.8527     0.0474
 12 O      8.7315     8.0000    -0.7315     2.0677     1.6788     0.3889
 13 H      0.6307     1.0000     0.3693     0.8987     0.8541     0.0446
 14 H      0.6303     1.0000     0.3697     0.9244     0.8794     0.0450
 15 O      8.7466     8.0000    -0.7466     2.0500     1.6613     0.3887
 16 H      0.6294     1.0000     0.3706     0.8855     0.8405     0.0450
 17 H      0.6321     1.0000     0.3679     0.9293     0.8841     0.0452
 18 O      8.7249     8.0000    -0.7249     2.0669     1.6814     0.3854
 19 H      0.6332     1.0000     0.3668     0.8981     0.8534     0.0448
 20 H      0.6542     1.0000     0.3458     0.9245     0.8784     0.0461
 21 O      8.7366     8.0000    -0.7366     2.0341     1.6458     0.3883
 22 H      0.6642     1.0000     0.3358     0.9078     0.8605     0.0473
 23 H      0.6285     1.0000     0.3715     0.9125     0.8674     0.0451

  Mayer bond orders larger than 0.100000
B(  0-O ,  1-H ) :   0.8321 B(  0-O ,  2-H ) :   0.8145 B(  3-O ,  4-H ) :   0.7976 
B(  3-O ,  5-H ) :   0.8459 B(  6-O ,  7-H ) :   0.7955 B(  6-O ,  8-H ) :   0.7924 
B(  6-O , 14-H ) :   0.1101 B(  9-O , 10-H ) :   0.7306 B(  9-O , 11-H ) :   0.8406 
B(  9-O , 17-H ) :   0.1047 B( 10-H , 12-O ) :   0.1388 B( 12-O , 13-H ) :   0.8164 
B( 12-O , 14-H ) :   0.7628 B( 15-O , 16-H ) :   0.8273 B( 15-O , 17-H ) :   0.7553 
B( 18-O , 19-H ) :   0.8269 B( 18-O , 20-H ) :   0.8312 B( 21-O , 22-H ) :   0.8512 
B( 21-O , 23-H ) :   0.7627 


----------------------------------
MP2 DERIVATIVE INTEGRAL GENERATION
----------------------------------


Input Wavefunction Amplitudes       ... 12h2o.su.etal.mol0,3,4,5,6,7,9,10-orca.engrad-mp2.def2tzvp.frozencore.mp2tsaa.tmp
Input Correlated Electron Density   ... 12h2o.su.etal.mol0,3,4,5,6,7,9,10-orca.engrad-mp2.def2tzvp.frozencore.pmp2re
Input Energy Weighted Density       ... 12h2o.su.etal.mol0,3,4,5,6,7,9,10-orca.engrad-mp2.def2tzvp.frozencore.wmp2.tmp
Input SCF Electron Density          ... 12h2o.su.etal.mol0,3,4,5,6,7,9,10-orca.engrad-mp2.def2tzvp.frozencore.scfp

One-Electron Terms    ...
                        ... One-Electron Terms done
Prescreening matrices              ... done

Batch handling in the gradient evaluation:
Memory available                      ... 8000.0 MB
Memory per occupied orbital in Q2     ...   28.9 MB
Memory per occupied orbital in Q3     ...    0.1 MB
Total memory requirement per |i>      ...   29.0 MB
Max. Number of orbitals possible      ...    275
Number of orbitals treated per batch  ...     32
Number of batches to be done          ...      1
Batch   0: i=    8 ...    39

---------------------------------------
MP2 TOTAL ENERGY:     -610.595770030 Eh
---------------------------------------

The final MP2 gradient
  0:   0.02476691  -0.00909599  -0.00181158
  1:   0.00016714  -0.00236048  -0.00276522
  2:  -0.02510394   0.00785158   0.00178580
  3:  -0.00863411   0.00933848  -0.00066383
  4:   0.00165683   0.00038524  -0.00180166
  5:   0.00946843  -0.00450454   0.00137932
  6:   0.00052220   0.00498995  -0.00324649
  7:  -0.00181430   0.00142039   0.00281187
  8:  -0.00117325  -0.00904539   0.00067578
  9:   0.00544205   0.00543528   0.01504271
 10:  -0.00461872  -0.01000102   0.00082213
 11:  -0.00330563   0.00044804  -0.00951500
 12:  -0.00044839   0.00723901  -0.00461526
 13:   0.00169322   0.00002355   0.00418796
 14:   0.00008279  -0.00319207   0.00210484
 15:   0.00189140   0.00345965  -0.00787682
 16:  -0.00008510   0.00116336   0.00760898
 17:  -0.00202763   0.00049850  -0.00372724
 18:  -0.00180403  -0.00392768   0.00313005
 19:   0.00063081  -0.00101045  -0.00593655
 20:   0.00238390   0.00774805   0.00142847
 21:   0.00486884   0.00573266  -0.00185250
 22:   0.00021560   0.00102919   0.00060195
 23:  -0.00477501  -0.01362528   0.00223230

-----------------------------------
NORM OF THE MP2 GRADIENT:  0.054785
-----------------------------------

-------------------------   --------------------
FINAL SINGLE POINT ENERGY      -610.595770029672
-------------------------   --------------------


                            ***************************************
                            *     ORCA property calculations      *
                            ***************************************

                                    ---------------------
                                    Active property flags
                                    ---------------------
   (+) Dipole Moment


------------------------------------------------------------------------------
                       ORCA ELECTRIC PROPERTIES CALCULATION
------------------------------------------------------------------------------

Dipole Moment Calculation                       ... on
Quadrupole Moment Calculation                   ... off
Polarizability Calculation                      ... off
GBWName                                         ... 12h2o.su.etal.mol0,3,4,5,6,7,9,10-orca.engrad-mp2.def2tzvp.frozencore.gbw
Electron density file                           ... 12h2o.su.etal.mol0,3,4,5,6,7,9,10-orca.engrad-mp2.def2tzvp.frozencore.scfp
The origin for moment calculation is the CENTER OF MASS  = (-0.032446,  0.057085 -0.000000)

-------------
DIPOLE MOMENT
-------------
                                X             Y             Z
Electronic contribution:     -0.01122      -0.05560       0.01968
Nuclear contribution   :      0.03250       0.25948       0.00000
                        -----------------------------------------
Total Dipole Moment    :      0.02128       0.20388       0.01968
                        -----------------------------------------
Magnitude (a.u.)       :      0.20593
Magnitude (Debye)      :      0.52343



--------------------
Rotational spectrum 
--------------------
 
Rotational constants in cm-1:     0.043496     0.019589     0.016391 
Rotational constants in MHz :  1303.991607   587.260715   491.384427 

 Dipole components along the rotational axes: 
x,y,z [a.u.] :    -0.005635    -0.200170    -0.048028 
x,y,z [Debye]:    -0.014324    -0.508791    -0.122079 

 

                         *** MP2 UNRELAXED DENSITY ***

------------------------------------------------------------------------------
                       ORCA ELECTRIC PROPERTIES CALCULATION
------------------------------------------------------------------------------

Dipole Moment Calculation                       ... on
Quadrupole Moment Calculation                   ... off
Polarizability Calculation                      ... off
GBWName                                         ... 12h2o.su.etal.mol0,3,4,5,6,7,9,10-orca.engrad-mp2.def2tzvp.frozencore.gbw
Electron density file                           ... 12h2o.su.etal.mol0,3,4,5,6,7,9,10-orca.engrad-mp2.def2tzvp.frozencore.pmp2ur
The origin for moment calculation is the CENTER OF MASS  = (-0.032446,  0.057085 -0.000000)

-------------
DIPOLE MOMENT
-------------
                                X             Y             Z
Electronic contribution:     -0.01047      -0.05748       0.01949
Nuclear contribution   :      0.03250       0.25948       0.00000
                        -----------------------------------------
Total Dipole Moment    :      0.02203       0.20200       0.01949
                        -----------------------------------------
Magnitude (a.u.)       :      0.20413
Magnitude (Debye)      :      0.51886



--------------------
Rotational spectrum 
--------------------
 
Rotational constants in cm-1:     0.043496     0.019589     0.016391 
Rotational constants in MHz :  1303.991607   587.260715   491.384427 

 Dipole components along the rotational axes: 
x,y,z [a.u.] :    -0.005129    -0.198627    -0.046810 
x,y,z [Debye]:    -0.013038    -0.504869    -0.118981 

 

                           *** MP2 RELAXED DENSITY ***

------------------------------------------------------------------------------
                       ORCA ELECTRIC PROPERTIES CALCULATION
------------------------------------------------------------------------------

Dipole Moment Calculation                       ... on
Quadrupole Moment Calculation                   ... off
Polarizability Calculation                      ... off
GBWName                                         ... 12h2o.su.etal.mol0,3,4,5,6,7,9,10-orca.engrad-mp2.def2tzvp.frozencore.gbw
Electron density file                           ... 12h2o.su.etal.mol0,3,4,5,6,7,9,10-orca.engrad-mp2.def2tzvp.frozencore.pmp2re
The origin for moment calculation is the CENTER OF MASS  = (-0.032446,  0.057085 -0.000000)

-------------
DIPOLE MOMENT
-------------
                                X             Y             Z
Electronic contribution:     -0.00476      -0.05654       0.01325
Nuclear contribution   :      0.03250       0.25948       0.00000
                        -----------------------------------------
Total Dipole Moment    :      0.02774       0.20294       0.01325
                        -----------------------------------------
Magnitude (a.u.)       :      0.20525
Magnitude (Debye)      :      0.52171



--------------------
Rotational spectrum 
--------------------
 
Rotational constants in cm-1:     0.043496     0.019589     0.016391 
Rotational constants in MHz :  1303.991607   587.260715   491.384427 

 Dipole components along the rotational axes: 
x,y,z [a.u.] :    -0.007868    -0.201318    -0.039217 
x,y,z [Debye]:    -0.020000    -0.511710    -0.099681 

 

Timings for individual modules:

Sum of individual times         ...      203.541 sec (=   3.392 min)
GTO integral calculation        ...        0.977 sec (=   0.016 min)   0.5 %
SCF iterations                  ...       29.377 sec (=   0.490 min)  14.4 %
MP2 module                      ...      173.187 sec (=   2.886 min)  85.1 %
                             ****ORCA TERMINATED NORMALLY****
TOTAL RUN TIME: 0 days 0 hours 3 minutes 24 seconds 632 msec
