7
Energy:    -94.21497410
C   -0.75368507  -0.85114164  -0.17784063
H   -1.10394109  -1.29279047   0.73164671
H   -0.36161608  -1.61438150  -0.81709483
H   -1.56492639  -0.35608242  -0.66947361
C    0.35371854   0.17048397   0.14081019
N    1.17823086   0.93113067   0.37806021
Na   2.25221924   3.01278139   0.41389196
