7
Energy:    -92.62659260
C   -0.54421210   0.80346194  -0.69213223
H   -0.15731400   1.76692558  -0.43338938
H   -1.60528133   0.79644890  -0.55435708
H   -0.31603144   0.59058624  -1.71561482
C    0.09768193  -0.26673197   0.21022970
N    0.57560121  -1.06353997   0.88207917
Na   1.94955573  -2.62715072   2.30318464
