
                                 *****************
                                 * O   R   C   A *
                                 *****************

           --- An Ab Initio, DFT and Semiempirical electronic structure package ---

                  #######################################################
                  #                        -***-                        #
                  #          Department of theory and spectroscopy      #
                  #               Directorship: Frank Neese             #
                  #        Max Planck Institute fuer Kohlenforschung    #
                  #                Kaiser Wilhelm Platz 1               #
                  #                 D-45470 Muelheim/Ruhr               #
                  #                      Germany                        #
                  #                                                     #
                  #                  All rights reserved                #
                  #                        -***-                        #
                  #######################################################


                         Program Version 4.2.0 -  RELEASE  -


 With contributions from (in alphabetic order):
   Daniel Aravena         : Magnetic Suceptibility
   Michael Atanasov       : Ab Initio Ligand Field Theory (pilot matlab implementation)
   Alexander A. Auer      : GIAO ZORA, VPT2
   Ute Becker             : Parallelization
   Giovanni Bistoni       : ED, misc. LED, open-shell LED, HFLED
   Martin Brehm           : Molecular dynamics
   Dmytro Bykov           : SCF Hessian
   Vijay G. Chilkuri      : MRCI spin determinant printing, contributions to CSF-ICE
   Dipayan Datta          : RHF DLPNO-CCSD density
   Achintya Kumar Dutta   : EOM-CC, STEOM-CC
   Dmitry Ganyushin       : Spin-Orbit,Spin-Spin,Magnetic field MRCI
   Miquel Garcia          : C-PCM Hessian, Gaussian charge scheme
   Yang Guo               : DLPNO-NEVPT2, CIM, IAO-localization
   Andreas Hansen         : Spin unrestricted coupled pair/coupled cluster methods
   Benjamin Helmich-Paris : CASSCF linear response (MC-RPA)
   Lee Huntington         : MR-EOM, pCC
   Robert Izsak           : Overlap fitted RIJCOSX, COSX-SCS-MP3, EOM
   Christian Kollmar      : KDIIS, OOCD, Brueckner-CCSD(T), CCSD density
   Simone Kossmann        : Meta GGA functionals, TD-DFT gradient, OOMP2, MP2 Hessian
   Martin Krupicka        : AUTO-CI
   Lucas Lang             : DCDCAS
   Dagmar Lenk            : GEPOL surface, SMD
   Dimitrios Liakos       : Extrapolation schemes; Compound Job, initial MDCI parallelization
   Dimitrios Manganas     : Further ROCIS development; embedding schemes
   Dimitrios Pantazis     : SARC Basis sets
   Taras Petrenko         : DFT Hessian,TD-DFT gradient, ASA, ECA, R-Raman, ABS, FL, XAS/XES, NRVS
   Peter Pinski           : DLPNO-MP2, DLPNO-MP2 Gradient
   Christoph Reimann      : Effective Core Potentials
   Marius Retegan         : Local ZFS, SOC
   Christoph Riplinger    : Optimizer, TS searches, QM/MM, DLPNO-CCSD(T), (RO)-DLPNO pert. Triples
   Tobias Risthaus        : Range-separated hybrids, TD-DFT gradient, RPA, STAB
   Michael Roemelt        : Original ROCIS implementation
   Masaaki Saitow         : Open-shell DLPNO-CCSD energy and density
   Barbara Sandhoefer     : DKH picture change effects
   Avijit Sen             : IP-ROCIS
   Kantharuban Sivalingam : CASSCF convergence, NEVPT2, FIC-MRCI
   Bernardo de Souza      : ESD, SOC TD-DFT
   Georgi Stoychev        : AutoAux, RI-MP2 NMR
   Willem Van den Heuvel  : Paramagnetic NMR
   Boris Wezisla          : Elementary symmetry handling
   Frank Wennmohs         : Technical directorship


 We gratefully acknowledge several colleagues who have allowed us to
 interface, adapt or use parts of their codes:
   Stefan Grimme, W. Hujo, H. Kruse,             : VdW corrections, initial TS optimization,
                  C. Bannwarth                     DFT functionals, gCP, sTDA/sTD-DF
   Ed Valeev, F. Pavosevic, A. Kumar             : LibInt (2-el integral package), F12 methods
   Garnet Chan, S. Sharma, J. Yang, R. Olivares  : DMRG
   Ulf Ekstrom                                   : XCFun DFT Library
   Mihaly Kallay                                 : mrcc  (arbitrary order and MRCC methods)
   Andreas Klamt, Michael Diedenhofen            : otool_cosmo (COSMO solvation model)
   Jiri Pittner, Ondrej Demel                    : Mk-CCSD
   Frank Weinhold                                : gennbo (NPA and NBO analysis)
   Christopher J. Cramer and Donald G. Truhlar   : smd solvation model
   Lars Goerigk                                  : TD-DFT with DH, B97 family of functionals
   V. Asgeirsson, H. Jonsson                     : NEB implementation
   FAccTs GmbH                                   : IRC, NEB, NEB-TS, Multilevel, MM, QM/MM, CI optimization
   S Lehtola, MJT Oliveira, MAL Marques          : LibXC Library


 Your calculation uses the libint2 library for the computation of 2-el integrals
 For citations please refer to: http://libint.valeyev.net

 Your ORCA version has been built with support for libXC version: 4.2.3
 For citations please refer to: https://tddft.org/programs/libxc/

 This ORCA versions uses:
   CBLAS   interface :  Fast vector & matrix operations
   LAPACKE interface :  Fast linear algebra routines
   SCALAPACK package :  Parallel linear algebra routines


----- Orbital basis set information -----
Your calculation utilizes the basis: def2-TZVP
   F. Weigend and R. Ahlrichs, Phys. Chem. Chem. Phys. 7, 3297 (2005).

================================================================================
                                        WARNINGS
                       Please study these warnings very carefully!
================================================================================


WARNING: The frozen-core approximation for MP2-gradient calculations is turned on by default.

INFO   : the flag for use of LIBINT has been found!

================================================================================
                                       INPUT FILE
================================================================================
NAME = 12meoh.boyd.etal.mol1,7,11-orca.engrad-mp2.def2tzvp.frozencore.inp
|  1> # 12meoh.boyd.etal.mol1,7,11
|  2> ! MP2 def2-TZVP EnGrad TightSCF
|  3> 
|  4> %pal
|  5>     nprocs 6
|  6> end
|  7> 
|  8> %maxcore 8000
|  9> 
| 10> %scf
| 11>     ConvForced true
| 12> end
| 13> 
| 14> *xyz 0 1
| 15> O   0.666045193  -2.600503172   0.138317521
| 16> H  -0.227115049  -2.712051982  -0.281868004
| 17> C   0.490021232  -1.851247678   1.341189459
| 18> H   1.466500502  -1.466176022   1.645844415
| 19> H   0.097564527  -2.488364683   2.146902740
| 20> H  -0.187588112  -1.000787499   1.200739571
| 21> O   4.310535586  -1.588322800   0.656128299
| 22> H   3.804372199  -1.630404735  -0.196849819
| 23> C   4.312298137  -2.894980854   1.222112691
| 24> H   4.713177833  -2.819907076   2.237066773
| 25> H   4.957796734  -3.574699304   0.648211180
| 26> H   3.302735989  -3.324433205   1.269756773
| 27> O   3.252955559   0.588596242   1.858934315
| 28> H   3.621209177  -0.251605199   1.476063364
| 29> C   4.040824528   0.944288422   2.989639460
| 30> H   3.670521436   1.902573549   3.363847391
| 31> H   5.103749934   1.055868619   2.734277559
| 32> H   3.948540682   0.200279590   3.792908518
| 33> *
| 34> 
| 35>                          ****END OF INPUT****
================================================================================

                     *******************************
                     * Energy+Gradient Calculation *
                     *******************************

---------------------------------
CARTESIAN COORDINATES (ANGSTROEM)
---------------------------------
  O      0.666045   -2.600503    0.138318
  H     -0.227115   -2.712052   -0.281868
  C      0.490021   -1.851248    1.341189
  H      1.466501   -1.466176    1.645844
  H      0.097565   -2.488365    2.146903
  H     -0.187588   -1.000787    1.200740
  O      4.310536   -1.588323    0.656128
  H      3.804372   -1.630405   -0.196850
  C      4.312298   -2.894981    1.222113
  H      4.713178   -2.819907    2.237067
  H      4.957797   -3.574699    0.648211
  H      3.302736   -3.324433    1.269757
  O      3.252956    0.588596    1.858934
  H      3.621209   -0.251605    1.476063
  C      4.040825    0.944288    2.989639
  H      3.670521    1.902574    3.363847
  H      5.103750    1.055869    2.734278
  H      3.948541    0.200280    3.792909

----------------------------
CARTESIAN COORDINATES (A.U.)
----------------------------
  NO LB      ZA    FRAG     MASS         X           Y           Z
   0 O     8.0000    0    15.999    1.258643   -4.914239    0.261382
   1 H     1.0000    0     1.008   -0.429185   -5.125036   -0.532653
   2 C     6.0000    0    12.011    0.926006   -3.498351    2.534481
   3 H     1.0000    0     1.008    2.771284   -2.770671    3.110195
   4 H     1.0000    0     1.008    0.184370   -4.702328    4.057058
   5 H     1.0000    0     1.008   -0.354490   -1.891214    2.269069
   6 O     8.0000    0    15.999    8.145732   -3.001495    1.239903
   7 H     1.0000    0     1.008    7.189222   -3.081018   -0.371992
   8 C     6.0000    0    12.011    8.149062   -5.470721    2.309458
   9 H     1.0000    0     1.008    8.906615   -5.328852    4.227444
  10 H     1.0000    0     1.008    9.368878   -6.755203    1.224942
  11 H     1.0000    0     1.008    6.241267   -6.282268    2.399493
  12 O     8.0000    0    15.999    6.147195    1.112286    3.512877
  13 H     1.0000    0     1.008    6.843094   -0.475465    2.789356
  14 C     6.0000    0    12.011    7.636052    1.784447    5.649600
  15 H     1.0000    0     1.008    6.936280    3.595343    6.356750
  16 H     1.0000    0     1.008    9.644690    1.995303    5.167036
  17 H     1.0000    0     1.008    7.461661    0.378474    7.167558

--------------------------------
INTERNAL COORDINATES (ANGSTROEM)
--------------------------------
 O      0   0   0     0.000000000000     0.00000000     0.00000000
 H      1   0   0     0.993344970452     0.00000000     0.00000000
 C      1   2   0     1.428029806889   107.72168631     0.00000000
 H      3   1   2     1.092980597819   108.03002173   196.92065363
 H      3   1   2     1.099597305626   110.92803308    78.01457186
 H      3   1   2     1.096431990677   112.03981228   316.17366467
 O      4   3   1     3.013800488531   137.49932552   359.48863910
 H      7   4   3     0.992745653921    78.62301788    31.53566763
 C      7   4   3     1.423972158666    84.71163290   282.31126035
 H      9   7   4     1.093833804276   107.83521386   265.97215801
 H      9   7   4     1.099112621312   111.14100782   147.58128516
 H      9   7   4     1.098141617007   112.02184717    25.75574610
 O      7   4   3     2.702627303395    56.76523941   144.89562312
 H     13   7   4     0.994051987447     4.28920238    54.63774653
 C     13   7   4     1.423287941407   109.76996429   123.70044081
 H     15  13   7     1.093373833690   107.66487715   172.09890583
 H     15  13   7     1.098849516342   112.09953284    52.77953455
 H     15  13   7     1.098775058812   111.41155745   290.76907666

---------------------------
INTERNAL COORDINATES (A.U.)
---------------------------
 O      0   0   0     0.000000000000     0.00000000     0.00000000
 H      1   0   0     1.877149950662     0.00000000     0.00000000
 C      1   2   0     2.698585246096   107.72168631     0.00000000
 H      3   1   2     2.065433999568   108.03002173   196.92065363
 H      3   1   2     2.077937765230   110.92803308    78.01457186
 H      3   1   2     2.071956186850   112.03981228   316.17366467
 O      4   3   1     5.695257545601   137.49932552   359.48863910
 H      7   4   3     1.876017406552    78.62301788    31.53566763
 C      7   4   3     2.690917402208    84.71163290   282.31126035
 H      9   7   4     2.067046326107   107.83521386   265.97215801
 H      9   7   4     2.077021844616   111.14100782   147.58128516
 H      9   7   4     2.075186912405   112.02184717    25.75574610
 O      7   4   3     5.107225445475    56.76523941   144.89562312
 H     13   7   4     1.878486019156     4.28920238    54.63774653
 C     13   7   4     2.689624418973   109.76996429   123.70044081
 H     15  13   7     2.066177107669   107.66487715   172.09890583
 H     15  13   7     2.076524648278   112.09953284    52.77953455
 H     15  13   7     2.076383943937   111.41155745   290.76907666

---------------------
BASIS SET INFORMATION
---------------------
There are 3 groups of distinct atoms

 Group   1 Type O   : 11s6p2d1f contracted to 5s3p2d1f pattern {62111/411/11/1}
 Group   2 Type H   : 5s1p contracted to 3s1p pattern {311/1}
 Group   3 Type C   : 11s6p2d1f contracted to 5s3p2d1f pattern {62111/411/11/1}

Atom   0O    basis set group =>   1
Atom   1H    basis set group =>   2
Atom   2C    basis set group =>   3
Atom   3H    basis set group =>   2
Atom   4H    basis set group =>   2
Atom   5H    basis set group =>   2
Atom   6O    basis set group =>   1
Atom   7H    basis set group =>   2
Atom   8C    basis set group =>   3
Atom   9H    basis set group =>   2
Atom  10H    basis set group =>   2
Atom  11H    basis set group =>   2
Atom  12O    basis set group =>   1
Atom  13H    basis set group =>   2
Atom  14C    basis set group =>   3
Atom  15H    basis set group =>   2
Atom  16H    basis set group =>   2
Atom  17H    basis set group =>   2


           ************************************************************
           *        Program running with 6 parallel MPI-processes     *
           *              working on a common directory               *
           ************************************************************
------------------------------------------------------------------------------
                           ORCA GTO INTEGRAL CALCULATION
------------------------------------------------------------------------------

                         BASIS SET STATISTICS AND STARTUP INFO

 # of primitive gaussian shells          ...  192
 # of primitive gaussian functions       ...  372
 # of contracted shells                  ...  114
 # of contracted basis functions         ...  258
 Highest angular momentum                ...    3
 Maximum contraction depth               ...    6
 Integral package used                   ... LIBINT
 Integral threshhold            Thresh   ...  2.500e-11
 Primitive cut-off              TCut     ...  2.500e-12


------------------------------ INTEGRAL EVALUATION ----------------------------


 * One electron integrals 
 Pre-screening matrix                    ... done
 Shell pair data                         ... done (   0.002 sec)



           ************************************************************
           *        Program running with 6 parallel MPI-processes     *
           *              working on a common directory               *
           ************************************************************
-------------------------------------------------------------------------------
                                 ORCA SCF
-------------------------------------------------------------------------------

------------
SCF SETTINGS
------------
Hamiltonian:
 Ab initio Hamiltonian  Method          .... Hartree-Fock(GTOs)


General Settings:
 Integral files         IntName         .... 12meoh.boyd.etal.mol1,7,11-orca.engrad-mp2.def2tzvp.frozencore
 Hartree-Fock type      HFTyp           .... RHF
 Total Charge           Charge          ....    0
 Multiplicity           Mult            ....    1
 Number of Electrons    NEL             ....   54
 Basis Dimension        Dim             ....  258
 Nuclear Repulsion      ENuc            ....    251.3112701099 Eh

Convergence Acceleration:
 DIIS                   CNVDIIS         .... on
   Start iteration      DIISMaxIt       ....    12
   Startup error        DIISStart       ....  0.200000
   # of expansion vecs  DIISMaxEq       ....     5
   Bias factor          DIISBfac        ....   1.050
   Max. coefficient     DIISMaxC        ....  10.000
 Newton-Raphson         CNVNR           .... off
 SOSCF                  CNVSOSCF        .... on
   Start iteration      SOSCFMaxIt      ....   150
   Startup grad/error   SOSCFStart      ....  0.003300
 Level Shifting         CNVShift        .... on
   Level shift para.    LevelShift      ....    0.2500
   Turn off err/grad.   ShiftErr        ....    0.0010
 Zerner damping         CNVZerner       .... off
 Static damping         CNVDamp         .... on
   Fraction old density DampFac         ....    0.7000
   Max. Damping (<1)    DampMax         ....    0.9800
   Min. Damping (>=0)   DampMin         ....    0.0000
   Turn off err/grad.   DampErr         ....    0.1000
 Fernandez-Rico         CNVRico         .... off

SCF Procedure:
 Maximum # iterations   MaxIter         ....   125
 SCF integral mode      SCFMode         .... Direct
   Integral package                     .... LIBINT
 Reset frequency        DirectResetFreq ....    20
 Integral Threshold     Thresh          ....  2.500e-11 Eh
 Primitive CutOff       TCut            ....  2.500e-12 Eh

Convergence Tolerance:
 Convergence Check Mode ConvCheckMode   .... Total+1el-Energy
 Convergence forced     ConvForced      .... 1
 Energy Change          TolE            ....  1.000e-08 Eh
 1-El. energy change                    ....  1.000e-05 Eh
 Orbital Gradient       TolG            ....  1.000e-05
 Orbital Rotation angle TolX            ....  1.000e-05
 DIIS Error             TolErr          ....  5.000e-07


Diagonalization of the overlap matrix:
Smallest eigenvalue                        ... 9.675e-04
Time for diagonalization                   ...    0.345 sec
Threshold for overlap eigenvalues          ... 1.000e-08
Number of eigenvalues below threshold      ... 0
Time for construction of square roots      ...    0.005 sec
Total time needed                          ...    0.350 sec

-------------------
DFT GRID GENERATION
-------------------

General Integration Accuracy     IntAcc      ...  4.340
Radial Grid Type                 RadialGrid  ... Gauss-Chebyshev
Angular Grid (max. acc.)         AngularGrid ... Lebedev-110
Angular grid pruning method      GridPruning ... 3 (G Style)
Weight generation scheme         WeightScheme... Becke
Basis function cutoff            BFCut       ...    1.0000e-11
Integration weight cutoff        WCut        ...    1.0000e-14
Grids for H and He will be reduced by one unit

# of grid points (after initial pruning)     ...  19644 (   0.0 sec)
# of grid points (after weights+screening)   ...  18401 (   0.0 sec)
nearest neighbour list constructed           ...    0.0 sec
Grid point re-assignment to atoms done       ...    0.0 sec
Grid point division into batches done        ...    0.0 sec
Reduced shell lists constructed in    0.0 sec

Total number of grid points                  ...    18401
Total number of batches                      ...      297
Average number of points per batch           ...       61
Average number of grid points per atom       ...     1022
Average number of shells per batch           ...    63.98 (56.12%)
Average number of basis functions per batch  ...   136.73 (52.99%)
Average number of large shells per batch     ...    47.25 (73.86%)
Average number of large basis fcns per batch ...   101.57 (74.29%)
Maximum spatial batch extension              ...  14.94, 17.36, 14.16 au
Average spatial batch extension              ...   0.52,  0.63,  0.55 au

Time for grid setup =    0.097 sec

------------------------------
INITIAL GUESS: MODEL POTENTIAL
------------------------------
Loading Hartree-Fock densities                     ... done
Calculating cut-offs                               ... done
Setting up the integral package                    ... done
Initializing the effective Hamiltonian             ... done
Starting the Coulomb interaction                   ... done (   0.0 sec)
Reading the grid                                   ... done
Mapping shells                                     ... done
Starting the XC term evaluation                    ... done (   0.0 sec)
Transforming the Hamiltonian                       ... done (   0.0 sec)
Diagonalizing the Hamiltonian                      ... done (   0.0 sec)
Back transforming the eigenvectors                 ... done (   0.0 sec)
Now organizing SCF variables                       ... done
                      ------------------
                      INITIAL GUESS DONE (   0.2 sec)
                      ------------------
--------------
SCF ITERATIONS
--------------
ITER       Energy         Delta-E        Max-DP      RMS-DP      [F,P]     Damp
               ***  Starting incremental Fock matrix formation  ***
  0   -344.9364392366   0.000000000000 0.03644414  0.00077148  0.2923372 0.7000
  1   -345.0584540595  -0.122014822913 0.02523121  0.00057813  0.2186061 0.7000
                               ***Turning on DIIS***
  2   -345.1297493887  -0.071295329196 0.01502363  0.00035927  0.1627045 0.7000
  3   -345.9995777514  -0.869828362692 0.00757488  0.00020337  0.1199151 0.7000
  4   -345.8514106285   0.148167122935 0.01694911  0.00049238  0.0845458 0.0000
  5   -345.3041254574   0.547285171043 0.00220435  0.00007032  0.0062149 0.0000
                      *** Initiating the SOSCF procedure ***
                           *** Shutting down DIIS ***
                      *** Re-Reading the Fockian *** 
                      *** Removing any level shift *** 
ITER      Energy       Delta-E        Grad      Rot      Max-DP    RMS-DP
  6   -345.28157906   0.0225463964  0.000724  0.000724  0.001194  0.000038
               *** Restarting incremental Fock matrix formation ***
  7   -345.27600879   0.0055702667  0.000292  0.000336  0.000580  0.000020
  8   -345.27601596  -0.0000071607  0.000139  0.000220  0.000497  0.000015
  9   -345.27601769  -0.0000017386  0.000028  0.000032  0.000085  0.000003
 10   -345.27601775  -0.0000000603  0.000005  0.000010  0.000018  0.000001
                  ***Gradient check signals convergence***
              ***Rediagonalizing the Fockian in SOSCF/NRSCF***

               *****************************************************
               *                     SUCCESS                       *
               *           SCF CONVERGED AFTER  11 CYCLES          *
               *****************************************************


----------------
TOTAL SCF ENERGY
----------------

Total Energy       :         -345.27601776 Eh           -9395.43810 eV

Components:
Nuclear Repulsion  :          251.31127011 Eh            6838.52732 eV
Electronic Energy  :         -596.58728787 Eh          -16233.96542 eV
One Electron Energy:         -971.70862066 Eh          -26441.53583 eV
Two Electron Energy:          375.12133279 Eh           10207.57041 eV

Virial components:
Potential Energy   :         -689.95725334 Eh          -18774.69135 eV
Kinetic Energy     :          344.68123559 Eh            9379.25325 eV
Virial Ratio       :            2.00172560


---------------
SCF CONVERGENCE
---------------

  Last Energy change         ...   -4.7118e-09  Tolerance :   1.0000e-08
  Last MAX-Density change    ...    5.3492e-06  Tolerance :   1.0000e-07
  Last RMS-Density change    ...    1.6681e-07  Tolerance :   5.0000e-09
  Last Orbital Gradient      ...    2.1221e-06  Tolerance :   1.0000e-05
  Last Orbital Rotation      ...    4.3248e-06  Tolerance :   1.0000e-05

             **** THE GBW FILE WAS UPDATED (12meoh.boyd.etal.mol1,7,11-orca.engrad-mp2.def2tzvp.frozencore.gbw) ****
             **** DENSITY FILE WAS UPDATED (12meoh.boyd.etal.mol1,7,11-orca.engrad-mp2.def2tzvp.frozencore.scfp) ****
             **** ENERGY FILE WAS UPDATED (12meoh.boyd.etal.mol1,7,11-orca.engrad-mp2.def2tzvp.frozencore.en.tmp) ****
             **** THE GBW FILE WAS UPDATED (12meoh.boyd.etal.mol1,7,11-orca.engrad-mp2.def2tzvp.frozencore.gbw) ****
             **** DENSITY FILE WAS UPDATED (12meoh.boyd.etal.mol1,7,11-orca.engrad-mp2.def2tzvp.frozencore.scfp) ****
----------------
ORBITAL ENERGIES
----------------

  NO   OCC          E(Eh)            E(eV) 
   0   2.0000     -20.581443      -560.0495 
   1   2.0000     -20.561562      -559.5086 
   2   2.0000     -20.516255      -558.2757 
   3   2.0000     -11.281996      -306.9987 
   4   2.0000     -11.267668      -306.6088 
   5   2.0000     -11.250105      -306.1309 
   6   2.0000      -1.375103       -37.4185 
   7   2.0000      -1.349417       -36.7195 
   8   2.0000      -1.312745       -35.7216 
   9   2.0000      -0.934734       -25.4354 
  10   2.0000      -0.918066       -24.9818 
  11   2.0000      -0.896571       -24.3969 
  12   2.0000      -0.706295       -19.2193 
  13   2.0000      -0.684518       -18.6267 
  14   2.0000      -0.671208       -18.2645 
  15   2.0000      -0.628758       -17.1094 
  16   2.0000      -0.616491       -16.7756 
  17   2.0000      -0.604690       -16.4545 
  18   2.0000      -0.593611       -16.1530 
  19   2.0000      -0.588163       -16.0047 
  20   2.0000      -0.563008       -15.3202 
  21   2.0000      -0.521763       -14.1979 
  22   2.0000      -0.501929       -13.6582 
  23   2.0000      -0.482351       -13.1254 
  24   2.0000      -0.454931       -12.3793 
  25   2.0000      -0.451450       -12.2846 
  26   2.0000      -0.418171       -11.3790 
  27   0.0000       0.123483         3.3601 
  28   0.0000       0.146696         3.9918 
  29   0.0000       0.160195         4.3591 
  30   0.0000       0.179088         4.8732 
  31   0.0000       0.185334         5.0432 
  32   0.0000       0.219949         5.9851 
  33   0.0000       0.225091         6.1250 
  34   0.0000       0.236226         6.4280 
  35   0.0000       0.243125         6.6158 
  36   0.0000       0.245520         6.6809 
  37   0.0000       0.248481         6.7615 
  38   0.0000       0.253060         6.8861 
  39   0.0000       0.278597         7.5810 
  40   0.0000       0.299787         8.1576 
  41   0.0000       0.322095         8.7647 
  42   0.0000       0.337810         9.1923 
  43   0.0000       0.344355         9.3704 
  44   0.0000       0.360120         9.7994 
  45   0.0000       0.377429        10.2704 
  46   0.0000       0.406082        11.0500 
  47   0.0000       0.447733        12.1834 
  48   0.0000       0.476576        12.9683 
  49   0.0000       0.492026        13.3887 
  50   0.0000       0.499107        13.5814 
  51   0.0000       0.536920        14.6103 
  52   0.0000       0.548609        14.9284 
  53   0.0000       0.571291        15.5456 
  54   0.0000       0.576406        15.6848 
  55   0.0000       0.579990        15.7823 
  56   0.0000       0.591334        16.0910 
  57   0.0000       0.617739        16.8095 
  58   0.0000       0.622517        16.9395 
  59   0.0000       0.636961        17.3326 
  60   0.0000       0.644086        17.5265 
  61   0.0000       0.656659        17.8686 
  62   0.0000       0.665892        18.1198 
  63   0.0000       0.680411        18.5149 
  64   0.0000       0.686644        18.6845 
  65   0.0000       0.705157        19.1883 
  66   0.0000       0.713031        19.4026 
  67   0.0000       0.728227        19.8161 
  68   0.0000       0.744902        20.2698 
  69   0.0000       0.757021        20.5996 
  70   0.0000       0.769202        20.9310 
  71   0.0000       0.807980        21.9862 
  72   0.0000       0.828681        22.5496 
  73   0.0000       0.853260        23.2184 
  74   0.0000       0.881401        23.9842 
  75   0.0000       0.887020        24.1370 
  76   0.0000       0.905873        24.6500 
  77   0.0000       0.918683        24.9986 
  78   0.0000       0.935064        25.4444 
  79   0.0000       0.945814        25.7369 
  80   0.0000       0.981087        26.6967 
  81   0.0000       1.002901        27.2903 
  82   0.0000       1.040246        28.3065 
  83   0.0000       1.067502        29.0482 
  84   0.0000       1.105305        30.0769 
  85   0.0000       1.120723        30.4964 
  86   0.0000       1.136937        30.9376 
  87   0.0000       1.147448        31.2237 
  88   0.0000       1.183297        32.1992 
  89   0.0000       1.204848        32.7856 
  90   0.0000       1.257954        34.2307 
  91   0.0000       1.279011        34.8037 
  92   0.0000       1.284135        34.9431 
  93   0.0000       1.552520        42.2462 
  94   0.0000       1.558626        42.4124 
  95   0.0000       1.581682        43.0398 
  96   0.0000       1.657061        45.0909 
  97   0.0000       1.672739        45.5175 
  98   0.0000       1.694581        46.1119 
  99   0.0000       1.705778        46.4166 
 100   0.0000       1.731726        47.1227 
 101   0.0000       1.743330        47.4384 
 102   0.0000       1.765150        48.0322 
 103   0.0000       1.779575        48.4247 
 104   0.0000       1.793734        48.8100 
 105   0.0000       1.796495        48.8851 
 106   0.0000       1.806814        49.1659 
 107   0.0000       1.812269        49.3143 
 108   0.0000       1.828231        49.7487 
 109   0.0000       1.829330        49.7786 
 110   0.0000       1.837294        49.9953 
 111   0.0000       1.854494        50.4633 
 112   0.0000       1.865372        50.7594 
 113   0.0000       1.870578        50.9010 
 114   0.0000       1.884479        51.2793 
 115   0.0000       1.904571        51.8260 
 116   0.0000       1.955474        53.2112 
 117   0.0000       1.974027        53.7160 
 118   0.0000       1.998769        54.3893 
 119   0.0000       2.113990        57.5246 
 120   0.0000       2.145570        58.3839 
 121   0.0000       2.163703        58.8773 
 122   0.0000       2.196387        59.7667 
 123   0.0000       2.215131        60.2768 
 124   0.0000       2.233912        60.7878 
 125   0.0000       2.247813        61.1661 
 126   0.0000       2.265885        61.6579 
 127   0.0000       2.279124        62.0181 
 128   0.0000       2.286731        62.2251 
 129   0.0000       2.297729        62.5244 
 130   0.0000       2.309778        62.8523 
 131   0.0000       2.322078        63.1869 
 132   0.0000       2.342954        63.7550 
 133   0.0000       2.354680        64.0741 
 134   0.0000       2.403472        65.4018 
 135   0.0000       2.463152        67.0258 
 136   0.0000       2.469143        67.1888 
 137   0.0000       2.509088        68.2757 
 138   0.0000       2.525902        68.7333 
 139   0.0000       2.560093        69.6637 
 140   0.0000       2.570134        69.9369 
 141   0.0000       2.585312        70.3499 
 142   0.0000       2.588196        70.4284 
 143   0.0000       2.606778        70.9340 
 144   0.0000       2.623600        71.3918 
 145   0.0000       2.631313        71.6017 
 146   0.0000       2.633859        71.6710 
 147   0.0000       2.660925        72.4074 
 148   0.0000       2.673743        72.7562 
 149   0.0000       2.703539        73.5670 
 150   0.0000       2.719205        73.9933 
 151   0.0000       2.731669        74.3325 
 152   0.0000       2.764371        75.2223 
 153   0.0000       2.789957        75.9186 
 154   0.0000       2.816583        76.6431 
 155   0.0000       2.831296        77.0435 
 156   0.0000       2.837130        77.2022 
 157   0.0000       2.861667        77.8699 
 158   0.0000       2.872943        78.1767 
 159   0.0000       2.884417        78.4890 
 160   0.0000       2.913179        79.2716 
 161   0.0000       3.004368        81.7530 
 162   0.0000       3.056563        83.1733 
 163   0.0000       3.059464        83.2523 
 164   0.0000       3.086511        83.9882 
 165   0.0000       3.114400        84.7471 
 166   0.0000       3.132416        85.2374 
 167   0.0000       3.150618        85.7327 
 168   0.0000       3.166435        86.1631 
 169   0.0000       3.203528        87.1724 
 170   0.0000       3.220516        87.6347 
 171   0.0000       3.261391        88.7469 
 172   0.0000       3.322115        90.3994 
 173   0.0000       3.363137        91.5156 
 174   0.0000       3.389352        92.2290 
 175   0.0000       3.412942        92.8709 
 176   0.0000       3.429345        93.3172 
 177   0.0000       3.433435        93.4285 
 178   0.0000       3.454490        94.0015 
 179   0.0000       3.496896        95.1554 
 180   0.0000       3.539918        96.3261 
 181   0.0000       3.562278        96.9345 
 182   0.0000       3.591618        97.7329 
 183   0.0000       3.633243        98.8656 
 184   0.0000       3.650053        99.3230 
 185   0.0000       3.659855        99.5897 
 186   0.0000       3.664342        99.7118 
 187   0.0000       3.682176       100.1971 
 188   0.0000       3.713188       101.0410 
 189   0.0000       3.744035       101.8804 
 190   0.0000       3.757033       102.2341 
 191   0.0000       3.774422       102.7072 
 192   0.0000       3.862484       105.1035 
 193   0.0000       3.871074       105.3373 
 194   0.0000       3.887009       105.7709 
 195   0.0000       3.892328       105.9156 
 196   0.0000       3.893709       105.9532 
 197   0.0000       3.906618       106.3045 
 198   0.0000       3.915492       106.5459 
 199   0.0000       3.939598       107.2019 
 200   0.0000       3.959030       107.7307 
 201   0.0000       4.236146       115.2714 
 202   0.0000       4.250254       115.6553 
 203   0.0000       4.386787       119.3705 
 204   0.0000       4.504624       122.5770 
 205   0.0000       4.521541       123.0374 
 206   0.0000       4.543829       123.6439 
 207   0.0000       4.558624       124.0465 
 208   0.0000       4.581306       124.6637 
 209   0.0000       4.598586       125.1339 
 210   0.0000       4.722787       128.5136 
 211   0.0000       4.727822       128.6506 
 212   0.0000       4.747879       129.1964 
 213   0.0000       4.868419       132.4764 
 214   0.0000       4.904721       133.4642 
 215   0.0000       4.921740       133.9274 
 216   0.0000       5.689442       154.8176 
 217   0.0000       5.692334       154.8963 
 218   0.0000       5.730534       155.9358 
 219   0.0000       5.757754       156.6765 
 220   0.0000       5.762155       156.7962 
 221   0.0000       5.813243       158.1864 
 222   0.0000       5.866504       159.6357 
 223   0.0000       5.878558       159.9637 
 224   0.0000       5.931635       161.4080 
 225   0.0000       6.148048       167.2969 
 226   0.0000       6.153773       167.4527 
 227   0.0000       6.161653       167.6671 
 228   0.0000       6.164814       167.7531 
 229   0.0000       6.208495       168.9417 
 230   0.0000       6.215891       169.1430 
 231   0.0000       6.307183       171.6272 
 232   0.0000       6.314275       171.8202 
 233   0.0000       6.373126       173.4216 
 234   0.0000       6.634902       180.5449 
 235   0.0000       6.655021       181.0923 
 236   0.0000       6.759704       183.9409 
 237   0.0000       6.945454       188.9954 
 238   0.0000       6.990234       190.2139 
 239   0.0000       7.028773       191.2626 
 240   0.0000       7.153180       194.6479 
 241   0.0000       7.166307       195.0051 
 242   0.0000       7.196352       195.8227 
 243   0.0000       7.214932       196.3283 
 244   0.0000       7.259432       197.5392 
 245   0.0000       7.315734       199.0713 
 246   0.0000       7.455083       202.8631 
 247   0.0000       7.463048       203.0799 
 248   0.0000       7.538111       205.1224 
 249   0.0000       7.586066       206.4274 
 250   0.0000       7.628898       207.5929 
 251   0.0000       7.762487       211.2280 
 252   0.0000      23.358368       635.6135 
 253   0.0000      23.385849       636.3613 
 254   0.0000      23.401629       636.7907 
 255   0.0000      45.160171      1228.8707 
 256   0.0000      45.209962      1230.2256 
 257   0.0000      45.319565      1233.2081 

                    ********************************
                    * MULLIKEN POPULATION ANALYSIS *
                    ********************************

-----------------------
MULLIKEN ATOMIC CHARGES
-----------------------
   0 O :   -0.566026
   1 H :    0.333483
   2 C :   -0.079635
   3 H :    0.110876
   4 H :    0.088507
   5 H :    0.102695
   6 O :   -0.581111
   7 H :    0.361513
   8 C :   -0.098690
   9 H :    0.113160
  10 H :    0.106630
  11 H :    0.128155
  12 O :   -0.587891
  13 H :    0.376906
  14 C :   -0.068694
  15 H :    0.098946
  16 H :    0.088665
  17 H :    0.072510
Sum of atomic charges:    0.0000000

--------------------------------
MULLIKEN REDUCED ORBITAL CHARGES
--------------------------------
  0 O s       :     3.805473  s :     3.805473
      pz      :     1.460617  p :     4.727290
      px      :     1.488183
      py      :     1.778491
      dz2     :     0.006249  d :     0.031558
      dxz     :     0.007584
      dyz     :     0.006647
      dx2y2   :     0.008295
      dxy     :     0.002783
      f0      :     0.000258  f :     0.001704
      f+1     :     0.000066
      f-1     :     0.000498
      f+2     :     0.000406
      f-2     :     0.000172
      f+3     :     0.000260
      f-3     :     0.000044
  1 H s       :     0.623654  s :     0.623654
      pz      :     0.012753  p :     0.042863
      px      :     0.017054
      py      :     0.013056
  2 C s       :     3.191430  s :     3.191430
      pz      :     0.764980  p :     2.766542
      px      :     1.080979
      py      :     0.920584
      dz2     :     0.029359  d :     0.112792
      dxz     :     0.024278
      dyz     :     0.025656
      dx2y2   :     0.009871
      dxy     :     0.023629
      f0      :     0.001908  f :     0.008871
      f+1     :     0.001065
      f-1     :     0.002105
      f+2     :     0.001255
      f-2     :     0.001384
      f+3     :     0.000578
      f-3     :     0.000576
  3 H s       :     0.867551  s :     0.867551
      pz      :     0.003742  p :     0.021573
      px      :     0.012670
      py      :     0.005161
  4 H s       :     0.891230  s :     0.891230
      pz      :     0.009061  p :     0.020264
      px      :     0.004804
      py      :     0.006398
  5 H s       :     0.876877  s :     0.876877
      pz      :     0.002367  p :     0.020428
      px      :     0.007655
      py      :     0.010407
  6 O s       :     3.802731  s :     3.802731
      pz      :     1.473547  p :     4.745075
      px      :     1.806198
      py      :     1.465330
      dz2     :     0.006748  d :     0.031644
      dxz     :     0.007280
      dyz     :     0.005246
      dx2y2   :     0.008437
      dxy     :     0.003933
      f0      :     0.000147  f :     0.001660
      f+1     :     0.000560
      f-1     :     0.000124
      f+2     :     0.000357
      f-2     :     0.000078
      f+3     :     0.000141
      f-3     :     0.000254
  7 H s       :     0.596553  s :     0.596553
      pz      :     0.018092  p :     0.041934
      px      :     0.015090
      py      :     0.008752
  8 C s       :     3.201041  s :     3.201041
      pz      :     0.998122  p :     2.776218
      px      :     1.062308
      py      :     0.715788
      dz2     :     0.025703  d :     0.112354
      dxz     :     0.011637
      dyz     :     0.023797
      dx2y2   :     0.016679
      dxy     :     0.034538
      f0      :     0.000836  f :     0.009077
      f+1     :     0.000679
      f-1     :     0.001678
      f+2     :     0.001286
      f-2     :     0.001240
      f+3     :     0.001721
      f-3     :     0.001637
  9 H s       :     0.865732  s :     0.865732
      pz      :     0.013591  p :     0.021108
      px      :     0.005248
      py      :     0.002269
 10 H s       :     0.872731  s :     0.872731
      pz      :     0.005941  p :     0.020638
      px      :     0.007589
      py      :     0.007108
 11 H s       :     0.851523  s :     0.851523
      pz      :     0.003130  p :     0.020322
      px      :     0.013019
      py      :     0.004174
 12 O s       :     3.800996  s :     3.800996
      pz      :     1.507945  p :     4.753992
      px      :     1.683901
      py      :     1.562146
      dz2     :     0.005683  d :     0.031234
      dxz     :     0.009826
      dyz     :     0.003946
      dx2y2   :     0.005557
      dxy     :     0.006222
      f0      :     0.000226  f :     0.001668
      f+1     :     0.000361
      f-1     :     0.000208
      f+2     :     0.000311
      f-2     :     0.000286
      f+3     :     0.000240
      f-3     :     0.000037
 13 H s       :     0.566870  s :     0.566870
      pz      :     0.015070  p :     0.056225
      px      :     0.014028
      py      :     0.027127
 14 C s       :     3.185598  s :     3.185598
      pz      :     0.805516  p :     2.754084
      px      :     0.924639
      py      :     1.023929
      dz2     :     0.032531  d :     0.119884
      dxz     :     0.016728
      dyz     :     0.032892
      dx2y2   :     0.027667
      dxy     :     0.010067
      f0      :     0.001873  f :     0.009127
      f+1     :     0.001597
      f-1     :     0.001171
      f+2     :     0.001974
      f-2     :     0.001320
      f+3     :     0.000878
      f-3     :     0.000314
 15 H s       :     0.880158  s :     0.880158
      pz      :     0.004176  p :     0.020897
      px      :     0.004340
      py      :     0.012381
 16 H s       :     0.891294  s :     0.891294
      pz      :     0.002968  p :     0.020041
      px      :     0.013619
      py      :     0.003454
 17 H s       :     0.907558  s :     0.907558
      pz      :     0.008883  p :     0.019932
      px      :     0.003099
      py      :     0.007950


                     *******************************
                     * LOEWDIN POPULATION ANALYSIS *
                     *******************************

----------------------
LOEWDIN ATOMIC CHARGES
----------------------
   0 O :   -0.141763
   1 H :    0.189927
   2 C :   -0.334280
   3 H :    0.100701
   4 H :    0.087536
   5 H :    0.092982
   6 O :   -0.102585
   7 H :    0.202447
   8 C :   -0.329570
   9 H :    0.102406
  10 H :    0.095883
  11 H :    0.097963
  12 O :   -0.145309
  13 H :    0.165075
  14 C :   -0.347007
  15 H :    0.096377
  16 H :    0.087177
  17 H :    0.082039

-------------------------------
LOEWDIN REDUCED ORBITAL CHARGES
-------------------------------
  0 O s       :     3.394384  s :     3.394384
      pz      :     1.475706  p :     4.675762
      px      :     1.483050
      py      :     1.717006
      dz2     :     0.015251  d :     0.067547
      dxz     :     0.019704
      dyz     :     0.014741
      dx2y2   :     0.012131
      dxy     :     0.005720
      f0      :     0.000894  f :     0.004070
      f+1     :     0.000403
      f-1     :     0.000832
      f+2     :     0.000848
      f-2     :     0.000463
      f+3     :     0.000537
      f-3     :     0.000093
  1 H s       :     0.665188  s :     0.665188
      pz      :     0.035531  p :     0.144884
      px      :     0.072922
      py      :     0.036432
  2 C s       :     2.862323  s :     2.862323
      pz      :     0.884702  p :     2.998165
      px      :     1.104270
      py      :     1.009193
      dz2     :     0.117335  d :     0.417037
      dxz     :     0.079219
      dyz     :     0.111451
      dx2y2   :     0.034295
      dxy     :     0.074737
      f0      :     0.013534  f :     0.056755
      f+1     :     0.008245
      f-1     :     0.012073
      f+2     :     0.009739
      f-2     :     0.007399
      f+3     :     0.002633
      f-3     :     0.003132
  3 H s       :     0.838314  s :     0.838314
      pz      :     0.010828  p :     0.060984
      px      :     0.035025
      py      :     0.015131
  4 H s       :     0.854146  s :     0.854146
      pz      :     0.023713  p :     0.058318
      px      :     0.015634
      py      :     0.018970
  5 H s       :     0.847757  s :     0.847757
      pz      :     0.008790  p :     0.059261
      px      :     0.022066
      py      :     0.028405
  6 O s       :     3.381468  s :     3.381468
      pz      :     1.426500  p :     4.648636
      px      :     1.712410
      py      :     1.509726
      dz2     :     0.015076  d :     0.068320
      dxz     :     0.012157
      dyz     :     0.013986
      dx2y2   :     0.015480
      dxy     :     0.011620
      f0      :     0.000280  f :     0.004161
      f+1     :     0.000787
      f-1     :     0.000747
      f+2     :     0.000804
      f-2     :     0.000319
      f+3     :     0.000690
      f-3     :     0.000532
  7 H s       :     0.651182  s :     0.651182
      pz      :     0.067819  p :     0.146371
      px      :     0.050957
      py      :     0.027595
  8 C s       :     2.860426  s :     2.860426
      pz      :     1.044385  p :     2.994019
      px      :     1.093964
      py      :     0.855670
      dz2     :     0.086451  d :     0.417708
      dxz     :     0.036841
      dyz     :     0.085885
      dx2y2   :     0.085372
      dxy     :     0.123160
      f0      :     0.004626  f :     0.057417
      f+1     :     0.002468
      f-1     :     0.011623
      f+2     :     0.009409
      f-2     :     0.008551
      f+3     :     0.010685
      f-3     :     0.010056
  9 H s       :     0.838515  s :     0.838515
      pz      :     0.035011  p :     0.059079
      px      :     0.016160
      py      :     0.007908
 10 H s       :     0.845297  s :     0.845297
      pz      :     0.018099  p :     0.058821
      px      :     0.021788
      py      :     0.018933
 11 H s       :     0.841779  s :     0.841779
      pz      :     0.011586  p :     0.060258
      px      :     0.035910
      py      :     0.012763
 12 O s       :     3.384736  s :     3.384736
      pz      :     1.513588  p :     4.691736
      px      :     1.665811
      py      :     1.512336
      dz2     :     0.014108  d :     0.064919
      dxz     :     0.017611
      dyz     :     0.013679
      dx2y2   :     0.010696
      dxy     :     0.008824
      f0      :     0.000718  f :     0.003917
      f+1     :     0.000803
      f-1     :     0.000439
      f+2     :     0.000579
      f-2     :     0.000728
      f+3     :     0.000537
      f-3     :     0.000113
 13 H s       :     0.650050  s :     0.650050
      pz      :     0.043641  p :     0.184875
      px      :     0.046982
      py      :     0.094252
 14 C s       :     2.860703  s :     2.860703
      pz      :     0.916664  p :     2.996452
      px      :     1.011672
      py      :     1.068117
      dz2     :     0.111797  d :     0.432049
      dxz     :     0.084022
      dyz     :     0.108916
      dx2y2   :     0.092845
      dxy     :     0.034470
      f0      :     0.013401  f :     0.057803
      f+1     :     0.012089
      f-1     :     0.006043
      f+2     :     0.009303
      f-2     :     0.009559
      f+3     :     0.004452
      f-3     :     0.002957
 15 H s       :     0.845441  s :     0.845441
      pz      :     0.012124  p :     0.058181
      px      :     0.013865
      py      :     0.032193
 16 H s       :     0.854626  s :     0.854626
      pz      :     0.010211  p :     0.058196
      px      :     0.035716
      py      :     0.012269
 17 H s       :     0.860173  s :     0.860173
      pz      :     0.023826  p :     0.057788
      px      :     0.010855
      py      :     0.023107


                      *****************************
                      * MAYER POPULATION ANALYSIS *
                      *****************************

  NA   - Mulliken gross atomic population
  ZA   - Total nuclear charge
  QA   - Mulliken gross atomic charge
  VA   - Mayer's total valence
  BVA  - Mayer's bonded valence
  FA   - Mayer's free valence

  ATOM       NA         ZA         QA         VA         BVA        FA
  0 O      8.5660     8.0000    -0.5660     1.7726     1.7726     0.0000
  1 H      0.6665     1.0000     0.3335     0.8970     0.8970     0.0000
  2 C      6.0796     6.0000    -0.0796     3.8611     3.8611     0.0000
  3 H      0.8891     1.0000     0.1109     0.9820     0.9820     0.0000
  4 H      0.9115     1.0000     0.0885     0.9623     0.9623     0.0000
  5 H      0.8973     1.0000     0.1027     0.9689     0.9689    -0.0000
  6 O      8.5811     8.0000    -0.5811     1.7676     1.7676     0.0000
  7 H      0.6385     1.0000     0.3615     0.8781     0.8781     0.0000
  8 C      6.0987     6.0000    -0.0987     3.8493     3.8493     0.0000
  9 H      0.8868     1.0000     0.1132     0.9635     0.9635     0.0000
 10 H      0.8934     1.0000     0.1066     0.9675     0.9675     0.0000
 11 H      0.8718     1.0000     0.1282     0.9536     0.9536     0.0000
 12 O      8.5879     8.0000    -0.5879     1.7454     1.7454     0.0000
 13 H      0.6231     1.0000     0.3769     0.8868     0.8868    -0.0000
 14 C      6.0687     6.0000    -0.0687     3.9261     3.9261     0.0000
 15 H      0.9011     1.0000     0.0989     0.9630     0.9630     0.0000
 16 H      0.9113     1.0000     0.0887     0.9625     0.9625     0.0000
 17 H      0.9275     1.0000     0.0725     0.9583     0.9583     0.0000

  Mayer bond orders larger than 0.100000
B(  0-O ,  1-H ) :   0.8865 B(  0-O ,  2-C ) :   0.9137 B(  2-C ,  3-H ) :   0.9782 
B(  2-C ,  4-H ) :   0.9894 B(  2-C ,  5-H ) :   0.9906 B(  6-O ,  7-H ) :   0.8653 
B(  6-O ,  8-C ) :   0.8833 B(  8-C ,  9-H ) :   0.9853 B(  8-C , 10-H ) :   0.9870 
B(  8-C , 11-H ) :   0.9829 B( 12-O , 13-H ) :   0.8224 B( 12-O , 14-C ) :   0.9548 
B( 14-C , 15-H ) :   0.9876 B( 14-C , 16-H ) :   0.9903 B( 14-C , 17-H ) :   0.9863 


-------
TIMINGS
-------

Total SCF time: 0 days 0 hours 0 min 18 sec 

Total time                  ....      18.330 sec
Sum of individual times     ....      17.724 sec  ( 96.7%)

Fock matrix formation       ....      17.330 sec  ( 94.5%)
Diagonalization             ....       0.074 sec  (  0.4%)
Density matrix formation    ....       0.008 sec  (  0.0%)
Population analysis         ....       0.008 sec  (  0.0%)
Initial guess               ....       0.150 sec  (  0.8%)
Orbital Transformation      ....       0.000 sec  (  0.0%)
Orbital Orthonormalization  ....       0.000 sec  (  0.0%)
DIIS solution               ....       0.026 sec  (  0.1%)
SOSCF solution              ....       0.032 sec  (  0.2%)


           ************************************************************
           *        Program running with 6 parallel MPI-processes     *
           *              working on a common directory               *
           ************************************************************

------------------------------------------------------------------------------
                                ORCA  MP2 
------------------------------------------------------------------------------

Freezing NCore=12 chemical core electrons
MP2 will be done in the AO integral direct mode
The Q1-step will be done using symmetric double matrices
Dimension of the basis                    ...  258
Memory devoted for MP2                    ... 8000 MB   
Memory needed for all in one shot         ...  264 MB
Number of MOs that can be treated together...  120      
MP2 density construction                  ... relaxed
The MP2 gradient is requested => amplitudes will be stored on disk
Total number of MOs              ...   21
Number of MOs treated per batch  ...    4 
Number of batches necessary      ...    1 
OPERATORS   0/  0 PASS   0
-----------------------------------------------
 MP2 CORRELATION ENERGY   :     -1.259409704 Eh
-----------------------------------------------


---------------------
MP2 DENSITY FORMATION
---------------------

Completing the external part of the density      ... done
Storing the unrelaxed density                    ... done

Calculating G(D)                                 ... done
Completing the Lagrangian                        ... done
Solving the Z-vector equations                   ... 

------------------------------------------------------------------------------
                           ORCA CP-SCF CALCULATION
------------------------------------------------------------------------------

Input orbitals are from        ... 12meoh.boyd.etal.mol1,7,11-orca.engrad-mp2.def2tzvp.frozencore.gbw
Input Perturbation             ... 12meoh.boyd.etal.mol1,7,11-orca.engrad-mp2.def2tzvp.frozencore.pin.tmp
Wavefunction output            ... 12meoh.boyd.etal.mol1,7,11-orca.engrad-mp2.def2tzvp.frozencore.pout.tmp
Perturbation mode              ... Real perturbation (singlet)
Solver                         ... POPLE
Max. number of iterations      ... 128
Convergence tolerance          ... 1.000e-08
Integral handling              ... Direct
Number of perturbations        ... 1
Number of operators            ... 1
Orbital ranges used for CP-SCF:
 Operator 0:  Orbitals   0... 26  to  27...257
Variables per vector in CP-SCF ... 6237
Number of vectors sought       ... 1
     CP-SCF ITERATION   0: 
     CP-SCF ITERATION   1:      0.000366384745
     CP-SCF ITERATION   2:      0.000026587723
     CP-SCF ITERATION   3:      0.000004204563
     CP-SCF ITERATION   4:      0.000000185572
     CP-SCF ITERATION   5:      0.000000007267
                                                 ... done
Finalizing the relaxed density                   ... done
Transforming P to the AO basis                   ... done
Storing the relaxed density                      ... done

------------------------------------
ENERGY WEIGHTED DENSITY FINALIZATION
------------------------------------

Gathering the parts of the W-matrix              ...                                                      done
Forming the Z-density                            ... done
Transforming Z to the AO basis                   ... done
Calculating G(Z)                                 ... done
Finalizing the W-matrix                          ...                                                      done
Transforming W to the AO basis and storing       ... done

                *********************************************
                * UNRELAXED MP2 DENSITY POPULATION ANALYSIS *
                *********************************************

------------------------------------------------------------------------------
                           ORCA POPULATION ANALYSIS
------------------------------------------------------------------------------
Input electron density              ... 12meoh.boyd.etal.mol1,7,11-orca.engrad-mp2.def2tzvp.frozencore.pmp2ur
BaseName (.gbw .S,...)              ... 12meoh.boyd.etal.mol1,7,11-orca.engrad-mp2.def2tzvp.frozencore

                    ********************************
                    * MULLIKEN POPULATION ANALYSIS *
                    ********************************

-----------------------
MULLIKEN ATOMIC CHARGES
-----------------------
   0 O :   -0.554781
   1 H :    0.330779
   2 C :   -0.095249
   3 H :    0.112362
   4 H :    0.091085
   5 H :    0.105185
   6 O :   -0.569071
   7 H :    0.358735
   8 C :   -0.114118
   9 H :    0.115922
  10 H :    0.109125
  11 H :    0.130272
  12 O :   -0.575579
  13 H :    0.372497
  14 C :   -0.085150
  15 H :    0.101790
  16 H :    0.091146
  17 H :    0.075049
Sum of atomic charges:    0.0000000

--------------------------------
MULLIKEN REDUCED ORBITAL CHARGES
--------------------------------
  0 O s       :     3.800236  s :     3.800236
      pz      :     1.448973  p :     4.691200
      px      :     1.477227
      py      :     1.765000
      dz2     :     0.011779  d :     0.058986
      dxz     :     0.012983
      dyz     :     0.012142
      dx2y2   :     0.013649
      dxy     :     0.008433
      f0      :     0.000643  f :     0.004360
      f+1     :     0.000458
      f-1     :     0.000868
      f+2     :     0.000782
      f-2     :     0.000552
      f+3     :     0.000632
      f-3     :     0.000424
  1 H s       :     0.624657  s :     0.624657
      pz      :     0.013394  p :     0.044564
      px      :     0.017213
      py      :     0.013957
  2 C s       :     3.189340  s :     3.189340
      pz      :     0.766129  p :     2.760054
      px      :     1.075531
      py      :     0.918394
      dz2     :     0.033066  d :     0.133660
      dxz     :     0.029055
      dyz     :     0.028706
      dx2y2   :     0.014974
      dxy     :     0.027859
      f0      :     0.002409  f :     0.012195
      f+1     :     0.001563
      f-1     :     0.002463
      f+2     :     0.001714
      f-2     :     0.001893
      f+3     :     0.001080
      f-3     :     0.001073
  3 H s       :     0.863008  s :     0.863008
      pz      :     0.004869  p :     0.024630
      px      :     0.013523
      py      :     0.006238
  4 H s       :     0.885435  s :     0.885435
      pz      :     0.010085  p :     0.023480
      px      :     0.005937
      py      :     0.007458
  5 H s       :     0.871249  s :     0.871249
      pz      :     0.003531  p :     0.023566
      px      :     0.008702
      py      :     0.011333
  6 O s       :     3.797397  s :     3.797397
      pz      :     1.462924  p :     4.707574
      px      :     1.792878
      py      :     1.451772
      dz2     :     0.012354  d :     0.059750
      dxz     :     0.012837
      dyz     :     0.010875
      dx2y2   :     0.013977
      dxy     :     0.009707
      f0      :     0.000530  f :     0.004350
      f+1     :     0.000920
      f-1     :     0.000521
      f+2     :     0.000739
      f-2     :     0.000465
      f+3     :     0.000536
      f-3     :     0.000640
  7 H s       :     0.597762  s :     0.597762
      pz      :     0.018182  p :     0.043503
      px      :     0.015736
      py      :     0.009585
  8 C s       :     3.199069  s :     3.199069
      pz      :     0.994734  p :     2.769522
      px      :     1.057166
      py      :     0.717622
      dz2     :     0.030025  d :     0.133125
      dxz     :     0.016731
      dyz     :     0.027459
      dx2y2   :     0.020329
      dxy     :     0.038581
      f0      :     0.001302  f :     0.012402
      f+1     :     0.001153
      f-1     :     0.002208
      f+2     :     0.001715
      f-2     :     0.001729
      f+3     :     0.002248
      f-3     :     0.002047
  9 H s       :     0.859882  s :     0.859882
      pz      :     0.014447  p :     0.024196
      px      :     0.006329
      py      :     0.003420
 10 H s       :     0.867098  s :     0.867098
      pz      :     0.007000  p :     0.023777
      px      :     0.008613
      py      :     0.008164
 11 H s       :     0.846311  s :     0.846311
      pz      :     0.004265  p :     0.023417
      px      :     0.013866
      py      :     0.005286
 12 O s       :     3.795683  s :     3.795683
      pz      :     1.495756  p :     4.716362
      px      :     1.670028
      py      :     1.550578
      dz2     :     0.011330  d :     0.059181
      dxz     :     0.015185
      dyz     :     0.009658
      dx2y2   :     0.011203
      dxy     :     0.011805
      f0      :     0.000613  f :     0.004352
      f+1     :     0.000744
      f-1     :     0.000588
      f+2     :     0.000692
      f-2     :     0.000670
      f+3     :     0.000621
      f-3     :     0.000424
 13 H s       :     0.569493  s :     0.569493
      pz      :     0.015796  p :     0.058011
      px      :     0.014845
      py      :     0.027370
 14 C s       :     3.183723  s :     3.183723
      pz      :     0.805836  p :     2.748208
      px      :     0.922230
      py      :     1.020142
      dz2     :     0.036702  d :     0.140757
      dxz     :     0.020524
      dyz     :     0.036625
      dx2y2   :     0.031729
      dxy     :     0.015178
      f0      :     0.002369  f :     0.012462
      f+1     :     0.002004
      f-1     :     0.001669
      f+2     :     0.002441
      f-2     :     0.001783
      f+3     :     0.001345
      f-3     :     0.000851
 15 H s       :     0.874166  s :     0.874166
      pz      :     0.005312  p :     0.024044
      px      :     0.005438
      py      :     0.013294
 16 H s       :     0.885598  s :     0.885598
      pz      :     0.004125  p :     0.023256
      px      :     0.014520
      py      :     0.004611
 17 H s       :     0.901739  s :     0.901739
      pz      :     0.009931  p :     0.023212
      px      :     0.004279
      py      :     0.009002


                     *******************************
                     * LOEWDIN POPULATION ANALYSIS *
                     *******************************

----------------------
LOEWDIN ATOMIC CHARGES
----------------------
   0 O :   -0.133860
   1 H :    0.188083
   2 C :   -0.345108
   3 H :    0.102117
   4 H :    0.088999
   5 H :    0.094524
   6 O :   -0.093657
   7 H :    0.200593
   8 C :   -0.340105
   9 H :    0.104162
  10 H :    0.097432
  11 H :    0.099448
  12 O :   -0.137194
  13 H :    0.162420
  14 C :   -0.358002
  15 H :    0.098080
  16 H :    0.088625
  17 H :    0.083445

-------------------------------
LOEWDIN REDUCED ORBITAL CHARGES
-------------------------------
  0 O s       :     3.390931  s :     3.390931
      pz      :     1.463610  p :     4.639564
      px      :     1.472155
      py      :     1.703798
      dz2     :     0.021007  d :     0.096390
      dxz     :     0.025177
      dyz     :     0.020969
      dx2y2   :     0.017995
      dxy     :     0.011242
      f0      :     0.001311  f :     0.006975
      f+1     :     0.000808
      f-1     :     0.001283
      f+2     :     0.001288
      f-2     :     0.000865
      f+3     :     0.000939
      f-3     :     0.000480
  1 H s       :     0.663486  s :     0.663486
      pz      :     0.036473  p :     0.148432
      px      :     0.074666
      py      :     0.037293
  2 C s       :     2.861207  s :     2.861207
      pz      :     0.882469  p :     2.984233
      px      :     1.097323
      py      :     1.004440
      dz2     :     0.120909  d :     0.438032
      dxz     :     0.083300
      dyz     :     0.115104
      dx2y2   :     0.039425
      dxy     :     0.079294
      f0      :     0.014067  f :     0.061636
      f+1     :     0.008866
      f-1     :     0.013083
      f+2     :     0.010345
      f-2     :     0.008120
      f+3     :     0.003348
      f-3     :     0.003808
  3 H s       :     0.831886  s :     0.831886
      pz      :     0.012263  p :     0.065997
      px      :     0.037184
      py      :     0.016550
  4 H s       :     0.847413  s :     0.847413
      pz      :     0.025861  p :     0.063589
      px      :     0.017073
      py      :     0.020654
  5 H s       :     0.841034  s :     0.841034
      pz      :     0.010153  p :     0.064442
      px      :     0.023831
      py      :     0.030457
  6 O s       :     3.377997  s :     3.377997
      pz      :     1.415812  p :     4.610783
      px      :     1.699497
      py      :     1.495474
      dz2     :     0.020826  d :     0.097768
      dxz     :     0.018204
      dyz     :     0.019794
      dx2y2   :     0.021716
      dxy     :     0.017227
      f0      :     0.000698  f :     0.007109
      f+1     :     0.001220
      f-1     :     0.001158
      f+2     :     0.001255
      f-2     :     0.000718
      f+3     :     0.001096
      f-3     :     0.000965
  7 H s       :     0.649720  s :     0.649720
      pz      :     0.069224  p :     0.149687
      px      :     0.052027
      py      :     0.028436
  8 C s       :     2.859278  s :     2.859278
      pz      :     1.038727  p :     2.979939
      px      :     1.087245
      py      :     0.853968
      dz2     :     0.090785  d :     0.438606
      dxz     :     0.041982
      dyz     :     0.089590
      dx2y2   :     0.089499
      dxy     :     0.126750
      f0      :     0.005436  f :     0.062282
      f+1     :     0.003216
      f-1     :     0.012152
      f+2     :     0.010124
      f-2     :     0.009155
      f+3     :     0.011256
      f-3     :     0.010943
  9 H s       :     0.831727  s :     0.831727
      pz      :     0.037327  p :     0.064111
      px      :     0.017542
      py      :     0.009242
 10 H s       :     0.838594  s :     0.838594
      pz      :     0.019676  p :     0.063974
      px      :     0.023440
      py      :     0.020858
 11 H s       :     0.835201  s :     0.835201
      pz      :     0.012853  p :     0.065351
      px      :     0.038132
      py      :     0.014366
 12 O s       :     3.381415  s :     3.381415
      pz      :     1.501108  p :     4.654544
      px      :     1.652137
      py      :     1.501300
      dz2     :     0.019883  d :     0.094372
      dxz     :     0.023783
      dyz     :     0.019555
      dx2y2   :     0.016444
      dxy     :     0.014707
      f0      :     0.001134  f :     0.006864
      f+1     :     0.001253
      f-1     :     0.000846
      f+2     :     0.001011
      f-2     :     0.001157
      f+3     :     0.000953
      f-3     :     0.000510
 13 H s       :     0.649816  s :     0.649816
      pz      :     0.044493  p :     0.187764
      px      :     0.047918
      py      :     0.095352
 14 C s       :     2.859620  s :     2.859620
      pz      :     0.913758  p :     2.982603
      px      :     1.006773
      py      :     1.062073
      dz2     :     0.115556  d :     0.453071
      dxz     :     0.088240
      dyz     :     0.112619
      dx2y2   :     0.097181
      dxy     :     0.039475
      f0      :     0.013900  f :     0.062707
      f+1     :     0.012925
      f-1     :     0.006817
      f+2     :     0.010130
      f-2     :     0.010172
      f+3     :     0.005168
      f-3     :     0.003595
 15 H s       :     0.838602  s :     0.838602
      pz      :     0.013629  p :     0.063318
      px      :     0.015251
      py      :     0.034439
 16 H s       :     0.847878  s :     0.847878
      pz      :     0.011600  p :     0.063497
      px      :     0.038344
      py      :     0.013552
 17 H s       :     0.853378  s :     0.853378
      pz      :     0.026019  p :     0.063177
      px      :     0.012165
      py      :     0.024993


                      *****************************
                      * MAYER POPULATION ANALYSIS *
                      *****************************

  NA   - Mulliken gross atomic population
  ZA   - Total nuclear charge
  QA   - Mulliken gross atomic charge
  VA   - Mayer's total valence
  BVA  - Mayer's bonded valence
  FA   - Mayer's free valence

  ATOM       NA         ZA         QA         VA         BVA        FA
  0 O      8.5548     8.0000    -0.5548     2.0754     1.6676     0.4078
  1 H      0.6692     1.0000     0.3308     0.9034     0.8508     0.0526
  2 C      6.0952     6.0000    -0.0952     3.9675     3.6883     0.2791
  3 H      0.8876     1.0000     0.1124     0.9925     0.9427     0.0498
  4 H      0.9089     1.0000     0.0911     0.9721     0.9228     0.0493
  5 H      0.8948     1.0000     0.1052     0.9782     0.9299     0.0483
  6 O      8.5691     8.0000    -0.5691     2.0731     1.6641     0.4090
  7 H      0.6413     1.0000     0.3587     0.8842     0.8338     0.0504
  8 C      6.1141     6.0000    -0.1141     3.9576     3.6782     0.2794
  9 H      0.8841     1.0000     0.1159     0.9723     0.9254     0.0469
 10 H      0.8909     1.0000     0.1091     0.9767     0.9285     0.0482
 11 H      0.8697     1.0000     0.1303     0.9626     0.9148     0.0478
 12 O      8.5756     8.0000    -0.5756     2.0515     1.6416     0.4099
 13 H      0.6275     1.0000     0.3725     0.8942     0.8448     0.0494
 14 C      6.0851     6.0000    -0.0851     4.0304     3.7485     0.2819
 15 H      0.8982     1.0000     0.1018     0.9723     0.9245     0.0477
 16 H      0.9089     1.0000     0.0911     0.9725     0.9230     0.0495
 17 H      0.9250     1.0000     0.0750     0.9689     0.9184     0.0506

  Mayer bond orders larger than 0.100000
B(  0-O ,  1-H ) :   0.8413 B(  0-O ,  2-C ) :   0.8556 B(  2-C ,  3-H ) :   0.9402 
B(  2-C ,  4-H ) :   0.9509 B(  2-C ,  5-H ) :   0.9526 B(  6-O ,  7-H ) :   0.8221 
B(  6-O ,  8-C ) :   0.8265 B(  8-C ,  9-H ) :   0.9477 B(  8-C , 10-H ) :   0.9491 
B(  8-C , 11-H ) :   0.9450 B( 12-O , 13-H ) :   0.7828 B( 12-O , 14-C ) :   0.8935 
B( 14-C , 15-H ) :   0.9498 B( 14-C , 16-H ) :   0.9518 B( 14-C , 17-H ) :   0.9473 



                *******************************************
                * RELAXED MP2 DENSITY POPULATION ANALYSIS *
                *******************************************

------------------------------------------------------------------------------
                           ORCA POPULATION ANALYSIS
------------------------------------------------------------------------------
Input electron density              ... 12meoh.boyd.etal.mol1,7,11-orca.engrad-mp2.def2tzvp.frozencore.pmp2re
BaseName (.gbw .S,...)              ... 12meoh.boyd.etal.mol1,7,11-orca.engrad-mp2.def2tzvp.frozencore

                    ********************************
                    * MULLIKEN POPULATION ANALYSIS *
                    ********************************

-----------------------
MULLIKEN ATOMIC CHARGES
-----------------------
   0 O :   -0.515478
   1 H :    0.324941
   2 C :   -0.176447
   3 H :    0.123350
   4 H :    0.107127
   5 H :    0.121441
   6 O :   -0.523410
   7 H :    0.352225
   8 C :   -0.194977
   9 H :    0.135050
  10 H :    0.125904
  11 H :    0.145735
  12 O :   -0.525769
  13 H :    0.349570
  14 C :   -0.170069
  15 H :    0.120773
  16 H :    0.107512
  17 H :    0.092524
Sum of atomic charges:    0.0000000

--------------------------------
MULLIKEN REDUCED ORBITAL CHARGES
--------------------------------
  0 O s       :     3.802968  s :     3.802968
      pz      :     1.439406  p :     4.651276
      px      :     1.458573
      py      :     1.753297
      dz2     :     0.011372  d :     0.056931
      dxz     :     0.012668
      dyz     :     0.011461
      dx2y2   :     0.012834
      dxy     :     0.008596
      f0      :     0.000642  f :     0.004304
      f+1     :     0.000459
      f-1     :     0.000842
      f+2     :     0.000765
      f-2     :     0.000553
      f+3     :     0.000619
      f-3     :     0.000423
  1 H s       :     0.629902  s :     0.629902
      pz      :     0.013691  p :     0.045157
      px      :     0.016505
      py      :     0.014961
  2 C s       :     3.211340  s :     3.211340
      pz      :     0.785655  p :     2.829474
      px      :     1.101575
      py      :     0.942245
      dz2     :     0.031297  d :     0.123999
      dxz     :     0.029232
      dyz     :     0.025552
      dx2y2   :     0.013973
      dxy     :     0.023945
      f0      :     0.002274  f :     0.011634
      f+1     :     0.001522
      f-1     :     0.002323
      f+2     :     0.001640
      f-2     :     0.001836
      f+3     :     0.001032
      f-3     :     0.001007
  3 H s       :     0.853074  s :     0.853074
      pz      :     0.004957  p :     0.023576
      px      :     0.012393
      py      :     0.006226
  4 H s       :     0.870449  s :     0.870449
      pz      :     0.009334  p :     0.022423
      px      :     0.005976
      py      :     0.007113
  5 H s       :     0.856131  s :     0.856131
      pz      :     0.003782  p :     0.022428
      px      :     0.008284
      py      :     0.010363
  6 O s       :     3.799996  s :     3.799996
      pz      :     1.451002  p :     4.661128
      px      :     1.778984
      py      :     1.431143
      dz2     :     0.011950  d :     0.057991
      dxz     :     0.012167
      dyz     :     0.010579
      dx2y2   :     0.013130
      dxy     :     0.010165
      f0      :     0.000518  f :     0.004294
      f+1     :     0.000893
      f-1     :     0.000527
      f+2     :     0.000719
      f-2     :     0.000469
      f+3     :     0.000544
      f-3     :     0.000624
  7 H s       :     0.603772  s :     0.603772
      pz      :     0.017633  p :     0.044004
      px      :     0.016157
      py      :     0.010213
  8 C s       :     3.221084  s :     3.221084
      pz      :     1.019382  p :     2.838798
      px      :     1.084042
      py      :     0.735375
      dz2     :     0.028137  d :     0.123251
      dxz     :     0.015313
      dyz     :     0.025288
      dx2y2   :     0.017955
      dxy     :     0.036559
      f0      :     0.001226  f :     0.011843
      f+1     :     0.001080
      f-1     :     0.002144
      f+2     :     0.001644
      f-2     :     0.001634
      f+3     :     0.002168
      f-3     :     0.001946
  9 H s       :     0.841875  s :     0.841875
      pz      :     0.013116  p :     0.023075
      px      :     0.006338
      py      :     0.003621
 10 H s       :     0.851418  s :     0.851418
      pz      :     0.006764  p :     0.022678
      px      :     0.008223
      py      :     0.007691
 11 H s       :     0.831986  s :     0.831986
      pz      :     0.004487  p :     0.022279
      px      :     0.012560
      py      :     0.005232
 12 O s       :     3.792839  s :     3.792839
      pz      :     1.482272  p :     4.671243
      px      :     1.653367
      py      :     1.535604
      dz2     :     0.011080  d :     0.057386
      dxz     :     0.014090
      dyz     :     0.009776
      dx2y2   :     0.011013
      dxy     :     0.011428
      f0      :     0.000615  f :     0.004301
      f+1     :     0.000718
      f-1     :     0.000587
      f+2     :     0.000684
      f-2     :     0.000664
      f+3     :     0.000611
      f-3     :     0.000422
 13 H s       :     0.592254  s :     0.592254
      pz      :     0.016181  p :     0.058176
      px      :     0.015429
      py      :     0.026566
 14 C s       :     3.205102  s :     3.205102
      pz      :     0.825392  p :     2.820209
      px      :     0.947160
      py      :     1.047658
      dz2     :     0.036884  d :     0.132824
      dxz     :     0.019908
      dyz     :     0.032994
      dx2y2   :     0.027995
      dxy     :     0.015043
      f0      :     0.002247  f :     0.011933
      f+1     :     0.001946
      f-1     :     0.001583
      f+2     :     0.002357
      f-2     :     0.001703
      f+3     :     0.001272
      f-3     :     0.000825
 15 H s       :     0.856296  s :     0.856296
      pz      :     0.005326  p :     0.022931
      px      :     0.005458
      py      :     0.012147
 16 H s       :     0.870316  s :     0.870316
      pz      :     0.004294  p :     0.022173
      px      :     0.013063
      py      :     0.004816
 17 H s       :     0.885286  s :     0.885286
      pz      :     0.009206  p :     0.022190
      px      :     0.004536
      py      :     0.008447


                     *******************************
                     * LOEWDIN POPULATION ANALYSIS *
                     *******************************

----------------------
LOEWDIN ATOMIC CHARGES
----------------------
   0 O :   -0.120370
   1 H :    0.190810
   2 C :   -0.380709
   3 H :    0.107079
   4 H :    0.095082
   5 H :    0.100886
   6 O :   -0.075001
   7 H :    0.202668
   8 C :   -0.374074
   9 H :    0.111928
  10 H :    0.104117
  11 H :    0.105203
  12 O :   -0.121165
  13 H :    0.156330
  14 C :   -0.392854
  15 H :    0.105614
  16 H :    0.094710
  17 H :    0.089747

-------------------------------
LOEWDIN REDUCED ORBITAL CHARGES
-------------------------------
  0 O s       :     3.393828  s :     3.393828
      pz      :     1.459527  p :     4.623450
      px      :     1.468839
      py      :     1.695084
      dz2     :     0.021043  d :     0.096004
      dxz     :     0.025124
      dyz     :     0.020755
      dx2y2   :     0.017705
      dxy     :     0.011376
      f0      :     0.001339  f :     0.007087
      f+1     :     0.000816
      f-1     :     0.001315
      f+2     :     0.001316
      f-2     :     0.000876
      f+3     :     0.000941
      f-3     :     0.000485
  1 H s       :     0.660188  s :     0.660188
      pz      :     0.036439  p :     0.149001
      px      :     0.074473
      py      :     0.038090
  2 C s       :     2.867528  s :     2.867528
      pz      :     0.893912  p :     3.024998
      px      :     1.112250
      py      :     1.018836
      dz2     :     0.120193  d :     0.428111
      dxz     :     0.082882
      dyz     :     0.111347
      dx2y2   :     0.038113
      dxy     :     0.075575
      f0      :     0.013581  f :     0.060072
      f+1     :     0.008647
      f-1     :     0.012855
      f+2     :     0.010102
      f-2     :     0.007904
      f+3     :     0.003253
      f-3     :     0.003729
  3 H s       :     0.826460  s :     0.826460
      pz      :     0.012688  p :     0.066461
      px      :     0.036814
      py      :     0.016958
  4 H s       :     0.840515  s :     0.840515
      pz      :     0.026084  p :     0.064403
      px      :     0.017503
      py      :     0.020816
  5 H s       :     0.833954  s :     0.833954
      pz      :     0.010748  p :     0.065161
      px      :     0.023984
      py      :     0.030428
  6 O s       :     3.380714  s :     3.380714
      pz      :     1.414238  p :     4.589118
      px      :     1.691205
      py      :     1.483675
      dz2     :     0.020731  d :     0.097945
      dxz     :     0.017985
      dyz     :     0.019908
      dx2y2   :     0.021469
      dxy     :     0.017854
      f0      :     0.000708  f :     0.007224
      f+1     :     0.001231
      f-1     :     0.001176
      f+2     :     0.001280
      f-2     :     0.000731
      f+3     :     0.001115
      f-3     :     0.000983
  7 H s       :     0.647371  s :     0.647371
      pz      :     0.068561  p :     0.149961
      px      :     0.052567
      py      :     0.028833
  8 C s       :     2.865457  s :     2.865457
      pz      :     1.053372  p :     3.020103
      px      :     1.102945
      py      :     0.863786
      dz2     :     0.088260  d :     0.427856
      dxz     :     0.040031
      dyz     :     0.086326
      dx2y2   :     0.086486
      dxy     :     0.126751
      f0      :     0.005303  f :     0.060659
      f+1     :     0.003131
      f-1     :     0.011798
      f+2     :     0.009941
      f-2     :     0.008929
      f+3     :     0.010787
      f-3     :     0.010770
  9 H s       :     0.823480  s :     0.823480
      pz      :     0.036982  p :     0.064592
      px      :     0.017910
      py      :     0.009700
 10 H s       :     0.831166  s :     0.831166
      pz      :     0.019909  p :     0.064717
      px      :     0.023591
      py      :     0.021217
 11 H s       :     0.828815  s :     0.828815
      pz      :     0.013382  p :     0.065983
      px      :     0.037709
      py      :     0.014891
 12 O s       :     3.383946  s :     3.383946
      pz      :     1.496208  p :     4.635823
      px      :     1.641525
      py      :     1.498090
      dz2     :     0.020051  d :     0.094411
      dxz     :     0.023295
      dyz     :     0.019797
      dx2y2   :     0.016450
      dxy     :     0.014818
      f0      :     0.001162  f :     0.006984
      f+1     :     0.001270
      f-1     :     0.000857
      f+2     :     0.001031
      f-2     :     0.001185
      f+3     :     0.000964
      f-3     :     0.000515
 13 H s       :     0.655279  s :     0.655279
      pz      :     0.044752  p :     0.188391
      px      :     0.048450
      py      :     0.095189
 14 C s       :     2.865620  s :     2.865620
      pz      :     0.924452  p :     3.022133
      px      :     1.020087
      py      :     1.077595
      dz2     :     0.115951  d :     0.443966
      dxz     :     0.086079
      dyz     :     0.109070
      dx2y2   :     0.094241
      dxy     :     0.038624
      f0      :     0.013426  f :     0.061134
      f+1     :     0.012763
      f-1     :     0.006621
      f+2     :     0.009838
      f-2     :     0.009947
      f+3     :     0.005045
      f-3     :     0.003493
 15 H s       :     0.830565  s :     0.830565
      pz      :     0.014043  p :     0.063822
      px      :     0.015587
      py      :     0.034193
 16 H s       :     0.840983  s :     0.840983
      pz      :     0.012079  p :     0.064307
      px      :     0.038182
      py      :     0.014047
 17 H s       :     0.846174  s :     0.846174
      pz      :     0.026331  p :     0.064079
      px      :     0.012656
      py      :     0.025092


                      *****************************
                      * MAYER POPULATION ANALYSIS *
                      *****************************

  NA   - Mulliken gross atomic population
  ZA   - Total nuclear charge
  QA   - Mulliken gross atomic charge
  VA   - Mayer's total valence
  BVA  - Mayer's bonded valence
  FA   - Mayer's free valence

  ATOM       NA         ZA         QA         VA         BVA        FA
  0 O      8.5155     8.0000    -0.5155     2.1302     1.7293     0.4010
  1 H      0.6751     1.0000     0.3249     0.9063     0.8535     0.0528
  2 C      6.1764     6.0000    -0.1764     3.9815     3.7043     0.2772
  3 H      0.8767     1.0000     0.1233     0.9987     0.9506     0.0481
  4 H      0.8929     1.0000     0.1071     0.9632     0.9146     0.0486
  5 H      0.8786     1.0000     0.1214     0.9720     0.9243     0.0476
  6 O      8.5234     8.0000    -0.5234     2.1488     1.7476     0.4012
  7 H      0.6478     1.0000     0.3522     0.8885     0.8380     0.0504
  8 C      6.1950     6.0000    -0.1950     3.9715     3.6943     0.2771
  9 H      0.8650     1.0000     0.1350     0.9644     0.9181     0.0463
 10 H      0.8741     1.0000     0.1259     0.9693     0.9217     0.0476
 11 H      0.8543     1.0000     0.1457     0.9562     0.9091     0.0471
 12 O      8.5258     8.0000    -0.5258     2.1207     1.7179     0.4027
 13 H      0.6504     1.0000     0.3496     0.9241     0.8753     0.0488
 14 C      6.1701     6.0000    -0.1701     4.0524     3.7728     0.2796
 15 H      0.8792     1.0000     0.1208     0.9636     0.9165     0.0471
 16 H      0.8925     1.0000     0.1075     0.9654     0.9166     0.0488
 17 H      0.9075     1.0000     0.0925     0.9601     0.9103     0.0499

  Mayer bond orders larger than 0.100000
B(  0-O ,  1-H ) :   0.8416 B(  0-O ,  2-C ) :   0.9072 B(  2-C ,  3-H ) :   0.9290 
B(  2-C ,  4-H ) :   0.9390 B(  2-C ,  5-H ) :   0.9430 B(  6-O ,  7-H ) :   0.8226 
B(  6-O ,  8-C ) :   0.8683 B(  8-C ,  9-H ) :   0.9393 B(  8-C , 10-H ) :   0.9380 
B(  8-C , 11-H ) :   0.9335 B( 12-O , 13-H ) :   0.7814 B( 12-O , 14-C ) :   0.9471 
B( 14-C , 15-H ) :   0.9416 B( 14-C , 16-H ) :   0.9411 B( 14-C , 17-H ) :   0.9356 



----------------------------------
MP2 DERIVATIVE INTEGRAL GENERATION
----------------------------------


Input Wavefunction Amplitudes       ... 12meoh.boyd.etal.mol1,7,11-orca.engrad-mp2.def2tzvp.frozencore.mp2tsaa.tmp
Input Correlated Electron Density   ... 12meoh.boyd.etal.mol1,7,11-orca.engrad-mp2.def2tzvp.frozencore.pmp2re
Input Energy Weighted Density       ... 12meoh.boyd.etal.mol1,7,11-orca.engrad-mp2.def2tzvp.frozencore.wmp2.tmp
Input SCF Electron Density          ... 12meoh.boyd.etal.mol1,7,11-orca.engrad-mp2.def2tzvp.frozencore.scfp

One-Electron Terms    ...
                        ... One-Electron Terms done
Prescreening matrices              ... done

Batch handling in the gradient evaluation:
Memory available                      ... 8000.0 MB
Memory per occupied orbital in Q2     ...   10.7 MB
Memory per occupied orbital in Q3     ...    0.1 MB
Total memory requirement per |i>      ...   10.8 MB
Max. Number of orbitals possible      ...    743
Number of orbitals treated per batch  ...     21
Number of batches to be done          ...      1
Batch   0: i=    6 ...    26

---------------------------------------
MP2 TOTAL ENERGY:     -346.535427462 Eh
---------------------------------------

The final MP2 gradient
  0:   0.02063842   0.00083514   0.01181441
  1:  -0.02466463  -0.00254135  -0.01275311
  2:   0.00240468   0.00115680  -0.00393340
  3:   0.00357767   0.00063024   0.00243103
  4:  -0.00075355  -0.00259591   0.00239941
  5:  -0.00297048   0.00165022  -0.00029919
  6:   0.01225472   0.00280615   0.02245322
  7:  -0.01226299  -0.00009684  -0.02024960
  8:   0.00018393   0.00978584  -0.00147849
  9:   0.00139778  -0.00204773   0.00389923
 10:   0.00247319  -0.00310779  -0.00189746
 11:  -0.00337643  -0.00259903   0.00024774
 12:  -0.00485456   0.00799576  -0.00002281
 13:   0.00284576  -0.01586214  -0.00803984
 14:   0.00243688   0.00346724   0.00416617
 15:  -0.00094929   0.00260836   0.00127895
 16:   0.00274441   0.00011940  -0.00066651
 17:  -0.00112552  -0.00220437   0.00065024

-----------------------------------
NORM OF THE MP2 GRADIENT:  0.057102
-----------------------------------

-------------------------   --------------------
FINAL SINGLE POINT ENERGY      -346.535427462271
-------------------------   --------------------


                            ***************************************
                            *     ORCA property calculations      *
                            ***************************************

                                    ---------------------
                                    Active property flags
                                    ---------------------
   (+) Dipole Moment


------------------------------------------------------------------------------
                       ORCA ELECTRIC PROPERTIES CALCULATION
------------------------------------------------------------------------------

Dipole Moment Calculation                       ... on
Quadrupole Moment Calculation                   ... off
Polarizability Calculation                      ... off
GBWName                                         ... 12meoh.boyd.etal.mol1,7,11-orca.engrad-mp2.def2tzvp.frozencore.gbw
Electron density file                           ... 12meoh.boyd.etal.mol1,7,11-orca.engrad-mp2.def2tzvp.frozencore.scfp
The origin for moment calculation is the CENTER OF MASS  = ( 5.355561, -2.349306  2.542773)

-------------
DIPOLE MOMENT
-------------
                                X             Y             Z
Electronic contribution:     -0.59264       0.13733      -3.63693
Nuclear contribution   :      0.24269      -1.11575       3.62902
                        -----------------------------------------
Total Dipole Moment    :     -0.34995      -0.97842      -0.00792
                        -----------------------------------------
Magnitude (a.u.)       :      1.03916
Magnitude (Debye)      :      2.64132



--------------------
Rotational spectrum 
--------------------
 
Rotational constants in cm-1:     0.084624     0.042572     0.031026 
Rotational constants in MHz :  2536.969739  1276.286765   930.136851 

 Dipole components along the rotational axes: 
x,y,z [a.u.] :     0.844959     0.374578    -0.474954 
x,y,z [Debye]:     2.147714     0.952102    -1.207236 

 

                         *** MP2 UNRELAXED DENSITY ***

------------------------------------------------------------------------------
                       ORCA ELECTRIC PROPERTIES CALCULATION
------------------------------------------------------------------------------

Dipole Moment Calculation                       ... on
Quadrupole Moment Calculation                   ... off
Polarizability Calculation                      ... off
GBWName                                         ... 12meoh.boyd.etal.mol1,7,11-orca.engrad-mp2.def2tzvp.frozencore.gbw
Electron density file                           ... 12meoh.boyd.etal.mol1,7,11-orca.engrad-mp2.def2tzvp.frozencore.pmp2ur
The origin for moment calculation is the CENTER OF MASS  = ( 5.355561, -2.349306  2.542773)

-------------
DIPOLE MOMENT
-------------
                                X             Y             Z
Electronic contribution:     -0.58681       0.14764      -3.65327
Nuclear contribution   :      0.24269      -1.11575       3.62902
                        -----------------------------------------
Total Dipole Moment    :     -0.34412      -0.96811      -0.02426
                        -----------------------------------------
Magnitude (a.u.)       :      1.02774
Magnitude (Debye)      :      2.61230



--------------------
Rotational spectrum 
--------------------
 
Rotational constants in cm-1:     0.084624     0.042572     0.031026 
Rotational constants in MHz :  2536.969739  1276.286765   930.136851 

 Dipole components along the rotational axes: 
x,y,z [a.u.] :     0.840755     0.376875    -0.455343 
x,y,z [Debye]:     2.137030     0.957941    -1.157391 

 

                           *** MP2 RELAXED DENSITY ***

------------------------------------------------------------------------------
                       ORCA ELECTRIC PROPERTIES CALCULATION
------------------------------------------------------------------------------

Dipole Moment Calculation                       ... on
Quadrupole Moment Calculation                   ... off
Polarizability Calculation                      ... off
GBWName                                         ... 12meoh.boyd.etal.mol1,7,11-orca.engrad-mp2.def2tzvp.frozencore.gbw
Electron density file                           ... 12meoh.boyd.etal.mol1,7,11-orca.engrad-mp2.def2tzvp.frozencore.pmp2re
The origin for moment calculation is the CENTER OF MASS  = ( 5.355561, -2.349306  2.542773)

-------------
DIPOLE MOMENT
-------------
                                X             Y             Z
Electronic contribution:     -0.57440       0.15589      -3.68068
Nuclear contribution   :      0.24269      -1.11575       3.62902
                        -----------------------------------------
Total Dipole Moment    :     -0.33171      -0.95987      -0.05167
                        -----------------------------------------
Magnitude (a.u.)       :      1.01688
Magnitude (Debye)      :      2.58471



--------------------
Rotational spectrum 
--------------------
 
Rotational constants in cm-1:     0.084624     0.042572     0.031026 
Rotational constants in MHz :  2536.969739  1276.286765   930.136851 

 Dipole components along the rotational axes: 
x,y,z [a.u.] :     0.837430     0.388366    -0.426533 
x,y,z [Debye]:     2.128577     0.987147    -1.084160 

 

Timings for individual modules:

Sum of individual times         ...       92.248 sec (=   1.537 min)
GTO integral calculation        ...        4.593 sec (=   0.077 min)   5.0 %
SCF iterations                  ...       22.512 sec (=   0.375 min)  24.4 %
MP2 module                      ...       65.142 sec (=   1.086 min)  70.6 %
                             ****ORCA TERMINATED NORMALLY****
TOTAL RUN TIME: 0 days 0 hours 1 minutes 33 seconds 296 msec
