90
Energy:   -543.56106512
O   -2.09697223   2.58038883   1.92103318
H   -1.97985324   2.91404593   1.01915771
C   -3.12974387   1.60831403   1.88961531
H   -3.24856293   1.24298999   2.91328790
H   -2.88499160   0.74847198   1.24654043
H   -4.09520985   2.02408359   1.56130377
O    1.09228786   3.62466375  -0.74533418
H    1.73290200   3.07342137  -1.21879868
C    1.37510969   3.51917079   0.64081763
H    0.64443467   4.14603258   1.15912593
H    2.38172557   3.88406510   0.89841024
H    1.27125296   2.49006965   1.01889429
O    2.46742213   0.22671042   1.95662250
H    1.57293141   0.03499393   1.63794647
C    2.74168474  -0.66058370   3.02901373
H    3.75281695  -0.43098659   3.37597484
H    2.71778641  -1.71810907   2.72267031
H    2.05160819  -0.52880308   3.87707362
O   -2.86956831  -0.45633089  -2.12555493
H   -2.21233910  -0.10469754  -2.74428510
C   -3.78337766   0.58750742  -1.82909614
H   -4.51661163   0.17434138  -1.13113699
H   -4.32358294   0.94540971  -2.71952387
H   -3.30035145   1.45090121  -1.34534601
O   -1.70557777   3.56300514  -0.70225149
H   -0.74057595   3.61518184  -0.76912715
C   -2.21603287   4.88274993  -0.80345944
H   -3.30394943   4.80558329  -0.72620609
H   -1.97512848   5.35916642  -1.76666748
H   -1.86193568   5.53896248   0.00695872
O   -0.61971493  -1.48174527   3.97551009
H   -0.53930621  -0.51656131   3.99494256
C   -2.00254223  -1.79839952   3.96826206
H   -2.07494476  -2.88916133   3.94631316
H   -2.52452796  -1.40372804   3.08251794
H   -2.52567699  -1.43958953   4.86846356
O   -0.79466161   0.58812730  -3.73958490
H    0.11888164   0.27403329  -3.81174418
C   -0.75891457   2.00486244  -3.67541740
H   -1.79588407   2.34193666  -3.59442096
H   -0.32131695   2.46048816  -4.57746555
H   -0.20935478   2.37700450  -2.79662752
O   -0.59805883   1.33940573   3.99311362
H   -1.07182489   1.78000410   3.27211288
C    0.54369279   2.12336936   4.30025859
H    1.06567074   1.61280407   5.11410582
H    0.28373014   3.13676235   4.64410650
H    1.23939208   2.21230763   3.45121806
O   -2.62609900  -1.72231879   0.39741861
H   -2.76450730  -1.35949249  -0.49006293
C   -2.18646668  -3.06309564   0.25053551
H   -2.03541775  -3.45649444   1.25944919
H   -1.23155088  -3.14042457  -0.29254218
H   -2.92744600  -3.70039305  -0.25698689
O   -0.07467027  -0.38419855   0.88909836
H   -0.90541231  -0.87916061   0.94657448
C    0.02254472   0.14250433  -0.42454813
H    0.96375981   0.69690458  -0.47187381
H   -0.79615504   0.83861216  -0.66525940
H    0.04951232  -0.64244098  -1.19650081
O    0.54158611  -3.42045647   2.28620847
H    0.14958355  -2.72084119   2.82961966
C    0.93148293  -4.47240330   3.15449535
H    1.37093058  -5.25184669   2.52613321
H    0.08095169  -4.91184855   3.69879474
H    1.68940439  -4.15851545   3.88921081
O    2.74630679   1.81203802  -2.15940406
H    2.49314539   1.05650521  -2.71031490
C    3.76459779   1.37634189  -1.27295830
H    4.03796424   2.23948208  -0.65997788
H    4.66823319   1.03184329  -1.79978002
H    3.42719196   0.57271351  -0.59981934
O    1.54714035  -3.43965552  -0.34496159
H    1.15656093  -3.44087384   0.54153123
C    2.72539183  -2.65113075  -0.29510260
H    3.15249139  -2.66048420  -1.30157350
H    3.47860063  -3.05545794   0.39914041
H    2.52496257  -1.60404520  -0.01902778
O    1.87456988  -0.39655044  -3.70464508
H    1.62734387  -1.31316213  -3.51196506
C    2.48533828  -0.37551164  -4.98490018
H    2.75751899   0.66416609  -5.18607937
H    1.80750558  -0.71189446  -5.78500440
H    3.40277612  -0.98312342  -5.02840947
O    0.93986138  -2.92478541  -3.04807862
H    1.11336928  -3.22014341  -2.14194290
C   -0.45498899  -3.04121909  -3.27909685
H   -0.63285578  -2.70452822  -4.30402996
H   -1.05214668  -2.40888994  -2.60356753
H   -0.81514600  -4.07836527  -3.19311982
