90
Energy:   -539.66269732
O   -2.97906454   1.72763261  -1.18080136
H   -2.26628457   2.31648681  -0.89163232
C   -3.80288533   1.46450399  -0.05624972
H   -4.60037095   0.79998756  -0.39964425
H   -4.26915768   2.37498756   0.35165601
H   -3.26204125   0.95659221   0.75756270
O    1.59279713   3.22780920   0.93346318
H    1.73418156   2.46527189   1.51395484
C    2.62619604   3.22634033  -0.03845158
H    2.45171518   4.09151566  -0.68382999
H    2.61627122   2.32305292  -0.66833306
H    3.62841900   3.32881540   0.40632401
O    1.68320496   0.82521912   2.40265021
H    1.00245298   0.35734149   1.89659632
C    1.92062692   0.08645283   3.59024819
H    2.68975821   0.62735310   4.14823488
H    2.29464281  -0.93003047   3.39112226
H    1.02667709   0.00891468   4.22869856
O   -2.78237288  -0.81696432  -2.36643834
H   -2.85589736   0.08225814  -2.01371126
C   -3.04567167  -0.75590566  -3.75909026
H   -2.95866786  -1.77697178  -4.14032448
H   -2.32290602  -0.12631435  -4.30130971
H   -4.06058871  -0.39268313  -3.98445692
O   -0.86971899   3.42736942  -0.41378046
H   -0.01749416   3.37503175   0.04381859
C   -1.11382950   4.79216310  -0.71425019
H   -2.07741843   4.83296246  -1.22933949
H   -0.35144664   5.22361186  -1.38163439
H   -1.18193135   5.42054157   0.18757017
O   -1.66927214  -0.96051778   4.08809524
H   -1.69349920  -0.03194709   3.81315378
C   -2.97917398  -1.48608884   3.94503578
H   -2.93385230  -2.53246575   4.25892509
H   -3.33764942  -1.45714129   2.90415407
H   -3.71597968  -0.97058337   4.58076277
O    0.25186042   1.07502018  -4.30155650
H    1.07057284   0.96110413  -3.79642643
C   -0.42438211   2.20592136  -3.77592135
H   -1.34406526   2.31977041  -4.35618551
H    0.15918482   3.13454061  -3.87538617
H   -0.70175823   2.08152282  -2.71744847
O   -1.67833314   1.58173984   2.87248484
H   -1.24641660   1.23174614   2.07915276
C   -1.13052439   2.86469076   3.13031477
H   -1.62802425   3.24431731   4.02689872
H   -1.31301220   3.57749380   2.31093248
H   -0.04769125   2.83274067   3.32837770
O   -2.72666896  -1.83935755   0.30955593
H   -2.85541999  -1.65456226  -0.63262089
C   -2.29318680  -3.18485649   0.42896948
H   -2.15301102  -3.37620157   1.49631339
H   -1.33406650  -3.36936155  -0.07977747
H   -3.03326700  -3.90552165   0.04726233
O   -0.53414334  -0.10630065   0.87988985
H   -1.23569116  -0.77042387   0.80781842
C    0.09853067  -0.00939643  -0.38615397
H    0.88587504   0.74278144  -0.28714642
H   -0.58917600   0.31887397  -1.18118567
H    0.56732274  -0.95493283  -0.70075251
O    0.14434381  -2.78542088   2.93691621
H   -0.50070874  -2.16208354   3.30267711
C    0.48296552  -3.70554508   3.96221645
H    1.21021533  -4.40024022   3.53327405
H   -0.38241416  -4.29005867   4.31184367
H    0.94850241  -3.21890799   4.83355856
O    3.50052178  -0.64200894  -0.49831951
H    3.04719880  -1.32029568   0.02402964
C    4.49705816  -0.05865719   0.32578593
H    4.99781901   0.70296728  -0.27807823
H    5.25543612  -0.78591199   0.65554441
H    4.07724778   0.43379057   1.21687054
O    2.15309016  -2.62973174   0.96723276
H    1.44261745  -2.66319551   1.62490440
C    1.87546113  -3.61323669  -0.01672553
H    2.68532520  -3.56187916  -0.74950639
H    0.92594126  -3.43107446  -0.54398853
H    1.85320796  -4.63377777   0.39652746
O    2.63307695   0.66219051  -2.81373146
H    2.94592319   0.21919888  -2.01104291
C    3.56968340   0.39561014  -3.84535012
H    3.20198419   0.90184660  -4.74201458
H    3.65855247  -0.67842737  -4.07189601
H    4.57385464   0.78738500  -3.61967357
O   -0.65989803  -2.76576562  -2.61276792
H   -1.35492435  -2.09205434  -2.57436466
C    0.36307617  -2.28060362  -3.46756345
H    1.13770750  -3.05158466  -3.49949680
H    0.82192797  -1.35081636  -3.09644620
H    0.01093014  -2.10766192  -4.49657350
