90
Energy:   -535.96222747
O   -3.03534734   1.94414799  -1.55049858
H   -2.42199726   2.56630340  -1.13199220
C   -4.22294312   1.92295920  -0.77480465
H   -4.90266536   1.21736607  -1.26019233
H   -4.72156190   2.90401288  -0.73369127
H   -4.05113392   1.57700458   0.25649276
O    1.05650319   3.45525539   1.29855276
H    1.17664047   2.65624567   1.83294378
C    2.20358375   3.59973485   0.47644226
H    2.05166160   4.50430376  -0.11867112
H    2.33964877   2.75434513  -0.21607478
H    3.13038733   3.72527131   1.05786556
O    1.24806295   0.89979934   2.48584329
H    0.83958455   0.36367065   1.79004541
C    1.34534491   0.09367395   3.64912823
H    1.80746957   0.71292722   4.42272463
H    1.97885679  -0.79456279   3.49920981
H    0.36295006  -0.23869653   4.01954361
O   -2.89073367  -0.80426019  -2.28067263
H   -2.99754876   0.13211964  -2.05660429
C   -2.41246854  -0.87585842  -3.61434048
H   -2.29779044  -1.93727622  -3.85040485
H   -1.43232581  -0.39007270  -3.74126484
H   -3.11399173  -0.43821521  -4.34174063
O   -1.21800413   3.75520730  -0.34505763
H   -0.44201276   3.70999839   0.23305727
C   -1.37533667   5.10584010  -0.74949711
H   -2.25361455   5.13874416  -1.39990505
H   -0.51262876   5.48168631  -1.32155657
H   -1.55282674   5.78573045   0.09845556
O   -2.28375403  -1.81761016   3.58821157
H   -2.37791186  -0.95297965   3.16163019
C   -3.58613225  -2.29478943   3.88594415
H   -3.46157135  -3.26928030   4.36587885
H   -4.20411052  -2.43438070   2.98516978
H   -4.13062100  -1.63826966   4.58257255
O    0.67455867   1.30001277  -3.91445237
H    1.51045725   1.37660619  -3.43089236
C   -0.05534748   2.49826558  -3.70478363
H   -0.99379899   2.39505047  -4.25627309
H    0.46909674   3.38804384  -4.08692266
H   -0.29940946   2.66749039  -2.64432428
O   -2.36344592   0.56381602   2.13091685
H   -1.68163623   0.38906817   1.46531786
C   -2.14954854   1.87341560   2.63264450
H   -2.92602459   2.05384988   3.38098508
H   -2.23945021   2.64703592   1.85405179
H   -1.16998397   1.98618025   3.12306750
O   -1.26366599  -2.66102840  -0.94430782
H   -1.90923176  -2.10893362  -1.40998955
C   -1.94462267  -3.32426833   0.10875655
H   -1.20290907  -3.94163096   0.62276970
H   -2.74707361  -3.98562460  -0.25381443
H   -2.37530409  -2.62568209   0.84310532
O   -0.27587926  -0.38527605   0.46884142
H   -0.42907945  -1.27994907   0.13044349
C    0.07746293   0.43668351  -0.63209707
H    0.24646921   1.44056569  -0.23317018
H   -0.72009894   0.49986340  -1.38885376
H    1.00297182   0.10667484  -1.12939467
O    0.15957834  -3.04711450   2.98851096
H   -0.69545953  -2.65413651   3.21851491
C    0.46021225  -4.02768052   3.96863509
H    1.42622323  -4.46019293   3.69433413
H   -0.28185762  -4.84084387   3.99821567
H    0.55121738  -3.60331983   4.98076818
O    3.50200676  -0.35784088  -0.20031197
H    3.03957666  -1.07857570   0.25259309
C    4.34141453   0.27902727   0.74959715
H    4.85464738   1.08808363   0.22280968
H    5.10545371  -0.39768694   1.16321453
H    3.77805658   0.72013258   1.58675381
O    2.19754885  -2.47103919   1.13363743
H    1.50198047  -2.64395978   1.78533243
C    2.25244147  -3.58493739   0.25685276
H    3.04086820  -3.37358042  -0.47060633
H    1.31162880  -3.73892896  -0.29445064
H    2.50870068  -4.52206208   0.77541409
O    3.08584206   1.29790613  -2.41817038
H    3.25993850   0.74151464  -1.64451528
C    4.01403068   0.93426845  -3.42751041
H    3.80386806   1.57048692  -4.29153757
H    3.90944071  -0.11559881  -3.74313204
H    5.05928965   1.10368700  -3.12500692
O    0.70982006  -3.37153338  -2.88621260
H    0.03843599  -3.17526507  -2.21602944
C    1.39519181  -2.16360238  -3.17552563
H    2.14759569  -2.40272932  -3.93195931
H    1.91395491  -1.74820627  -2.29739794
H    0.73218587  -1.38659704  -3.58718467
