90
Energy:   -536.47848870
O   -3.05962142   2.84841952  -0.02282213
H   -2.10792572   2.98245772  -0.14419894
C   -3.29011968   1.45121642   0.06219443
H   -4.36675105   1.31816298   0.19874794
H   -2.77736907   0.98700741   0.91915075
H   -2.99316407   0.91480033  -0.85260199
O    2.39281609   2.98587526   0.21650702
H    2.98460947   2.22785566   0.09984440
C    2.45280156   3.37292533   1.58000537
H    1.78055124   4.22768531   1.69380381
H    3.46173709   3.68868842   1.88842087
H    2.11342676   2.57841421   2.26290665
O    3.27053381  -1.08234204   2.20190052
H    2.53838645  -1.71366028   2.26371309
C    3.19266497  -0.22143876   3.32676307
H    4.02440083   0.48311759   3.24131713
H    3.29765349  -0.75931100   4.28198461
H    2.25633116   0.35757175   3.35510283
O   -3.29651918  -1.34758959  -2.50947396
H   -2.82355138  -0.63543025  -2.96505470
C   -4.68108689  -1.17939942  -2.76873849
H   -5.19885321  -1.98968710  -2.24831836
H   -4.92486292  -1.25119266  -3.84027772
H   -5.07220716  -0.22344987  -2.38668783
O   -0.30068232   3.43419967  -0.47928615
H    0.62776691   3.27708847  -0.25186284
C   -0.38866200   4.72460686  -1.06207484
H   -1.44085892   4.88529236  -1.31216886
H    0.19991741   4.81379787  -1.98857177
H   -0.07550838   5.52461941  -0.37309584
O   -1.53790929  -0.72051019   4.61149752
H   -1.09733811   0.06325493   4.25089724
C   -2.74203760  -0.90959569   3.88564943
H   -3.22550422  -1.79626115   4.30465968
H   -2.56825516  -1.09015243   2.81327997
H   -3.43731235  -0.06160398   3.98704179
O   -1.84872255   0.75370349  -3.63053099
H   -0.88730384   0.78611810  -3.74475286
C   -2.31085237   2.08771438  -3.49130188
H   -3.39536157   2.03277508  -3.36360426
H   -2.10250167   2.70478984  -4.37932507
H   -1.88848863   2.59419702  -2.60933728
O   -0.24496353   1.38988383   3.17315517
H   -0.30035880   0.87452496   2.35476659
C   -1.04238455   2.55113194   3.00535671
H   -0.96867763   3.12003458   3.93616404
H   -2.10426360   2.31637934   2.83191675
H   -0.68989615   3.19393004   2.18356606
O   -2.53301268  -2.07989567   0.06963662
H   -2.87081622  -1.90519149  -0.82131259
C   -2.00051806  -3.39477774   0.07790629
H   -1.62450470  -3.57509056   1.08864189
H   -1.16212354  -3.51846699  -0.62535250
H   -2.75821988  -4.16183382  -0.14634862
O   -0.51845371  -0.44938821   1.06601515
H   -1.24378209  -0.97490961   0.69703105
C    0.25455097   0.03877046  -0.01874227
H    1.06696557   0.62836733   0.41466659
H   -0.32174151   0.69378298  -0.69077121
H    0.70160861  -0.76860611  -0.61962486
O    0.89269479  -2.62134143   2.17375286
H    0.34239380  -1.85412652   1.95701942
C    0.51449567  -3.07135429   3.46487161
H    1.14400227  -3.93568979   3.69319328
H   -0.53758766  -3.39338886   3.51168754
H    0.68062371  -2.31235480   4.24531929
O    3.85522196   0.58984072   0.02504977
H    3.71584886  -0.00422270   0.77743735
C    4.25812587  -0.20280634  -1.08035190
H    4.41076950   0.48199469  -1.91894159
H    3.49492407  -0.93966130  -1.37589397
H    5.20425414  -0.73630160  -0.89868888
O    1.80696745  -3.31615973  -0.41397380
H    1.47976890  -3.19220137   0.48935267
C    3.12364505  -3.83707855  -0.32715532
H    3.47694964  -3.97062624  -1.35322846
H    3.16150430  -4.81543437   0.17699138
H    3.81808885  -3.15420333   0.18685497
O    0.94212282   0.69250023  -3.73312607
H    1.25623933  -0.18968220  -3.48511748
C    1.80201543   1.64248348  -3.12431551
H    1.43391946   2.63045111  -3.41398864
H    2.84489466   1.55287909  -3.46658922
H    1.79085172   1.58292170  -2.02472236
O    1.39561433  -1.98952269  -2.86921373
H    1.57331720  -2.48497878  -2.05596824
C    0.17921890  -2.47666341  -3.41291389
H   -0.00583705  -1.90789920  -4.32819896
H   -0.67830564  -2.32655684  -2.73845336
H    0.22958263  -3.54419295  -3.67866095
