90
Energy:   -536.52939547
O   -2.65859167  -2.11550100   1.85637573
H   -1.87694556  -2.64037667   1.62843241
C   -3.77166969  -2.68915641   1.18965947
H   -4.64335086  -2.08583560   1.45735545
H   -3.96589989  -3.72712458   1.50218791
H   -3.66690717  -2.67012297   0.09355734
O    3.15226466  -0.89143450   2.50113485
H    2.37480888  -0.69683843   3.04530224
C    3.83475234   0.33110460   2.27278757
H    4.70754174   0.09367605   1.65849811
H    4.18990055   0.80017087   3.20371395
H    3.22177666   1.06461757   1.72598149
O   -0.37802029  -3.57247836   1.08755805
H    0.19920259  -3.69873108   0.31990105
C    0.42944458  -3.65332762   2.25117210
H   -0.23645135  -3.50898374   3.10629353
H    1.20437498  -2.87164040   2.28617630
H    0.91930766  -4.63344059   2.36158069
O    2.62879545   2.15004960  -0.74365560
H    1.87038260   1.54774089  -0.76504349
C    2.27292450   3.31618097  -1.46893297
H    3.13824550   3.98366818  -1.43479219
H    1.41498505   3.84659387  -1.02691556
H    2.04491496   3.10662462  -2.52575609
O    0.69799823   2.67009738   3.17247887
H   -0.09241366   2.86989613   2.64926497
C    1.74919398   3.49530102   2.69649544
H    2.63166310   3.25737935   3.29660105
H    1.53443855   4.56879820   2.81591590
H    1.99368212   3.30531077   1.63965743
O    0.02314793   0.45047116  -4.08219450
H   -0.09477488  -0.41991654  -3.67360823
C    1.41416063   0.64959735  -4.27704368
H    1.52901424   1.63440588  -4.73796235
H    1.86021328  -0.09741526  -4.95216332
H    1.98057592   0.64654157  -3.33261703
O   -0.11047965  -1.95330422  -2.54941567
H    0.42882410  -2.63945686  -2.12897627
C   -1.47246811  -2.26767253  -2.30714766
H   -2.06580492  -1.48490118  -2.78746593
H   -1.72268358  -2.27612265  -1.23472137
H   -1.76914581  -3.23550010  -2.74081741
O    0.51790190   0.28571541  -0.85588548
H    0.22232804  -0.43910537  -1.42658172
C    0.29694193  -0.10785679   0.48903511
H    0.63530084   0.71986480   1.11822142
H    0.86982655  -1.00576054   0.76894475
H   -0.76635904  -0.29146957   0.70915947
O    0.84594417  -0.03802427   3.89354783
H    0.83292808   0.91855691   3.74121165
C   -0.47135799  -0.43714262   4.23699119
H   -0.43865523  -1.51702118   4.40515195
H   -1.19875261  -0.23850988   3.43435839
H   -0.83353273   0.04133162   5.16039208
O   -3.77785263   0.07062697  -1.12035889
H   -3.61462291   0.32775952  -0.20075997
C   -3.12369727   1.01410865  -1.95369967
H   -3.31779984   0.70952716  -2.98570718
H   -2.03304218   1.03114385  -1.80217865
H   -3.50889795   2.03730667  -1.82154980
O   -0.69672777   3.05458651  -3.15940064
H   -0.44023012   2.16210315  -3.43527321
C   -1.40099112   3.65220715  -4.23615338
H   -1.68241828   4.65665936  -3.90849546
H   -2.32201672   3.10743345  -4.49636638
H   -0.78621122   3.74921702  -5.14467531
O   -3.18906932   0.61742860   1.61578354
H   -3.01601492  -0.32055091   1.78510535
C   -4.24532880   1.02168009   2.47218905
H   -4.42729096   2.08038379   2.26842092
H   -3.99136781   0.91804673   3.53874485
H   -5.18053239   0.47190509   2.28266589
O    3.48559898  -2.28806696   0.06420131
H    3.46340987  -1.82589648   0.91527672
C    3.85983822  -1.34551984  -0.92780862
H    3.87991816  -1.88271941  -1.87991083
H    4.86088481  -0.92050931  -0.75446182
H    3.14118752  -0.51605340  -1.01893443
O    1.44753566  -3.76968643  -1.07559416
H    2.22070444  -3.31099653  -0.71471069
C    1.85352157  -5.08079819  -1.43433525
H    0.97077656  -5.58336528  -1.83890017
H    2.21420847  -5.66484852  -0.57319211
H    2.63518896  -5.08662035  -2.21005397
O   -1.58392366   2.95654478   1.57386854
H   -2.15701266   2.17733319   1.52075009
C   -1.31008866   3.38063177   0.24808636
H   -0.66360479   4.25893138   0.32640368
H   -2.21871778   3.67341921  -0.30095460
H   -0.77875509   2.61712422  -0.34142037
