
                                 *****************
                                 * O   R   C   A *
                                 *****************

           --- An Ab Initio, DFT and Semiempirical electronic structure package ---

                  #######################################################
                  #                        -***-                        #
                  #          Department of theory and spectroscopy      #
                  #               Directorship: Frank Neese             #
                  #        Max Planck Institute fuer Kohlenforschung    #
                  #                Kaiser Wilhelm Platz 1               #
                  #                 D-45470 Muelheim/Ruhr               #
                  #                      Germany                        #
                  #                                                     #
                  #                  All rights reserved                #
                  #                        -***-                        #
                  #######################################################


                         Program Version 4.2.0 -  RELEASE  -


 With contributions from (in alphabetic order):
   Daniel Aravena         : Magnetic Suceptibility
   Michael Atanasov       : Ab Initio Ligand Field Theory (pilot matlab implementation)
   Alexander A. Auer      : GIAO ZORA, VPT2
   Ute Becker             : Parallelization
   Giovanni Bistoni       : ED, misc. LED, open-shell LED, HFLED
   Martin Brehm           : Molecular dynamics
   Dmytro Bykov           : SCF Hessian
   Vijay G. Chilkuri      : MRCI spin determinant printing, contributions to CSF-ICE
   Dipayan Datta          : RHF DLPNO-CCSD density
   Achintya Kumar Dutta   : EOM-CC, STEOM-CC
   Dmitry Ganyushin       : Spin-Orbit,Spin-Spin,Magnetic field MRCI
   Miquel Garcia          : C-PCM Hessian, Gaussian charge scheme
   Yang Guo               : DLPNO-NEVPT2, CIM, IAO-localization
   Andreas Hansen         : Spin unrestricted coupled pair/coupled cluster methods
   Benjamin Helmich-Paris : CASSCF linear response (MC-RPA)
   Lee Huntington         : MR-EOM, pCC
   Robert Izsak           : Overlap fitted RIJCOSX, COSX-SCS-MP3, EOM
   Christian Kollmar      : KDIIS, OOCD, Brueckner-CCSD(T), CCSD density
   Simone Kossmann        : Meta GGA functionals, TD-DFT gradient, OOMP2, MP2 Hessian
   Martin Krupicka        : AUTO-CI
   Lucas Lang             : DCDCAS
   Dagmar Lenk            : GEPOL surface, SMD
   Dimitrios Liakos       : Extrapolation schemes; Compound Job, initial MDCI parallelization
   Dimitrios Manganas     : Further ROCIS development; embedding schemes
   Dimitrios Pantazis     : SARC Basis sets
   Taras Petrenko         : DFT Hessian,TD-DFT gradient, ASA, ECA, R-Raman, ABS, FL, XAS/XES, NRVS
   Peter Pinski           : DLPNO-MP2, DLPNO-MP2 Gradient
   Christoph Reimann      : Effective Core Potentials
   Marius Retegan         : Local ZFS, SOC
   Christoph Riplinger    : Optimizer, TS searches, QM/MM, DLPNO-CCSD(T), (RO)-DLPNO pert. Triples
   Tobias Risthaus        : Range-separated hybrids, TD-DFT gradient, RPA, STAB
   Michael Roemelt        : Original ROCIS implementation
   Masaaki Saitow         : Open-shell DLPNO-CCSD energy and density
   Barbara Sandhoefer     : DKH picture change effects
   Avijit Sen             : IP-ROCIS
   Kantharuban Sivalingam : CASSCF convergence, NEVPT2, FIC-MRCI
   Bernardo de Souza      : ESD, SOC TD-DFT
   Georgi Stoychev        : AutoAux, RI-MP2 NMR
   Willem Van den Heuvel  : Paramagnetic NMR
   Boris Wezisla          : Elementary symmetry handling
   Frank Wennmohs         : Technical directorship


 We gratefully acknowledge several colleagues who have allowed us to
 interface, adapt or use parts of their codes:
   Stefan Grimme, W. Hujo, H. Kruse,             : VdW corrections, initial TS optimization,
                  C. Bannwarth                     DFT functionals, gCP, sTDA/sTD-DF
   Ed Valeev, F. Pavosevic, A. Kumar             : LibInt (2-el integral package), F12 methods
   Garnet Chan, S. Sharma, J. Yang, R. Olivares  : DMRG
   Ulf Ekstrom                                   : XCFun DFT Library
   Mihaly Kallay                                 : mrcc  (arbitrary order and MRCC methods)
   Andreas Klamt, Michael Diedenhofen            : otool_cosmo (COSMO solvation model)
   Jiri Pittner, Ondrej Demel                    : Mk-CCSD
   Frank Weinhold                                : gennbo (NPA and NBO analysis)
   Christopher J. Cramer and Donald G. Truhlar   : smd solvation model
   Lars Goerigk                                  : TD-DFT with DH, B97 family of functionals
   V. Asgeirsson, H. Jonsson                     : NEB implementation
   FAccTs GmbH                                   : IRC, NEB, NEB-TS, Multilevel, MM, QM/MM, CI optimization
   S Lehtola, MJT Oliveira, MAL Marques          : LibXC Library


 Your calculation uses the libint2 library for the computation of 2-el integrals
 For citations please refer to: http://libint.valeyev.net

 Your ORCA version has been built with support for libXC version: 4.2.3
 For citations please refer to: https://tddft.org/programs/libxc/

 This ORCA versions uses:
   CBLAS   interface :  Fast vector & matrix operations
   LAPACKE interface :  Fast linear algebra routines
   SCALAPACK package :  Parallel linear algebra routines


----- Orbital basis set information -----
Your calculation utilizes the basis: def2-TZVP
   F. Weigend and R. Ahlrichs, Phys. Chem. Chem. Phys. 7, 3297 (2005).

================================================================================
                                        WARNINGS
                       Please study these warnings very carefully!
================================================================================


WARNING: The frozen-core approximation for MP2-gradient calculations is turned on by default.

INFO   : the flag for use of LIBINT has been found!

================================================================================
                                       INPUT FILE
================================================================================
NAME = 12h2o.su.etal.mol1,3,4,5,6,7,8,10-orca.engrad-mp2.def2tzvp.frozencore.inp
|  1> # 12h2o.su.etal.mol1,3,4,5,6,7,8,10
|  2> ! MP2 def2-TZVP EnGrad TightSCF
|  3> 
|  4> %pal
|  5>     nprocs 6
|  6> end
|  7> 
|  8> %maxcore 8000
|  9> 
| 10> %scf
| 11>     ConvForced true
| 12> end
| 13> 
| 14> *xyz 0 1
| 15> O  -1.794470000  -0.923410000   2.768350000
| 16> H  -2.338250000  -1.359750000   3.430940000
| 17> H  -0.879480000  -1.303000000   2.865760000
| 18> O  -1.752130000  -0.741530000  -2.896280000
| 19> H  -2.036450000  -0.920500000  -1.984040000
| 20> H  -0.921210000  -1.242140000  -2.984230000
| 21> O  -0.885520000   1.737840000   0.052730000
| 22> H  -1.032320000   2.090180000  -0.841890000
| 23> H  -1.284090000   0.839590000   0.017130000
| 24> O   0.885520000  -1.737840000   0.052730000
| 25> H   1.284090000  -0.839590000   0.017130000
| 26> H   1.032320000  -2.090180000  -0.841890000
| 27> O   1.737840000   0.885520000  -0.052730000
| 28> H   2.090180000   1.032320000   0.841890000
| 29> H   0.839590000   1.284090000  -0.017130000
| 30> O  -1.737840000  -0.885520000  -0.052730000
| 31> H  -2.090180000  -1.032320000   0.841890000
| 32> H  -0.839590000  -1.284090000  -0.017130000
| 33> O   1.752130000   0.741530000  -2.896280000
| 34> H   2.036450000   0.920500000  -1.984040000
| 35> H   0.921210000   1.242140000  -2.984230000
| 36> O  -0.923410000   1.794470000  -2.768350000
| 37> H  -1.359750000   2.338250000  -3.430940000
| 38> H  -1.303000000   0.879480000  -2.865760000
| 39> *
| 40> 
| 41>                          ****END OF INPUT****
================================================================================

                     *******************************
                     * Energy+Gradient Calculation *
                     *******************************

---------------------------------
CARTESIAN COORDINATES (ANGSTROEM)
---------------------------------
  O     -1.794470   -0.923410    2.768350
  H     -2.338250   -1.359750    3.430940
  H     -0.879480   -1.303000    2.865760
  O     -1.752130   -0.741530   -2.896280
  H     -2.036450   -0.920500   -1.984040
  H     -0.921210   -1.242140   -2.984230
  O     -0.885520    1.737840    0.052730
  H     -1.032320    2.090180   -0.841890
  H     -1.284090    0.839590    0.017130
  O      0.885520   -1.737840    0.052730
  H      1.284090   -0.839590    0.017130
  H      1.032320   -2.090180   -0.841890
  O      1.737840    0.885520   -0.052730
  H      2.090180    1.032320    0.841890
  H      0.839590    1.284090   -0.017130
  O     -1.737840   -0.885520   -0.052730
  H     -2.090180   -1.032320    0.841890
  H     -0.839590   -1.284090   -0.017130
  O      1.752130    0.741530   -2.896280
  H      2.036450    0.920500   -1.984040
  H      0.921210    1.242140   -2.984230
  O     -0.923410    1.794470   -2.768350
  H     -1.359750    2.338250   -3.430940
  H     -1.303000    0.879480   -2.865760

----------------------------
CARTESIAN COORDINATES (A.U.)
----------------------------
  NO LB      ZA    FRAG     MASS         X           Y           Z
   0 O     8.0000    0    15.999   -3.391057   -1.744992    5.231423
   1 H     1.0000    0     1.008   -4.418652   -2.569555    6.483537
   2 H     1.0000    0     1.008   -1.661976   -2.462313    5.415502
   3 O     8.0000    0    15.999   -3.311046   -1.401289   -5.473176
   4 H     1.0000    0     1.008   -3.848333   -1.739493   -3.749292
   5 H     1.0000    0     1.008   -1.740835   -2.347304   -5.639377
   6 O     8.0000    0    15.999   -1.673390    3.284042    0.099645
   7 H     1.0000    0     1.008   -1.950802    3.949868   -1.590942
   8 H     1.0000    0     1.008   -2.426578    1.586595    0.032371
   9 O     8.0000    0    15.999    1.673390   -3.284042    0.099645
  10 H     1.0000    0     1.008    2.426578   -1.586595    0.032371
  11 H     1.0000    0     1.008    1.950802   -3.949868   -1.590942
  12 O     8.0000    0    15.999    3.284042    1.673390   -0.099645
  13 H     1.0000    0     1.008    3.949868    1.950802    1.590942
  14 H     1.0000    0     1.008    1.586595    2.426578   -0.032371
  15 O     8.0000    0    15.999   -3.284042   -1.673390   -0.099645
  16 H     1.0000    0     1.008   -3.949868   -1.950802    1.590942
  17 H     1.0000    0     1.008   -1.586595   -2.426578   -0.032371
  18 O     8.0000    0    15.999    3.311046    1.401289   -5.473176
  19 H     1.0000    0     1.008    3.848333    1.739493   -3.749292
  20 H     1.0000    0     1.008    1.740835    2.347304   -5.639377
  21 O     8.0000    0    15.999   -1.744992    3.391057   -5.231423
  22 H     1.0000    0     1.008   -2.569555    4.418652   -6.483537
  23 H     1.0000    0     1.008   -2.462313    1.661976   -5.415502

--------------------------------
INTERNAL COORDINATES (ANGSTROEM)
--------------------------------
 O      0   0   0     0.000000000000     0.00000000     0.00000000
 H      1   0   0     0.961828878803     0.00000000     0.00000000
 H      1   2   0     0.995381322057   106.21731035     0.00000000
 O      1   2   3     5.667707300743   135.01509642   116.29625730
 H      4   1   2     0.972136791249    18.92045113     9.26599691
 H      4   1   2     0.974050112161    94.59568686   248.81379742
 O      5   4   1     3.541164138161   107.84672602    33.14664954
 H      7   5   4     0.972645187106    72.17296994    29.09453504
 H      7   5   4     0.983350632989    33.04029707   190.88793319
 O      3   1   2     3.349245975813   116.85538783   143.82107740
 H     10   3   1     0.983350632989    97.20424340    87.67157074
 H     10   3   1     0.972645187106   154.03893681   304.15813038
 O     11  10   3     1.785153773264   170.81379649   301.36914736
 H     13  11  10     0.972645187106   101.65007623   109.44492584
 H     13  11  10     0.983350632989    99.09581498     3.33484705
 O      9   7   5     1.785153773264   170.81379649    88.00403199
 H     16   9   7     0.972645187106   101.65007623   109.44492584
 H     16   9   7     0.983350632989    99.09581498     3.33484705
 O     13  11  10     2.847229166523    89.51229470   269.85728871
 H     19  13  11     0.972136791249    19.08819947   230.61896091
 H     19  13  11     0.974050112161    93.43428486   106.52268102
 O     21  19  13     1.937600461318   161.54375213   306.34627465
 H     22  21  19     0.961828878803   121.08403650   202.75419110
 H     22  21  19     0.995381322057    95.17003195   315.21089530

---------------------------
INTERNAL COORDINATES (A.U.)
---------------------------
 O      0   0   0     0.000000000000     0.00000000     0.00000000
 H      1   0   0     1.817593168635     0.00000000     0.00000000
 H      1   2   0     1.880998097508   106.21731035     0.00000000
 O      1   2   3    10.710414605631   135.01509642   116.29625730
 H      4   1   2     1.837072300170    18.92045113     9.26599691
 H      4   1   2     1.840687952699    94.59568686   248.81379742
 O      5   4   1     6.691830416388   107.84672602    33.14664954
 H      7   5   4     1.838033029106    72.17296994    29.09453504
 H      7   5   4     1.858263389967    33.04029707   190.88793319
 O      3   1   2     6.329157649425   116.85538783   143.82107740
 H     10   3   1     1.858263389967    97.20424340    87.67157074
 H     10   3   1     1.838033029106   154.03893681   304.15813038
 O     11  10   3     3.373451738406   170.81379649   301.36914736
 H     13  11  10     1.838033029106   101.65007623   109.44492584
 H     13  11  10     1.858263389967    99.09581498     3.33484705
 O      9   7   5     3.373451738406   170.81379649    88.00403199
 H     16   9   7     1.838033029106   101.65007623   109.44492584
 H     16   9   7     1.858263389967    99.09581498     3.33484705
 O     13  11  10     5.380483365242    89.51229470   269.85728871
 H     19  13  11     1.837072300170    19.08819947   230.61896091
 H     19  13  11     1.840687952699    93.43428486   106.52268102
 O     21  19  13     3.661534228851   161.54375213   306.34627465
 H     22  21  19     1.817593168635   121.08403650   202.75419110
 H     22  21  19     1.880998097508    95.17003195   315.21089530

---------------------
BASIS SET INFORMATION
---------------------
There are 2 groups of distinct atoms

 Group   1 Type O   : 11s6p2d1f contracted to 5s3p2d1f pattern {62111/411/11/1}
 Group   2 Type H   : 5s1p contracted to 3s1p pattern {311/1}

Atom   0O    basis set group =>   1
Atom   1H    basis set group =>   2
Atom   2H    basis set group =>   2
Atom   3O    basis set group =>   1
Atom   4H    basis set group =>   2
Atom   5H    basis set group =>   2
Atom   6O    basis set group =>   1
Atom   7H    basis set group =>   2
Atom   8H    basis set group =>   2
Atom   9O    basis set group =>   1
Atom  10H    basis set group =>   2
Atom  11H    basis set group =>   2
Atom  12O    basis set group =>   1
Atom  13H    basis set group =>   2
Atom  14H    basis set group =>   2
Atom  15O    basis set group =>   1
Atom  16H    basis set group =>   2
Atom  17H    basis set group =>   2
Atom  18O    basis set group =>   1
Atom  19H    basis set group =>   2
Atom  20H    basis set group =>   2
Atom  21O    basis set group =>   1
Atom  22H    basis set group =>   2
Atom  23H    basis set group =>   2


           ************************************************************
           *        Program running with 6 parallel MPI-processes     *
           *              working on a common directory               *
           ************************************************************
------------------------------------------------------------------------------
                           ORCA GTO INTEGRAL CALCULATION
------------------------------------------------------------------------------

                         BASIS SET STATISTICS AND STARTUP INFO

 # of primitive gaussian shells          ...  256
 # of primitive gaussian functions       ...  496
 # of contracted shells                  ...  152
 # of contracted basis functions         ...  344
 Highest angular momentum                ...    3
 Maximum contraction depth               ...    6
 Integral package used                   ... LIBINT
 Integral threshhold            Thresh   ...  2.500e-11
 Primitive cut-off              TCut     ...  2.500e-12


------------------------------ INTEGRAL EVALUATION ----------------------------


 * One electron integrals 
 Pre-screening matrix                    ... done
 Shell pair data                         ... done (   0.002 sec)



           ************************************************************
           *        Program running with 6 parallel MPI-processes     *
           *              working on a common directory               *
           ************************************************************
-------------------------------------------------------------------------------
                                 ORCA SCF
-------------------------------------------------------------------------------

------------
SCF SETTINGS
------------
Hamiltonian:
 Ab initio Hamiltonian  Method          .... Hartree-Fock(GTOs)


General Settings:
 Integral files         IntName         .... 12h2o.su.etal.mol1,3,4,5,6,7,8,10-orca.engrad-mp2.def2tzvp.frozencore
 Hartree-Fock type      HFTyp           .... RHF
 Total Charge           Charge          ....    0
 Multiplicity           Mult            ....    1
 Number of Electrons    NEL             ....   80
 Basis Dimension        Dim             ....  344
 Nuclear Repulsion      ENuc            ....    482.1809120518 Eh

Convergence Acceleration:
 DIIS                   CNVDIIS         .... on
   Start iteration      DIISMaxIt       ....    12
   Startup error        DIISStart       ....  0.200000
   # of expansion vecs  DIISMaxEq       ....     5
   Bias factor          DIISBfac        ....   1.050
   Max. coefficient     DIISMaxC        ....  10.000
 Newton-Raphson         CNVNR           .... off
 SOSCF                  CNVSOSCF        .... on
   Start iteration      SOSCFMaxIt      ....   150
   Startup grad/error   SOSCFStart      ....  0.003300
 Level Shifting         CNVShift        .... on
   Level shift para.    LevelShift      ....    0.2500
   Turn off err/grad.   ShiftErr        ....    0.0010
 Zerner damping         CNVZerner       .... off
 Static damping         CNVDamp         .... on
   Fraction old density DampFac         ....    0.7000
   Max. Damping (<1)    DampMax         ....    0.9800
   Min. Damping (>=0)   DampMin         ....    0.0000
   Turn off err/grad.   DampErr         ....    0.1000
 Fernandez-Rico         CNVRico         .... off

SCF Procedure:
 Maximum # iterations   MaxIter         ....   125
 SCF integral mode      SCFMode         .... Direct
   Integral package                     .... LIBINT
 Reset frequency        DirectResetFreq ....    20
 Integral Threshold     Thresh          ....  2.500e-11 Eh
 Primitive CutOff       TCut            ....  2.500e-12 Eh

Convergence Tolerance:
 Convergence Check Mode ConvCheckMode   .... Total+1el-Energy
 Convergence forced     ConvForced      .... 1
 Energy Change          TolE            ....  1.000e-08 Eh
 1-El. energy change                    ....  1.000e-05 Eh
 Orbital Gradient       TolG            ....  1.000e-05
 Orbital Rotation angle TolX            ....  1.000e-05
 DIIS Error             TolErr          ....  5.000e-07


Diagonalization of the overlap matrix:
Smallest eigenvalue                        ... 2.897e-03
Time for diagonalization                   ...    0.015 sec
Threshold for overlap eigenvalues          ... 1.000e-08
Number of eigenvalues below threshold      ... 0
Time for construction of square roots      ...    0.009 sec
Total time needed                          ...    0.025 sec

-------------------
DFT GRID GENERATION
-------------------

General Integration Accuracy     IntAcc      ...  4.340
Radial Grid Type                 RadialGrid  ... Gauss-Chebyshev
Angular Grid (max. acc.)         AngularGrid ... Lebedev-110
Angular grid pruning method      GridPruning ... 3 (G Style)
Weight generation scheme         WeightScheme... Becke
Basis function cutoff            BFCut       ...    1.0000e-11
Integration weight cutoff        WCut        ...    1.0000e-14
Grids for H and He will be reduced by one unit

# of grid points (after initial pruning)     ...  26432 (   0.0 sec)
# of grid points (after weights+screening)   ...  24474 (   0.0 sec)
nearest neighbour list constructed           ...    0.0 sec
Grid point re-assignment to atoms done       ...    0.0 sec
Grid point division into batches done        ...    0.0 sec
Reduced shell lists constructed in    0.1 sec

Total number of grid points                  ...    24474
Total number of batches                      ...      393
Average number of points per batch           ...       62
Average number of grid points per atom       ...     1020
Average number of shells per batch           ...    62.42 (41.06%)
Average number of basis functions per batch  ...   120.87 (35.14%)
Average number of large shells per batch     ...    40.46 (64.83%)
Average number of large basis fcns per batch ...    77.63 (64.23%)
Maximum spatial batch extension              ...  15.87, 20.63, 14.40 au
Average spatial batch extension              ...   0.64,  0.71,  0.62 au

Time for grid setup =    0.090 sec

------------------------------
INITIAL GUESS: MODEL POTENTIAL
------------------------------
Loading Hartree-Fock densities                     ... done
Calculating cut-offs                               ... done
Setting up the integral package                    ... done
Initializing the effective Hamiltonian             ... done
Starting the Coulomb interaction                   ... done (   0.0 sec)
Reading the grid                                   ... done
Mapping shells                                     ... done
Starting the XC term evaluation                    ... done (   0.0 sec)
Transforming the Hamiltonian                       ... done (   0.0 sec)
Diagonalizing the Hamiltonian                      ... done (   0.0 sec)
Back transforming the eigenvectors                 ... done (   0.0 sec)
Now organizing SCF variables                       ... done
                      ------------------
                      INITIAL GUESS DONE (   0.3 sec)
                      ------------------
--------------
SCF ITERATIONS
--------------
ITER       Energy         Delta-E        Max-DP      RMS-DP      [F,P]     Damp
               ***  Starting incremental Fock matrix formation  ***
  0   -607.8573078804   0.000000000000 0.04384602  0.00082308  0.3389675 0.7000
  1   -608.1171356162  -0.259827735801 0.02910306  0.00057202  0.2162876 0.7000
                               ***Turning on DIIS***
  2   -608.2557283222  -0.138592706040 0.01612576  0.00032243  0.1634840 0.7000
  3   -609.5554298682  -1.299701545981 0.00751542  0.00015008  0.1217303 0.7000
  4   -609.2951833355   0.260246532661 0.01694203  0.00034719  0.0861232 0.0000
  5   -608.5717524498   0.723430885701 0.00215429  0.00005561  0.0053967 0.0000
                      *** Initiating the SOSCF procedure ***
                           *** Shutting down DIIS ***
                      *** Re-Reading the Fockian *** 
                      *** Removing any level shift *** 
ITER      Energy       Delta-E        Grad      Rot      Max-DP    RMS-DP
  6   -608.53508856   0.0366638911  0.000892  0.000892  0.001522  0.000035
               *** Restarting incremental Fock matrix formation ***
  7   -608.52436344   0.0107251224  0.000294  0.000390  0.000720  0.000015
  8   -608.52437506  -0.0000116256  0.000121  0.000346  0.000639  0.000013
  9   -608.52437797  -0.0000029091  0.000068  0.000045  0.000111  0.000002
 10   -608.52437822  -0.0000002440  0.000011  0.000010  0.000020  0.000000
                  ***Gradient check signals convergence***
              ***Rediagonalizing the Fockian in SOSCF/NRSCF***

               *****************************************************
               *                     SUCCESS                       *
               *           SCF CONVERGED AFTER  11 CYCLES          *
               *****************************************************


----------------
TOTAL SCF ENERGY
----------------

Total Energy       :         -608.52437822 Eh          -16558.79016 eV

Components:
Nuclear Repulsion  :          482.18091205 Eh           13120.80967 eV
Electronic Energy  :        -1090.70529027 Eh          -29679.59983 eV
One Electron Energy:        -1801.80298864 Eh          -49029.55194 eV
Two Electron Energy:          711.09769836 Eh           19349.95211 eV

Virial components:
Potential Energy   :        -1216.30094093 Eh          -33097.23123 eV
Kinetic Energy     :          607.77656271 Eh           16538.44107 eV
Virial Ratio       :            2.00123041


---------------
SCF CONVERGENCE
---------------

  Last Energy change         ...   -6.4163e-09  Tolerance :   1.0000e-08
  Last MAX-Density change    ...    6.0603e-06  Tolerance :   1.0000e-07
  Last RMS-Density change    ...    1.3625e-07  Tolerance :   5.0000e-09
  Last Orbital Gradient      ...    2.2928e-06  Tolerance :   1.0000e-05
  Last Orbital Rotation      ...    2.9047e-06  Tolerance :   1.0000e-05

             **** THE GBW FILE WAS UPDATED (12h2o.su.etal.mol1,3,4,5,6,7,8,10-orca.engrad-mp2.def2tzvp.frozencore.gbw) ****
             **** DENSITY FILE WAS UPDATED (12h2o.su.etal.mol1,3,4,5,6,7,8,10-orca.engrad-mp2.def2tzvp.frozencore.scfp) ****
             **** ENERGY FILE WAS UPDATED (12h2o.su.etal.mol1,3,4,5,6,7,8,10-orca.engrad-mp2.def2tzvp.frozencore.en.tmp) ****
             **** THE GBW FILE WAS UPDATED (12h2o.su.etal.mol1,3,4,5,6,7,8,10-orca.engrad-mp2.def2tzvp.frozencore.gbw) ****
             **** DENSITY FILE WAS UPDATED (12h2o.su.etal.mol1,3,4,5,6,7,8,10-orca.engrad-mp2.def2tzvp.frozencore.scfp) ****
----------------
ORBITAL ENERGIES
----------------

  NO   OCC          E(Eh)            E(eV) 
   0   2.0000     -20.596835      -560.4684 
   1   2.0000     -20.578009      -559.9561 
   2   2.0000     -20.573650      -559.8375 
   3   2.0000     -20.573322      -559.8285 
   4   2.0000     -20.563186      -559.5527 
   5   2.0000     -20.558933      -559.4370 
   6   2.0000     -20.534768      -558.7795 
   7   2.0000     -20.510906      -558.1301 
   8   2.0000      -1.377063       -37.4718 
   9   2.0000      -1.372102       -37.3368 
  10   2.0000      -1.368811       -37.2473 
  11   2.0000      -1.356869       -36.9223 
  12   2.0000      -1.347601       -36.6701 
  13   2.0000      -1.343602       -36.5613 
  14   2.0000      -1.318581       -35.8804 
  15   2.0000      -1.295745       -35.2590 
  16   2.0000      -0.742576       -20.2065 
  17   2.0000      -0.732767       -19.9396 
  18   2.0000      -0.727090       -19.7851 
  19   2.0000      -0.725761       -19.7490 
  20   2.0000      -0.725168       -19.7328 
  21   2.0000      -0.719624       -19.5820 
  22   2.0000      -0.696755       -18.9597 
  23   2.0000      -0.674014       -18.3408 
  24   2.0000      -0.640208       -17.4209 
  25   2.0000      -0.618532       -16.8311 
  26   2.0000      -0.612050       -16.6547 
  27   2.0000      -0.602135       -16.3849 
  28   2.0000      -0.588046       -16.0016 
  29   2.0000      -0.584981       -15.9181 
  30   2.0000      -0.565462       -15.3870 
  31   2.0000      -0.538684       -14.6583 
  32   2.0000      -0.534170       -14.5355 
  33   2.0000      -0.520059       -14.1515 
  34   2.0000      -0.516333       -14.0501 
  35   2.0000      -0.515166       -14.0184 
  36   2.0000      -0.507766       -13.8170 
  37   2.0000      -0.501440       -13.6449 
  38   2.0000      -0.484337       -13.1795 
  39   2.0000      -0.460895       -12.5416 
  40   0.0000       0.095633         2.6023 
  41   0.0000       0.118043         3.2121 
  42   0.0000       0.143837         3.9140 
  43   0.0000       0.149398         4.0653 
  44   0.0000       0.184582         5.0227 
  45   0.0000       0.203056         5.5254 
  46   0.0000       0.215090         5.8529 
  47   0.0000       0.239801         6.5253 
  48   0.0000       0.259765         7.0686 
  49   0.0000       0.281996         7.6735 
  50   0.0000       0.308742         8.4013 
  51   0.0000       0.323420         8.8007 
  52   0.0000       0.325005         8.8438 
  53   0.0000       0.328758         8.9460 
  54   0.0000       0.349382         9.5072 
  55   0.0000       0.358219         9.7476 
  56   0.0000       0.411755        11.2044 
  57   0.0000       0.462298        12.5798 
  58   0.0000       0.486095        13.2273 
  59   0.0000       0.504248        13.7213 
  60   0.0000       0.514121        13.9899 
  61   0.0000       0.520395        14.1607 
  62   0.0000       0.527282        14.3481 
  63   0.0000       0.536380        14.5956 
  64   0.0000       0.538775        14.6608 
  65   0.0000       0.548654        14.9296 
  66   0.0000       0.554050        15.0765 
  67   0.0000       0.559011        15.2115 
  68   0.0000       0.572498        15.5785 
  69   0.0000       0.593019        16.1369 
  70   0.0000       0.603813        16.4306 
  71   0.0000       0.608295        16.5526 
  72   0.0000       0.614718        16.7273 
  73   0.0000       0.632238        17.2041 
  74   0.0000       0.637942        17.3593 
  75   0.0000       0.655344        17.8328 
  76   0.0000       0.672049        18.2874 
  77   0.0000       0.706477        19.2242 
  78   0.0000       0.713020        19.4022 
  79   0.0000       0.727744        19.8029 
  80   0.0000       0.741593        20.1798 
  81   0.0000       0.749608        20.3979 
  82   0.0000       0.754305        20.5257 
  83   0.0000       0.766908        20.8686 
  84   0.0000       0.772744        21.0274 
  85   0.0000       0.785139        21.3647 
  86   0.0000       0.803538        21.8654 
  87   0.0000       0.811114        22.0715 
  88   0.0000       0.823888        22.4191 
  89   0.0000       0.839663        22.8484 
  90   0.0000       0.867051        23.5937 
  91   0.0000       0.880297        23.9541 
  92   0.0000       0.889858        24.2143 
  93   0.0000       0.907190        24.6859 
  94   0.0000       0.923923        25.1412 
  95   0.0000       0.931172        25.3385 
  96   0.0000       0.973142        26.4806 
  97   0.0000       0.996743        27.1228 
  98   0.0000       1.016470        27.6595 
  99   0.0000       1.052818        28.6486 
 100   0.0000       1.075552        29.2673 
 101   0.0000       1.100804        29.9544 
 102   0.0000       1.151459        31.3328 
 103   0.0000       1.201334        32.6900 
 104   0.0000       1.342991        36.5446 
 105   0.0000       1.356500        36.9122 
 106   0.0000       1.393703        37.9246 
 107   0.0000       1.399470        38.0815 
 108   0.0000       1.407898        38.3109 
 109   0.0000       1.417486        38.5717 
 110   0.0000       1.418255        38.5927 
 111   0.0000       1.433760        39.0146 
 112   0.0000       1.439919        39.1822 
 113   0.0000       1.442597        39.2551 
 114   0.0000       1.456403        39.6307 
 115   0.0000       1.466610        39.9085 
 116   0.0000       1.509832        41.0846 
 117   0.0000       1.528916        41.6039 
 118   0.0000       1.547329        42.1050 
 119   0.0000       1.553618        42.2761 
 120   0.0000       1.565531        42.6003 
 121   0.0000       1.577120        42.9156 
 122   0.0000       1.597726        43.4763 
 123   0.0000       1.601764        43.5862 
 124   0.0000       1.611633        43.8548 
 125   0.0000       1.624565        44.2067 
 126   0.0000       1.651082        44.9282 
 127   0.0000       1.669464        45.4284 
 128   0.0000       1.809131        49.2289 
 129   0.0000       1.821133        49.5555 
 130   0.0000       1.835127        49.9363 
 131   0.0000       1.850766        50.3619 
 132   0.0000       1.871353        50.9221 
 133   0.0000       1.876087        51.0509 
 134   0.0000       1.909447        51.9587 
 135   0.0000       1.929227        52.4969 
 136   0.0000       1.940048        52.7914 
 137   0.0000       1.961971        53.3879 
 138   0.0000       1.966817        53.5198 
 139   0.0000       1.993144        54.2362 
 140   0.0000       2.001710        54.4693 
 141   0.0000       2.014484        54.8169 
 142   0.0000       2.031041        55.2674 
 143   0.0000       2.038776        55.4779 
 144   0.0000       2.071570        56.3703 
 145   0.0000       2.104082        57.2550 
 146   0.0000       2.116827        57.6018 
 147   0.0000       2.130391        57.9709 
 148   0.0000       2.151743        58.5519 
 149   0.0000       2.172388        59.1137 
 150   0.0000       2.194348        59.7112 
 151   0.0000       2.233267        60.7703 
 152   0.0000       2.252800        61.3018 
 153   0.0000       2.263732        61.5993 
 154   0.0000       2.275615        61.9226 
 155   0.0000       2.294826        62.4454 
 156   0.0000       2.303162        62.6722 
 157   0.0000       2.309760        62.8518 
 158   0.0000       2.328696        63.3670 
 159   0.0000       2.346950        63.8638 
 160   0.0000       2.358413        64.1757 
 161   0.0000       2.369087        64.4661 
 162   0.0000       2.374541        64.6145 
 163   0.0000       2.393288        65.1247 
 164   0.0000       2.409305        65.5605 
 165   0.0000       2.425982        66.0143 
 166   0.0000       2.454583        66.7926 
 167   0.0000       2.463863        67.0451 
 168   0.0000       2.496883        67.9436 
 169   0.0000       2.501318        68.0643 
 170   0.0000       2.522912        68.6519 
 171   0.0000       2.545118        69.2562 
 172   0.0000       2.553370        69.4807 
 173   0.0000       2.567765        69.8724 
 174   0.0000       2.583913        70.3119 
 175   0.0000       2.598490        70.7085 
 176   0.0000       2.609789        71.0160 
 177   0.0000       2.622187        71.3533 
 178   0.0000       2.644442        71.9589 
 179   0.0000       2.653592        72.2079 
 180   0.0000       2.658951        72.3537 
 181   0.0000       2.670412        72.6656 
 182   0.0000       2.673861        72.7595 
 183   0.0000       2.690380        73.2090 
 184   0.0000       2.707590        73.6773 
 185   0.0000       2.718079        73.9627 
 186   0.0000       2.730758        74.3077 
 187   0.0000       2.747182        74.7546 
 188   0.0000       2.760933        75.1288 
 189   0.0000       2.775481        75.5247 
 190   0.0000       2.801631        76.2362 
 191   0.0000       2.864957        77.9594 
 192   0.0000       2.886785        78.5534 
 193   0.0000       2.911581        79.2281 
 194   0.0000       2.939690        79.9930 
 195   0.0000       2.951866        80.3244 
 196   0.0000       2.969522        80.8048 
 197   0.0000       2.976799        81.0028 
 198   0.0000       2.979107        81.0656 
 199   0.0000       3.000353        81.6438 
 200   0.0000       3.024376        82.2975 
 201   0.0000       3.033022        82.5327 
 202   0.0000       3.044556        82.8466 
 203   0.0000       3.053483        83.0895 
 204   0.0000       3.066302        83.4383 
 205   0.0000       3.081373        83.8484 
 206   0.0000       3.116074        84.7927 
 207   0.0000       3.128739        85.1373 
 208   0.0000       3.155515        85.8659 
 209   0.0000       3.189988        86.8040 
 210   0.0000       3.234977        88.0282 
 211   0.0000       3.237935        88.1087 
 212   0.0000       3.242778        88.2405 
 213   0.0000       3.264906        88.8426 
 214   0.0000       3.292593        89.5960 
 215   0.0000       3.314333        90.1876 
 216   0.0000       3.333015        90.6960 
 217   0.0000       3.365885        91.5904 
 218   0.0000       3.372673        91.7751 
 219   0.0000       3.406554        92.6970 
 220   0.0000       3.456966        94.0688 
 221   0.0000       3.494830        95.0992 
 222   0.0000       3.513708        95.6129 
 223   0.0000       3.546055        96.4930 
 224   0.0000       3.966552       107.9354 
 225   0.0000       4.047517       110.1385 
 226   0.0000       4.073654       110.8498 
 227   0.0000       4.101183       111.5989 
 228   0.0000       4.124200       112.2252 
 229   0.0000       4.130696       112.4020 
 230   0.0000       4.139282       112.6356 
 231   0.0000       4.203319       114.3781 
 232   0.0000       4.279655       116.4553 
 233   0.0000       4.303649       117.1082 
 234   0.0000       4.324414       117.6733 
 235   0.0000       4.340179       118.1023 
 236   0.0000       4.354980       118.5050 
 237   0.0000       4.366191       118.8101 
 238   0.0000       4.385947       119.3477 
 239   0.0000       4.399947       119.7286 
 240   0.0000       5.519749       150.2000 
 241   0.0000       5.526074       150.3721 
 242   0.0000       5.526959       150.3962 
 243   0.0000       5.528904       150.4491 
 244   0.0000       5.536277       150.6498 
 245   0.0000       5.546457       150.9268 
 246   0.0000       5.563077       151.3790 
 247   0.0000       5.592602       152.1824 
 248   0.0000       5.605901       152.5443 
 249   0.0000       5.641987       153.5263 
 250   0.0000       5.655762       153.9011 
 251   0.0000       5.658883       153.9860 
 252   0.0000       5.671050       154.3171 
 253   0.0000       5.675182       154.4295 
 254   0.0000       5.698722       155.0701 
 255   0.0000       5.700221       155.1109 
 256   0.0000       5.781491       157.3224 
 257   0.0000       5.799150       157.8029 
 258   0.0000       5.802838       157.9033 
 259   0.0000       5.809726       158.0907 
 260   0.0000       5.817545       158.3034 
 261   0.0000       5.818829       158.3384 
 262   0.0000       5.824968       158.5054 
 263   0.0000       5.834693       158.7701 
 264   0.0000       5.840729       158.9343 
 265   0.0000       5.846181       159.0827 
 266   0.0000       5.850363       159.1965 
 267   0.0000       5.866679       159.6405 
 268   0.0000       5.868453       159.6887 
 269   0.0000       5.877635       159.9386 
 270   0.0000       5.879962       160.0019 
 271   0.0000       5.884271       160.1192 
 272   0.0000       5.887815       160.2156 
 273   0.0000       5.891436       160.3141 
 274   0.0000       5.893762       160.3774 
 275   0.0000       5.898919       160.5178 
 276   0.0000       5.922556       161.1609 
 277   0.0000       5.926864       161.2782 
 278   0.0000       5.937678       161.5724 
 279   0.0000       5.951672       161.9532 
 280   0.0000       6.398817       174.1207 
 281   0.0000       6.462061       175.8416 
 282   0.0000       6.465008       175.9218 
 283   0.0000       6.469767       176.0513 
 284   0.0000       6.473377       176.1495 
 285   0.0000       6.485032       176.4667 
 286   0.0000       6.503775       176.9767 
 287   0.0000       6.539430       177.9469 
 288   0.0000       6.638683       180.6478 
 289   0.0000       6.674114       181.6119 
 290   0.0000       6.683603       181.8701 
 291   0.0000       6.714733       182.7172 
 292   0.0000       6.731628       183.1769 
 293   0.0000       6.746907       183.5927 
 294   0.0000       6.756094       183.8427 
 295   0.0000       6.787177       184.6885 
 296   0.0000       6.840089       186.1283 
 297   0.0000       6.847679       186.3348 
 298   0.0000       6.853325       186.4884 
 299   0.0000       6.869439       186.9269 
 300   0.0000       6.875072       187.0802 
 301   0.0000       6.882592       187.2848 
 302   0.0000       6.884476       187.3361 
 303   0.0000       6.887879       187.4287 
 304   0.0000       6.893152       187.5722 
 305   0.0000       6.899398       187.7422 
 306   0.0000       6.911446       188.0700 
 307   0.0000       6.919563       188.2909 
 308   0.0000       6.926742       188.4862 
 309   0.0000       6.932011       188.6296 
 310   0.0000       6.948131       189.0683 
 311   0.0000       6.962259       189.4527 
 312   0.0000       6.974465       189.7848 
 313   0.0000       7.008163       190.7018 
 314   0.0000       7.008771       190.7183 
 315   0.0000       7.015376       190.8981 
 316   0.0000       7.050574       191.8559 
 317   0.0000       7.054661       191.9671 
 318   0.0000       7.089100       192.9042 
 319   0.0000       7.123890       193.8509 
 320   0.0000       7.346818       199.9171 
 321   0.0000       7.363593       200.3735 
 322   0.0000       7.395930       201.2535 
 323   0.0000       7.439151       202.4296 
 324   0.0000       7.459693       202.9886 
 325   0.0000       7.465500       203.1466 
 326   0.0000       7.467766       203.2082 
 327   0.0000       7.495274       203.9568 
 328   0.0000       7.527981       204.8468 
 329   0.0000       7.534537       205.0252 
 330   0.0000       7.563608       205.8162 
 331   0.0000       7.571358       206.0271 
 332   0.0000       7.593177       206.6209 
 333   0.0000       7.627951       207.5671 
 334   0.0000       7.629828       207.6182 
 335   0.0000       7.641690       207.9410 
 336   0.0000      44.844492      1220.2807 
 337   0.0000      44.988318      1224.1944 
 338   0.0000      45.005961      1224.6745 
 339   0.0000      45.018795      1225.0237 
 340   0.0000      45.032989      1225.4099 
 341   0.0000      45.078658      1226.6526 
 342   0.0000      45.094146      1227.0741 
 343   0.0000      45.193460      1229.7766 

                    ********************************
                    * MULLIKEN POPULATION ANALYSIS *
                    ********************************

-----------------------
MULLIKEN ATOMIC CHARGES
-----------------------
   0 O :   -0.720961
   1 H :    0.362488
   2 H :    0.371410
   3 O :   -0.736938
   4 H :    0.409923
   5 H :    0.359587
   6 O :   -0.778745
   7 H :    0.393916
   8 H :    0.393219
   9 O :   -0.759121
  10 H :    0.402853
  11 H :    0.359942
  12 O :   -0.781156
  13 H :    0.363037
  14 H :    0.407408
  15 O :   -0.806027
  16 H :    0.405645
  17 H :    0.383135
  18 O :   -0.765007
  19 H :    0.380962
  20 H :    0.372305
  21 O :   -0.790296
  22 H :    0.358015
  23 H :    0.414406
Sum of atomic charges:    0.0000000

--------------------------------
MULLIKEN REDUCED ORBITAL CHARGES
--------------------------------
  0 O s       :     3.810271  s :     3.810271
      pz      :     1.716987  p :     4.884595
      px      :     1.362539
      py      :     1.805069
      dz2     :     0.003938  d :     0.024579
      dxz     :     0.004292
      dyz     :     0.005764
      dx2y2   :     0.002490
      dxy     :     0.008095
      f0      :     0.000083  f :     0.001516
      f+1     :     0.000328
      f-1     :     0.000187
      f+2     :     0.000071
      f-2     :     0.000350
      f+3     :     0.000100
      f-3     :     0.000397
  1 H s       :     0.592028  s :     0.592028
      pz      :     0.017012  p :     0.045484
      px      :     0.013475
      py      :     0.014997
  2 H s       :     0.587064  s :     0.587064
      pz      :     0.010628  p :     0.041526
      px      :     0.017787
      py      :     0.013111
  3 O s       :     3.797066  s :     3.797066
      pz      :     1.580787  p :     4.913626
      px      :     1.549487
      py      :     1.783352
      dz2     :     0.011893  d :     0.024858
      dxz     :     0.001190
      dyz     :     0.002312
      dx2y2   :     0.002444
      dxy     :     0.007019
      f0      :     0.000224  f :     0.001388
      f+1     :     0.000382
      f-1     :     0.000153
      f+2     :     0.000050
      f-2     :     0.000055
      f+3     :     0.000051
      f-3     :     0.000474
  4 H s       :     0.542154  s :     0.542154
      pz      :     0.025318  p :     0.047922
      px      :     0.010907
      py      :     0.011697
  5 H s       :     0.596777  s :     0.596777
      pz      :     0.010528  p :     0.043637
      px      :     0.018388
      py      :     0.014721
  6 O s       :     3.798785  s :     3.798785
      pz      :     1.601429  p :     4.954864
      px      :     1.833415
      py      :     1.520020
      dz2     :     0.011195  d :     0.023801
      dxz     :     0.002053
      dyz     :     0.002845
      dx2y2   :     0.003280
      dxy     :     0.004427
      f0      :     0.000147  f :     0.001296
      f+1     :     0.000104
      f-1     :     0.000448
      f+2     :     0.000065
      f-2     :     0.000038
      f+3     :     0.000401
      f-3     :     0.000091
  7 H s       :     0.557672  s :     0.557672
      pz      :     0.024929  p :     0.048412
      px      :     0.012555
      py      :     0.010928
  8 H s       :     0.553432  s :     0.553432
      pz      :     0.009515  p :     0.053349
      px      :     0.014799
      py      :     0.029034
  9 O s       :     3.801230  s :     3.801230
      pz      :     1.553006  p :     4.932174
      px      :     1.842230
      py      :     1.536937
      dz2     :     0.011671  d :     0.024363
      dxz     :     0.002107
      dyz     :     0.002913
      dx2y2   :     0.003249
      dxy     :     0.004422
      f0      :     0.000171  f :     0.001355
      f+1     :     0.000111
      f-1     :     0.000464
      f+2     :     0.000067
      f-2     :     0.000041
      f+3     :     0.000408
      f-3     :     0.000094
 10 H s       :     0.544116  s :     0.544116
      pz      :     0.008974  p :     0.053031
      px      :     0.014343
      py      :     0.029714
 11 H s       :     0.596115  s :     0.596115
      pz      :     0.018816  p :     0.043943
      px      :     0.013490
      py      :     0.011637
 12 O s       :     3.803146  s :     3.803146
      pz      :     1.558824  p :     4.953590
      px      :     1.545097
      py      :     1.849669
      dz2     :     0.010884  d :     0.023075
      dxz     :     0.002690
      dyz     :     0.001979
      dx2y2   :     0.003110
      dxy     :     0.004412
      f0      :     0.000187  f :     0.001345
      f+1     :     0.000447
      f-1     :     0.000110
      f+2     :     0.000067
      f-2     :     0.000037
      f+3     :     0.000092
      f-3     :     0.000405
 13 H s       :     0.593051  s :     0.593051
      pz      :     0.018863  p :     0.043912
      px      :     0.011712
      py      :     0.013337
 14 H s       :     0.540029  s :     0.540029
      pz      :     0.008335  p :     0.052563
      px      :     0.030148
      py      :     0.014080
 15 O s       :     3.798298  s :     3.798298
      pz      :     1.610073  p :     4.984708
      px      :     1.521691
      py      :     1.852944
      dz2     :     0.009810  d :     0.021709
      dxz     :     0.002365
      dyz     :     0.001849
      dx2y2   :     0.003075
      dxy     :     0.004610
      f0      :     0.000171  f :     0.001313
      f+1     :     0.000428
      f-1     :     0.000106
      f+2     :     0.000068
      f-2     :     0.000035
      f+3     :     0.000096
      f-3     :     0.000409
 16 H s       :     0.545991  s :     0.545991
      pz      :     0.024843  p :     0.048364
      px      :     0.011137
      py      :     0.012384
 17 H s       :     0.563939  s :     0.563939
      pz      :     0.008851  p :     0.052926
      px      :     0.029409
      py      :     0.014666
 18 O s       :     3.806452  s :     3.806452
      pz      :     1.546460  p :     4.932585
      px      :     1.566708
      py      :     1.819417
      dz2     :     0.011474  d :     0.024537
      dxz     :     0.001248
      dyz     :     0.002811
      dx2y2   :     0.002010
      dxy     :     0.006994
      f0      :     0.000252  f :     0.001433
      f+1     :     0.000370
      f-1     :     0.000159
      f+2     :     0.000055
      f-2     :     0.000054
      f+3     :     0.000063
      f-3     :     0.000480
 19 H s       :     0.570484  s :     0.570484
      pz      :     0.023849  p :     0.048553
      px      :     0.011626
      py      :     0.013078
 20 H s       :     0.577270  s :     0.577270
      pz      :     0.010143  p :     0.050425
      px      :     0.023780
      py      :     0.016502
 21 O s       :     3.806796  s :     3.806796
      pz      :     1.723711  p :     4.960052
      px      :     1.796814
      py      :     1.439527
      dz2     :     0.003612  d :     0.022056
      dxz     :     0.005054
      dyz     :     0.004367
      dx2y2   :     0.002228
      dxy     :     0.006796
      f0      :     0.000081  f :     0.001392
      f+1     :     0.000171
      f-1     :     0.000315
      f+2     :     0.000062
      f-2     :     0.000347
      f+3     :     0.000333
      f-3     :     0.000083
 22 H s       :     0.596561  s :     0.596561
      pz      :     0.016873  p :     0.045424
      px      :     0.014811
      py      :     0.013739
 23 H s       :     0.530049  s :     0.530049
      pz      :     0.009920  p :     0.055545
      px      :     0.013072
      py      :     0.032553


                     *******************************
                     * LOEWDIN POPULATION ANALYSIS *
                     *******************************

----------------------
LOEWDIN ATOMIC CHARGES
----------------------
   0 O :   -0.314927
   1 H :    0.163806
   2 H :    0.188727
   3 O :   -0.286375
   4 H :    0.164847
   5 H :    0.170236
   6 O :   -0.328807
   7 H :    0.154797
   8 H :    0.149659
   9 O :   -0.322148
  10 H :    0.156113
  11 H :    0.166681
  12 O :   -0.309461
  13 H :    0.168198
  14 H :    0.158397
  15 O :   -0.319633
  16 H :    0.161112
  17 H :    0.149547
  18 O :   -0.361337
  19 H :    0.152266
  20 H :    0.148752
  21 O :   -0.325694
  22 H :    0.157759
  23 H :    0.157484

-------------------------------
LOEWDIN REDUCED ORBITAL CHARGES
-------------------------------
  0 O s       :     3.467589  s :     3.467589
      pz      :     1.681101  p :     4.813339
      px      :     1.356643
      py      :     1.775594
      dz2     :     0.005245  d :     0.031905
      dxz     :     0.006741
      dyz     :     0.005745
      dx2y2   :     0.003815
      dxy     :     0.010359
      f0      :     0.000086  f :     0.002094
      f+1     :     0.000445
      f-1     :     0.000272
      f+2     :     0.000035
      f-2     :     0.000608
      f+3     :     0.000093
      f-3     :     0.000555
  1 H s       :     0.672835  s :     0.672835
      pz      :     0.066315  p :     0.163359
      px      :     0.044206
      py      :     0.052838
  2 H s       :     0.662993  s :     0.662993
      pz      :     0.033282  p :     0.148280
      px      :     0.071431
      py      :     0.043567
  3 O s       :     3.451583  s :     3.451583
      pz      :     1.547825  p :     4.801219
      px      :     1.530173
      py      :     1.723221
      dz2     :     0.015179  d :     0.031483
      dxz     :     0.001706
      dyz     :     0.001741
      dx2y2   :     0.003684
      dxy     :     0.009173
      f0      :     0.000400  f :     0.002090
      f+1     :     0.000556
      f-1     :     0.000329
      f+2     :     0.000020
      f-2     :     0.000046
      f+3     :     0.000026
      f-3     :     0.000714
  4 H s       :     0.662211  s :     0.662211
      pz      :     0.095897  p :     0.172942
      px      :     0.035896
      py      :     0.041149
  5 H s       :     0.671376  s :     0.671376
      pz      :     0.031313  p :     0.158387
      px      :     0.072352
      py      :     0.054723
  6 O s       :     3.454846  s :     3.454846
      pz      :     1.575936  p :     4.843384
      px      :     1.778922
      py      :     1.488527
      dz2     :     0.013512  d :     0.028697
      dxz     :     0.001200
      dyz     :     0.003737
      dx2y2   :     0.004776
      dxy     :     0.005473
      f0      :     0.000326  f :     0.001881
      f+1     :     0.000191
      f-1     :     0.000692
      f+2     :     0.000035
      f-2     :     0.000044
      f+3     :     0.000528
      f-3     :     0.000065
  7 H s       :     0.670816  s :     0.670816
      pz      :     0.094087  p :     0.174387
      px      :     0.042671
      py      :     0.037629
  8 H s       :     0.663245  s :     0.663245
      pz      :     0.030566  p :     0.187096
      px      :     0.052578
      py      :     0.103952
  9 O s       :     3.460647  s :     3.460647
      pz      :     1.547430  p :     4.829548
      px      :     1.785976
      py      :     1.496142
      dz2     :     0.014583  d :     0.029977
      dxz     :     0.001295
      dyz     :     0.004146
      dx2y2   :     0.004626
      dxy     :     0.005326
      f0      :     0.000372  f :     0.001976
      f+1     :     0.000195
      f-1     :     0.000740
      f+2     :     0.000040
      f-2     :     0.000046
      f+3     :     0.000519
      f-3     :     0.000063
 10 H s       :     0.655903  s :     0.655903
      pz      :     0.028856  p :     0.187984
      px      :     0.052604
      py      :     0.106524
 11 H s       :     0.673460  s :     0.673460
      pz      :     0.079430  p :     0.159859
      px      :     0.043229
      py      :     0.037200
 12 O s       :     3.456262  s :     3.456262
      pz      :     1.532378  p :     4.821330
      px      :     1.499980
      py      :     1.788972
      dz2     :     0.014919  d :     0.029910
      dxz     :     0.004129
      dyz     :     0.001270
      dx2y2   :     0.004413
      dxy     :     0.005179
      f0      :     0.000383  f :     0.001959
      f+1     :     0.000731
      f-1     :     0.000192
      f+2     :     0.000039
      f-2     :     0.000048
      f+3     :     0.000062
      f-3     :     0.000504
 13 H s       :     0.671913  s :     0.671913
      pz      :     0.079445  p :     0.159889
      px      :     0.037370
      py      :     0.043073
 14 H s       :     0.650807  s :     0.650807
      pz      :     0.028695  p :     0.190796
      px      :     0.109434
      py      :     0.052668
 15 O s       :     3.448432  s :     3.448432
      pz      :     1.560713  p :     4.841623
      px      :     1.490703
      py      :     1.790206
      dz2     :     0.012943  d :     0.027699
      dxz     :     0.003453
      dyz     :     0.001129
      dx2y2   :     0.004563
      dxy     :     0.005610
      f0      :     0.000338  f :     0.001880
      f+1     :     0.000678
      f-1     :     0.000187
      f+2     :     0.000034
      f-2     :     0.000043
      f+3     :     0.000065
      f-3     :     0.000533
 16 H s       :     0.664781  s :     0.664781
      pz      :     0.094280  p :     0.174107
      px      :     0.037279
      py      :     0.042548
 17 H s       :     0.661331  s :     0.661331
      pz      :     0.030426  p :     0.189122
      px      :     0.105840
      py      :     0.052857
 18 O s       :     3.460077  s :     3.460077
      pz      :     1.531366  p :     4.869421
      px      :     1.546063
      py      :     1.791991
      dz2     :     0.014907  d :     0.029822
      dxz     :     0.001949
      dyz     :     0.002181
      dx2y2   :     0.002091
      dxy     :     0.008693
      f0      :     0.000452  f :     0.002017
      f+1     :     0.000543
      f-1     :     0.000302
      f+2     :     0.000023
      f-2     :     0.000047
      f+3     :     0.000002
      f-3     :     0.000649
 19 H s       :     0.677094  s :     0.677094
      pz      :     0.091297  p :     0.170641
      px      :     0.037003
      py      :     0.042341
 20 H s       :     0.676877  s :     0.676877
      pz      :     0.031109  p :     0.174371
      px      :     0.085344
      py      :     0.057917
 21 O s       :     3.455102  s :     3.455102
      pz      :     1.682550  p :     4.839981
      px      :     1.752187
      py      :     1.405245
      dz2     :     0.004699  d :     0.028653
      dxz     :     0.005180
      dyz     :     0.006659
      dx2y2   :     0.003580
      dxy     :     0.008535
      f0      :     0.000085  f :     0.001958
      f+1     :     0.000261
      f-1     :     0.000428
      f+2     :     0.000032
      f-2     :     0.000609
      f+3     :     0.000460
      f-3     :     0.000083
 22 H s       :     0.676728  s :     0.676728
      pz      :     0.066106  p :     0.165513
      px      :     0.053257
      py      :     0.046150
 23 H s       :     0.644976  s :     0.644976
      pz      :     0.033250  p :     0.197540
      px      :     0.047543
      py      :     0.116747


                      *****************************
                      * MAYER POPULATION ANALYSIS *
                      *****************************

  NA   - Mulliken gross atomic population
  ZA   - Total nuclear charge
  QA   - Mulliken gross atomic charge
  VA   - Mayer's total valence
  BVA  - Mayer's bonded valence
  FA   - Mayer's free valence

  ATOM       NA         ZA         QA         VA         BVA        FA
  0 O      8.7210     8.0000    -0.7210     1.7672     1.7672    -0.0000
  1 H      0.6375     1.0000     0.3625     0.8840     0.8840    -0.0000
  2 H      0.6286     1.0000     0.3714     0.8757     0.8757    -0.0000
  3 O      8.7369     8.0000    -0.7369     1.7495     1.7495     0.0000
  4 H      0.5901     1.0000     0.4099     0.8587     0.8587     0.0000
  5 H      0.6404     1.0000     0.3596     0.8902     0.8902    -0.0000
  6 O      8.7787     8.0000    -0.7787     1.7088     1.7088    -0.0000
  7 H      0.6061     1.0000     0.3939     0.8748     0.8748    -0.0000
  8 H      0.6068     1.0000     0.3932     0.8815     0.8815    -0.0000
  9 O      8.7591     8.0000    -0.7591     1.7165     1.7165     0.0000
 10 H      0.5971     1.0000     0.4029     0.8805     0.8805     0.0000
 11 H      0.6401     1.0000     0.3599     0.8869     0.8869     0.0000
 12 O      8.7812     8.0000    -0.7812     1.6879     1.6879     0.0000
 13 H      0.6370     1.0000     0.3630     0.8838     0.8838     0.0000
 14 H      0.5926     1.0000     0.4074     0.8830     0.8830    -0.0000
 15 O      8.8060     8.0000    -0.8060     1.6588     1.6588     0.0000
 16 H      0.5944     1.0000     0.4056     0.8675     0.8675     0.0000
 17 H      0.6169     1.0000     0.3831     0.9008     0.9008     0.0000
 18 O      8.7650     8.0000    -0.7650     1.7252     1.7252    -0.0000
 19 H      0.6190     1.0000     0.3810     0.8782     0.8782     0.0000
 20 H      0.6277     1.0000     0.3723     0.8951     0.8951    -0.0000
 21 O      8.7903     8.0000    -0.7903     1.6790     1.6790     0.0000
 22 H      0.6420     1.0000     0.3580     0.8894     0.8894     0.0000
 23 H      0.5856     1.0000     0.4144     0.8638     0.8638     0.0000

  Mayer bond orders larger than 0.100000
B(  0-O ,  1-H ) :   0.8766 B(  0-O ,  2-H ) :   0.8667 B(  3-O ,  4-H ) :   0.8245 
B(  3-O ,  5-H ) :   0.8757 B(  6-O ,  7-H ) :   0.8374 B(  6-O ,  8-H ) :   0.8185 
B(  9-O , 10-H ) :   0.7991 B(  9-O , 11-H ) :   0.8785 B( 12-O , 13-H ) :   0.8754 
B( 12-O , 14-H ) :   0.7739 B( 15-O , 16-H ) :   0.8284 B( 15-O , 17-H ) :   0.8022 
B( 18-O , 19-H ) :   0.8598 B( 18-O , 20-H ) :   0.8547 B( 21-O , 22-H ) :   0.8788 
B( 21-O , 23-H ) :   0.7776 

-------
TIMINGS
-------

Total SCF time: 0 days 0 hours 0 min 30 sec 

Total time                  ....      30.740 sec
Sum of individual times     ....      30.425 sec  ( 99.0%)

Fock matrix formation       ....      29.833 sec  ( 97.1%)
Diagonalization             ....       0.140 sec  (  0.5%)
Density matrix formation    ....       0.018 sec  (  0.1%)
Population analysis         ....       0.027 sec  (  0.1%)
Initial guess               ....       0.199 sec  (  0.6%)
Orbital Transformation      ....       0.000 sec  (  0.0%)
Orbital Orthonormalization  ....       0.000 sec  (  0.0%)
DIIS solution               ....       0.057 sec  (  0.2%)
SOSCF solution              ....       0.062 sec  (  0.2%)


           ************************************************************
           *        Program running with 6 parallel MPI-processes     *
           *              working on a common directory               *
           ************************************************************

------------------------------------------------------------------------------
                                ORCA  MP2 
------------------------------------------------------------------------------

Freezing NCore=16 chemical core electrons
MP2 will be done in the AO integral direct mode
The Q1-step will be done using symmetric double matrices
Dimension of the basis                    ...  344
Memory devoted for MP2                    ... 8000 MB   
Memory needed for all in one shot         ...  935 MB
Number of MOs that can be treated together...   50      
MP2 density construction                  ... relaxed
The MP2 gradient is requested => amplitudes will be stored on disk
Total number of MOs              ...   32
Number of MOs treated per batch  ...    6 
Number of batches necessary      ...    1 
OPERATORS   0/  0 PASS   0
-----------------------------------------------
 MP2 CORRELATION ENERGY   :     -2.077792163 Eh
-----------------------------------------------


---------------------
MP2 DENSITY FORMATION
---------------------

Completing the external part of the density      ... done
Storing the unrelaxed density                    ... done

Calculating G(D)                                 ... done
Completing the Lagrangian                        ... done
Solving the Z-vector equations                   ... 

------------------------------------------------------------------------------
                           ORCA CP-SCF CALCULATION
------------------------------------------------------------------------------

Input orbitals are from        ... 12h2o.su.etal.mol1,3,4,5,6,7,8,10-orca.engrad-mp2.def2tzvp.frozencore.gbw
Input Perturbation             ... 12h2o.su.etal.mol1,3,4,5,6,7,8,10-orca.engrad-mp2.def2tzvp.frozencore.pin.tmp
Wavefunction output            ... 12h2o.su.etal.mol1,3,4,5,6,7,8,10-orca.engrad-mp2.def2tzvp.frozencore.pout.tmp
Perturbation mode              ... Real perturbation (singlet)
Solver                         ... POPLE
Max. number of iterations      ... 128
Convergence tolerance          ... 1.000e-08
Integral handling              ... Direct
Number of perturbations        ... 1
Number of operators            ... 1
Orbital ranges used for CP-SCF:
 Operator 0:  Orbitals   0... 39  to  40...343
Variables per vector in CP-SCF ... 12160
Number of vectors sought       ... 1
     CP-SCF ITERATION   0: 
     CP-SCF ITERATION   1:      0.001097016094
     CP-SCF ITERATION   2:      0.000032510908
     CP-SCF ITERATION   3:      0.000001780593
     CP-SCF ITERATION   4:      0.000000174204
     CP-SCF ITERATION   5:      0.000000016201
     CP-SCF ITERATION   6:      0.000000001037
                                                 ... done
Finalizing the relaxed density                   ... done
Transforming P to the AO basis                   ... done
Storing the relaxed density                      ... done

------------------------------------
ENERGY WEIGHTED DENSITY FINALIZATION
------------------------------------

Gathering the parts of the W-matrix              ...                                                      done
Forming the Z-density                            ... done
Transforming Z to the AO basis                   ... done
Calculating G(Z)                                 ... done
Finalizing the W-matrix                          ...                                                      done
Transforming W to the AO basis and storing       ... done

                *********************************************
                * UNRELAXED MP2 DENSITY POPULATION ANALYSIS *
                *********************************************

------------------------------------------------------------------------------
                           ORCA POPULATION ANALYSIS
------------------------------------------------------------------------------
Input electron density              ... 12h2o.su.etal.mol1,3,4,5,6,7,8,10-orca.engrad-mp2.def2tzvp.frozencore.pmp2ur
BaseName (.gbw .S,...)              ... 12h2o.su.etal.mol1,3,4,5,6,7,8,10-orca.engrad-mp2.def2tzvp.frozencore

                    ********************************
                    * MULLIKEN POPULATION ANALYSIS *
                    ********************************

-----------------------
MULLIKEN ATOMIC CHARGES
-----------------------
   0 O :   -0.715598
   1 H :    0.360324
   2 H :    0.368685
   3 O :   -0.730041
   4 H :    0.406870
   5 H :    0.356908
   6 O :   -0.770914
   7 H :    0.390690
   8 H :    0.388721
   9 O :   -0.751868
  10 H :    0.398175
  11 H :    0.357402
  12 O :   -0.773990
  13 H :    0.360606
  14 H :    0.402345
  15 O :   -0.798458
  16 H :    0.402644
  17 H :    0.378123
  18 O :   -0.758965
  19 H :    0.378042
  20 H :    0.368798
  21 O :   -0.783691
  22 H :    0.355655
  23 H :    0.409540
Sum of atomic charges:    0.0000000

--------------------------------
MULLIKEN REDUCED ORBITAL CHARGES
--------------------------------
  0 O s       :     3.805465  s :     3.805465
      pz      :     1.706014  p :     4.854635
      px      :     1.354866
      py      :     1.793755
      dz2     :     0.009472  d :     0.051429
      dxz     :     0.009663
      dyz     :     0.011163
      dx2y2   :     0.007841
      dxy     :     0.013290
      f0      :     0.000454  f :     0.004069
      f+1     :     0.000689
      f-1     :     0.000552
      f+2     :     0.000438
      f-2     :     0.000714
      f+3     :     0.000468
      f-3     :     0.000755
  1 H s       :     0.592629  s :     0.592629
      pz      :     0.017480  p :     0.047047
      px      :     0.013860
      py      :     0.015707
  2 H s       :     0.588260  s :     0.588260
      pz      :     0.011457  p :     0.043055
      px      :     0.017722
      py      :     0.013876
  3 O s       :     3.791894  s :     3.791894
      pz      :     1.570988  p :     4.881911
      px      :     1.540048
      py      :     1.770875
      dz2     :     0.017128  d :     0.052250
      dxz     :     0.006654
      dyz     :     0.007946
      dx2y2   :     0.008093
      dxy     :     0.012430
      f0      :     0.000609  f :     0.003987
      f+1     :     0.000751
      f-1     :     0.000533
      f+2     :     0.000413
      f-2     :     0.000423
      f+3     :     0.000425
      f-3     :     0.000833
  4 H s       :     0.543779  s :     0.543779
      pz      :     0.025351  p :     0.049351
      px      :     0.011527
      py      :     0.012473
  5 H s       :     0.597879  s :     0.597879
      pz      :     0.011319  p :     0.045214
      px      :     0.018549
      py      :     0.015345
  6 O s       :     3.793503  s :     3.793503
      pz      :     1.591370  p :     4.921871
      px      :     1.820099
      py      :     1.510403
      dz2     :     0.016527  d :     0.051634
      dxz     :     0.007761
      dyz     :     0.008337
      dx2y2   :     0.008982
      dxy     :     0.010027
      f0      :     0.000536  f :     0.003906
      f+1     :     0.000481
      f-1     :     0.000821
      f+2     :     0.000433
      f-2     :     0.000407
      f+3     :     0.000763
      f-3     :     0.000464
  7 H s       :     0.559374  s :     0.559374
      pz      :     0.025028  p :     0.049936
      px      :     0.013374
      py      :     0.011534
  8 H s       :     0.556258  s :     0.556258
      pz      :     0.010348  p :     0.055021
      px      :     0.015478
      py      :     0.029195
  9 O s       :     3.795894  s :     3.795894
      pz      :     1.543585  p :     4.900132
      px      :     1.829118
      py      :     1.527429
      dz2     :     0.016852  d :     0.051892
      dxz     :     0.007753
      dyz     :     0.008333
      dx2y2   :     0.008937
      dxy     :     0.010017
      f0      :     0.000553  f :     0.003950
      f+1     :     0.000485
      f-1     :     0.000831
      f+2     :     0.000433
      f-2     :     0.000408
      f+3     :     0.000771
      f-3     :     0.000468
 10 H s       :     0.547193  s :     0.547193
      pz      :     0.009760  p :     0.054632
      px      :     0.015004
      py      :     0.029868
 11 H s       :     0.597023  s :     0.597023
      pz      :     0.018957  p :     0.045575
      px      :     0.014339
      py      :     0.012279
 12 O s       :     3.797823  s :     3.797823
      pz      :     1.549350  p :     4.921186
      px      :     1.535349
      py      :     1.836487
      dz2     :     0.016275  d :     0.051030
      dxz     :     0.008185
      dyz     :     0.007699
      dx2y2   :     0.008834
      dxy     :     0.010036
      f0      :     0.000572  f :     0.003951
      f+1     :     0.000817
      f-1     :     0.000486
      f+2     :     0.000435
      f-2     :     0.000406
      f+3     :     0.000466
      f-3     :     0.000769
 13 H s       :     0.593866  s :     0.593866
      pz      :     0.019021  p :     0.045528
      px      :     0.012330
      py      :     0.014176
 14 H s       :     0.543547  s :     0.543547
      pz      :     0.009090  p :     0.054108
      px      :     0.030295
      py      :     0.014723
 15 O s       :     3.793047  s :     3.793047
      pz      :     1.599831  p :     4.951417
      px      :     1.511825
      py      :     1.839761
      dz2     :     0.015403  d :     0.050061
      dxz     :     0.007945
      dyz     :     0.007662
      dx2y2   :     0.008817
      dxy     :     0.010235
      f0      :     0.000562  f :     0.003933
      f+1     :     0.000802
      f-1     :     0.000486
      f+2     :     0.000437
      f-2     :     0.000406
      f+3     :     0.000469
      f-3     :     0.000771
 16 H s       :     0.547534  s :     0.547534
      pz      :     0.024937  p :     0.049821
      px      :     0.011700
      py      :     0.013184
 17 H s       :     0.567323  s :     0.567323
      pz      :     0.009648  p :     0.054554
      px      :     0.029555
      py      :     0.015351
 18 O s       :     3.801675  s :     3.801675
      pz      :     1.536955  p :     4.901690
      px      :     1.557060
      py      :     1.807675
      dz2     :     0.016650  d :     0.051591
      dxz     :     0.006719
      dyz     :     0.008328
      dx2y2   :     0.007589
      dxy     :     0.012306
      f0      :     0.000632  f :     0.004009
      f+1     :     0.000740
      f-1     :     0.000532
      f+2     :     0.000416
      f-2     :     0.000421
      f+3     :     0.000432
      f-3     :     0.000836
 19 H s       :     0.571805  s :     0.571805
      pz      :     0.023916  p :     0.050153
      px      :     0.012312
      py      :     0.013925
 20 H s       :     0.579161  s :     0.579161
      pz      :     0.010946  p :     0.052041
      px      :     0.023975
      py      :     0.017120
 21 O s       :     3.801841  s :     3.801841
      pz      :     1.712564  p :     4.927840
      px      :     1.784715
      py      :     1.430561
      dz2     :     0.009308  d :     0.050021
      dxz     :     0.010608
      dyz     :     0.009903
      dx2y2   :     0.007907
      dxy     :     0.012295
      f0      :     0.000455  f :     0.003989
      f+1     :     0.000539
      f-1     :     0.000683
      f+2     :     0.000434
      f-2     :     0.000715
      f+3     :     0.000703
      f-3     :     0.000460
 22 H s       :     0.597309  s :     0.597309
      pz      :     0.017345  p :     0.047036
      px      :     0.015511
      py      :     0.014181
 23 H s       :     0.533302  s :     0.533302
      pz      :     0.010723  p :     0.057158
      px      :     0.013772
      py      :     0.032664


                     *******************************
                     * LOEWDIN POPULATION ANALYSIS *
                     *******************************

----------------------
LOEWDIN ATOMIC CHARGES
----------------------
   0 O :   -0.311216
   1 H :    0.162685
   2 H :    0.187011
   3 O :   -0.281957
   4 H :    0.162859
   5 H :    0.168589
   6 O :   -0.324375
   7 H :    0.152656
   8 H :    0.146962
   9 O :   -0.317923
  10 H :    0.153412
  11 H :    0.165126
  12 O :   -0.305006
  13 H :    0.166677
  14 H :    0.155596
  15 O :   -0.315034
  16 H :    0.159084
  17 H :    0.146696
  18 O :   -0.358273
  19 H :    0.150327
  20 H :    0.146492
  21 O :   -0.321577
  22 H :    0.156406
  23 H :    0.154783

-------------------------------
LOEWDIN REDUCED ORBITAL CHARGES
-------------------------------
  0 O s       :     3.463812  s :     3.463812
      pz      :     1.669690  p :     4.782738
      px      :     1.348539
      py      :     1.764509
      dz2     :     0.010866  d :     0.059825
      dxz     :     0.012316
      dyz     :     0.011429
      dx2y2   :     0.009287
      dxy     :     0.015927
      f0      :     0.000469  f :     0.004840
      f+1     :     0.000853
      f-1     :     0.000656
      f+2     :     0.000409
      f-2     :     0.001015
      f+3     :     0.000474
      f-3     :     0.000965
  1 H s       :     0.670966  s :     0.670966
      pz      :     0.067503  p :     0.166349
      px      :     0.045022
      py      :     0.053824
  2 H s       :     0.661653  s :     0.661653
      pz      :     0.034119  p :     0.151336
      px      :     0.072665
      py      :     0.044551
  3 O s       :     3.447794  s :     3.447794
      pz      :     1.538113  p :     4.769354
      px      :     1.520564
      py      :     1.710678
      dz2     :     0.021086  d :     0.059923
      dxz     :     0.007124
      dyz     :     0.007305
      dx2y2   :     0.009316
      dxy     :     0.015093
      f0      :     0.000826  f :     0.004886
      f+1     :     0.000980
      f-1     :     0.000731
      f+2     :     0.000388
      f-2     :     0.000421
      f+3     :     0.000406
      f-3     :     0.001135
  4 H s       :     0.661509  s :     0.661509
      pz      :     0.097102  p :     0.175631
      px      :     0.036608
      py      :     0.041922
  5 H s       :     0.669905  s :     0.669905
      pz      :     0.032082  p :     0.161505
      px      :     0.073679
      py      :     0.055745
  6 O s       :     3.451149  s :     3.451149
      pz      :     1.565924  p :     4.810897
      px      :     1.765792
      py      :     1.479181
      dz2     :     0.019471  d :     0.057638
      dxz     :     0.006833
      dyz     :     0.009268
      dx2y2   :     0.010655
      dxy     :     0.011411
      f0      :     0.000746  f :     0.004691
      f+1     :     0.000584
      f-1     :     0.001135
      f+2     :     0.000411
      f-2     :     0.000420
      f+3     :     0.000947
      f-3     :     0.000449
  7 H s       :     0.670100  s :     0.670100
      pz      :     0.095402  p :     0.177245
      px      :     0.043423
      py      :     0.038419
  8 H s       :     0.663156  s :     0.663156
      pz      :     0.031415  p :     0.189882
      px      :     0.053414
      py      :     0.105053
  9 O s       :     3.456876  s :     3.456876
      pz      :     1.537700  p :     4.797699
      px      :     1.773033
      py      :     1.486966
      dz2     :     0.020423  d :     0.058580
      dxz     :     0.006861
      dyz     :     0.009586
      dx2y2   :     0.010477
      dxy     :     0.011233
      f0      :     0.000786  f :     0.004768
      f+1     :     0.000585
      f-1     :     0.001178
      f+2     :     0.000414
      f-2     :     0.000420
      f+3     :     0.000937
      f-3     :     0.000448
 10 H s       :     0.655997  s :     0.655997
      pz      :     0.029650  p :     0.190591
      px      :     0.053412
      py      :     0.107529
 11 H s       :     0.671837  s :     0.671837
      pz      :     0.081013  p :     0.163037
      px      :     0.044005
      py      :     0.038019
 12 O s       :     3.452528  s :     3.452528
      pz      :     1.522142  p :     4.788758
      px      :     1.490638
      py      :     1.775978
      dz2     :     0.020946  d :     0.058956
      dxz     :     0.009665
      dyz     :     0.006925
      dx2y2   :     0.010298
      dxy     :     0.011122
      f0      :     0.000801  f :     0.004764
      f+1     :     0.001172
      f-1     :     0.000585
      f+2     :     0.000413
      f-2     :     0.000423
      f+3     :     0.000448
      f-3     :     0.000923
 13 H s       :     0.670259  s :     0.670259
      pz      :     0.081027  p :     0.163065
      px      :     0.038190
      py      :     0.043848
 14 H s       :     0.651091  s :     0.651091
      pz      :     0.029490  p :     0.193313
      px      :     0.110374
      py      :     0.053449
 15 O s       :     3.444779  s :     3.444779
      pz      :     1.550040  p :     4.808420
      px      :     1.481179
      py      :     1.777200
      dz2     :     0.019108  d :     0.057133
      dxz     :     0.009087
      dyz     :     0.006868
      dx2y2   :     0.010487
      dxy     :     0.011583
      f0      :     0.000761  f :     0.004701
      f+1     :     0.001123
      f-1     :     0.000583
      f+2     :     0.000411
      f-2     :     0.000420
      f+3     :     0.000450
      f-3     :     0.000952
 16 H s       :     0.664074  s :     0.664074
      pz      :     0.095497  p :     0.176843
      px      :     0.038048
      py      :     0.043298
 17 H s       :     0.661429  s :     0.661429
      pz      :     0.031265  p :     0.191875
      px      :     0.106897
      py      :     0.053714
 18 O s       :     3.456452  s :     3.456452
      pz      :     1.521763  p :     4.838994
      px      :     1.536491
      py      :     1.780740
      dz2     :     0.020785  d :     0.058038
      dxz     :     0.007379
      dyz     :     0.007647
      dx2y2   :     0.007654
      dxy     :     0.014572
      f0      :     0.000874  f :     0.004790
      f+1     :     0.000967
      f-1     :     0.000698
      f+2     :     0.000388
      f-2     :     0.000421
      f+3     :     0.000377
      f-3     :     0.001065
 19 H s       :     0.676033  s :     0.676033
      pz      :     0.092697  p :     0.173640
      px      :     0.037789
      py      :     0.043154
 20 H s       :     0.676160  s :     0.676160
      pz      :     0.031896  p :     0.177348
      px      :     0.086579
      py      :     0.058872
 21 O s       :     3.451465  s :     3.451465
      pz      :     1.670940  p :     4.807592
      px      :     1.740001
      py      :     1.396651
      dz2     :     0.010524  d :     0.057766
      dxz     :     0.011079
      dyz     :     0.012412
      dx2y2   :     0.009351
      dxy     :     0.014399
      f0      :     0.000471  f :     0.004755
      f+1     :     0.000649
      f-1     :     0.000845
      f+2     :     0.000411
      f-2     :     0.001021
      f+3     :     0.000883
      f-3     :     0.000474
 22 H s       :     0.674935  s :     0.674935
      pz      :     0.067333  p :     0.168659
      px      :     0.054247
      py      :     0.047079
 23 H s       :     0.645323  s :     0.645323
      pz      :     0.034080  p :     0.199894
      px      :     0.048393
      py      :     0.117421


                      *****************************
                      * MAYER POPULATION ANALYSIS *
                      *****************************

  NA   - Mulliken gross atomic population
[...]
      f+2     :     0.000416
      f-2     :     0.000420
      f+3     :     0.000432
      f-3     :     0.000813
 19 H s       :     0.583585  s :     0.583585
      pz      :     0.023036  p :     0.050649
      px      :     0.012817
      py      :     0.014796
 20 H s       :     0.596163  s :     0.596163
      pz      :     0.011639  p :     0.052638
      px      :     0.023398
      py      :     0.017600
 21 O s       :     3.804143  s :     3.804143
      pz      :     1.702131  p :     4.897164
      px      :     1.771260
      py      :     1.423773
      dz2     :     0.009177  d :     0.048253
      dxz     :     0.010310
      dyz     :     0.009327
      dx2y2   :     0.007798
      dxy     :     0.011640
      f0      :     0.000453  f :     0.003921
      f+1     :     0.000531
      f-1     :     0.000665
      f+2     :     0.000434
      f-2     :     0.000695
      f+3     :     0.000685
      f-3     :     0.000458
 22 H s       :     0.603773  s :     0.603773
      pz      :     0.017452  p :     0.047820
      px      :     0.016156
      py      :     0.014211
 23 H s       :     0.557169  s :     0.557169
      pz      :     0.011402  p :     0.057269
      px      :     0.014230
      py      :     0.031638


                     *******************************
                     * LOEWDIN POPULATION ANALYSIS *
                     *******************************

----------------------
LOEWDIN ATOMIC CHARGES
----------------------
   0 O :   -0.309507
   1 H :    0.164509
   2 H :    0.188415
   3 O :   -0.274849
   4 H :    0.158789
   5 H :    0.169582
   6 O :   -0.315699
   7 H :    0.148339
   8 H :    0.140113
   9 O :   -0.311623
  10 H :    0.145541
  11 H :    0.166503
  12 O :   -0.297038
  13 H :    0.168166
  14 H :    0.147094
  15 O :   -0.305244
  16 H :    0.154892
  17 H :    0.139174
  18 O :   -0.357111
  19 H :    0.147457
  20 H :    0.141905
  21 O :   -0.314639
  22 H :    0.158208
  23 H :    0.147024

-------------------------------
LOEWDIN REDUCED ORBITAL CHARGES
-------------------------------
  0 O s       :     3.465589  s :     3.465589
      pz      :     1.664229  p :     4.780465
      px      :     1.353429
      py      :     1.762807
      dz2     :     0.010768  d :     0.058594
      dxz     :     0.011940
      dyz     :     0.011395
      dx2y2   :     0.009059
      dxy     :     0.015432
      f0      :     0.000472  f :     0.004859
      f+1     :     0.000860
      f-1     :     0.000657
      f+2     :     0.000410
      f-2     :     0.001014
      f+3     :     0.000477
      f-3     :     0.000970
  1 H s       :     0.669317  s :     0.669317
      pz      :     0.067486  p :     0.166173
      px      :     0.044224
      py      :     0.054463
  2 H s       :     0.660284  s :     0.660284
      pz      :     0.034804  p :     0.151301
      px      :     0.071206
      py      :     0.045291
  3 O s       :     3.448462  s :     3.448462
      pz      :     1.539902  p :     4.762408
      px      :     1.522119
      py      :     1.700388
      dz2     :     0.020574  d :     0.059075
      dxz     :     0.007022
      dyz     :     0.007353
      dx2y2   :     0.009351
      dxy     :     0.014774
      f0      :     0.000829  f :     0.004904
      f+1     :     0.000985
      f-1     :     0.000732
      f+2     :     0.000390
      f-2     :     0.000421
      f+3     :     0.000407
      f-3     :     0.001140
  4 H s       :     0.665468  s :     0.665468
      pz      :     0.096345  p :     0.175743
      px      :     0.036914
      py      :     0.042484
  5 H s       :     0.668847  s :     0.668847
      pz      :     0.032553  p :     0.161570
      px      :     0.072955
      py      :     0.056062
  6 O s       :     3.451741  s :     3.451741
      pz      :     1.567505  p :     4.802073
      px      :     1.752920
      py      :     1.481648
      dz2     :     0.019119  d :     0.057162
      dxz     :     0.006901
      dyz     :     0.009097
      dx2y2   :     0.010668
      dxy     :     0.011377
      f0      :     0.000746  f :     0.004722
      f+1     :     0.000586
      f-1     :     0.001147
      f+2     :     0.000412
      f-2     :     0.000419
      f+3     :     0.000960
      f-3     :     0.000452
  7 H s       :     0.674064  s :     0.674064
      pz      :     0.094973  p :     0.177597
      px      :     0.043948
      py      :     0.038676
  8 H s       :     0.669296  s :     0.669296
      pz      :     0.032009  p :     0.190591
      px      :     0.053812
      py      :     0.104770
  9 O s       :     3.458019  s :     3.458019
      pz      :     1.539550  p :     4.790901
      px      :     1.761088
      py      :     1.490263
      dz2     :     0.019866  d :     0.057908
      dxz     :     0.006928
      dyz     :     0.009365
      dx2y2   :     0.010526
      dxy     :     0.011222
      f0      :     0.000783  f :     0.004797
      f+1     :     0.000586
      f-1     :     0.001190
      f+2     :     0.000415
      f-2     :     0.000419
      f+3     :     0.000952
      f-3     :     0.000451
 10 H s       :     0.663217  s :     0.663217
      pz      :     0.030031  p :     0.191242
      px      :     0.053881
      py      :     0.107331
 11 H s       :     0.670363  s :     0.670363
      pz      :     0.080307  p :     0.163134
      px      :     0.044652
      py      :     0.038176
 12 O s       :     3.454070  s :     3.454070
      pz      :     1.521647  p :     4.779613
      px      :     1.493467
      py      :     1.764499
      dz2     :     0.020571  d :     0.058554
      dxz     :     0.009466
      dyz     :     0.007006
      dx2y2   :     0.010373
      dxy     :     0.011138
      f0      :     0.000802  f :     0.004801
      f+1     :     0.001185
      f-1     :     0.000587
      f+2     :     0.000415
      f-2     :     0.000422
      f+3     :     0.000451
      f-3     :     0.000938
 13 H s       :     0.668694  s :     0.668694
      pz      :     0.080326  p :     0.163140
      px      :     0.038320
      py      :     0.044494
 14 H s       :     0.658970  s :     0.658970
      pz      :     0.029799  p :     0.193936
      px      :     0.110261
      py      :     0.053876
 15 O s       :     3.445386  s :     3.445386
      pz      :     1.548310  p :     4.798266
      px      :     1.483515
      py      :     1.766441
      dz2     :     0.018907  d :     0.056854
      dxz     :     0.008932
      dyz     :     0.006936
      dx2y2   :     0.010532
      dxy     :     0.011546
      f0      :     0.000766  f :     0.004739
      f+1     :     0.001135
      f-1     :     0.000586
      f+2     :     0.000413
      f-2     :     0.000420
      f+3     :     0.000453
      f-3     :     0.000966
 16 H s       :     0.668028  s :     0.668028
      pz      :     0.094905  p :     0.177079
      px      :     0.038231
      py      :     0.043944
 17 H s       :     0.667991  s :     0.667991
      pz      :     0.031692  p :     0.192835
      px      :     0.106895
      py      :     0.054248
 18 O s       :     3.457189  s :     3.457189
      pz      :     1.522759  p :     4.838008
      px      :     1.537592
      py      :     1.777658
      dz2     :     0.020222  d :     0.057100
      dxz     :     0.007265
      dyz     :     0.007677
      dx2y2   :     0.007617
      dxy     :     0.014320
      f0      :     0.000878  f :     0.004813
      f+1     :     0.000976
      f-1     :     0.000697
      f+2     :     0.000390
      f-2     :     0.000421
      f+3     :     0.000376
      f-3     :     0.001075
 19 H s       :     0.678568  s :     0.678568
      pz      :     0.091816  p :     0.173976
      px      :     0.038233
      py      :     0.043927
 20 H s       :     0.680068  s :     0.680068
      pz      :     0.032402  p :     0.178027
      px      :     0.086216
      py      :     0.059409
 21 O s       :     3.453058  s :     3.453058
      pz      :     1.665764  p :     4.799423
      px      :     1.733159
      py      :     1.400500
      dz2     :     0.010615  d :     0.057365
      dxz     :     0.011050
      dyz     :     0.012081
      dx2y2   :     0.009407
      dxy     :     0.014211
      f0      :     0.000474  f :     0.004794
      f+1     :     0.000651
      f-1     :     0.000856
      f+2     :     0.000412
      f-2     :     0.001023
      f+3     :     0.000898
      f-3     :     0.000479
 22 H s       :     0.673142  s :     0.673142
      pz      :     0.067277  p :     0.168650
      px      :     0.054695
      py      :     0.046679
 23 H s       :     0.652890  s :     0.652890
      pz      :     0.034632  p :     0.200086
      px      :     0.048808
      py      :     0.116646


                      *****************************
                      * MAYER POPULATION ANALYSIS *
                      *****************************

  NA   - Mulliken gross atomic population
  ZA   - Total nuclear charge
  QA   - Mulliken gross atomic charge
  VA   - Mayer's total valence
  BVA  - Mayer's bonded valence
  FA   - Mayer's free valence

  ATOM       NA         ZA         QA         VA         BVA        FA
  0 O      8.6971     8.0000    -0.6971     2.0980     1.7141     0.3839
  1 H      0.6463     1.0000     0.3537     0.8945     0.8492     0.0453
  2 H      0.6381     1.0000     0.3619     0.8877     0.8403     0.0475
  3 O      8.7008     8.0000    -0.7008     2.0978     1.7148     0.3829
  4 H      0.6076     1.0000     0.3924     0.8848     0.8424     0.0423
  5 H      0.6506     1.0000     0.3494     0.9047     0.8578     0.0469
  6 O      8.7332     8.0000    -0.7332     2.0705     1.6815     0.3890
  7 H      0.6250     1.0000     0.3750     0.9025     0.8585     0.0440
  8 H      0.6336     1.0000     0.3664     0.9200     0.8744     0.0456
  9 O      8.7208     8.0000    -0.7208     2.0646     1.6778     0.3869
 10 H      0.6261     1.0000     0.3739     0.9223     0.8779     0.0444
 11 H      0.6489     1.0000     0.3511     0.8980     0.8510     0.0471
 12 O      8.7412     8.0000    -0.7412     2.0484     1.6594     0.3890
 13 H      0.6466     1.0000     0.3534     0.8942     0.8474     0.0469
 14 H      0.6253     1.0000     0.3747     0.9280     0.8835     0.0445
 15 O      8.7602     8.0000    -0.7602     2.0314     1.6406     0.3908
 16 H      0.6136     1.0000     0.3864     0.8943     0.8517     0.0426
 17 H      0.6474     1.0000     0.3526     0.9431     0.8965     0.0466
 18 O      8.7349     8.0000    -0.7349     2.0609     1.6742     0.3866
 19 H      0.6342     1.0000     0.3658     0.9006     0.8557     0.0449
 20 H      0.6488     1.0000     0.3512     0.9270     0.8812     0.0458
 21 O      8.7535     8.0000    -0.7535     2.0401     1.6497     0.3903
 22 H      0.6516     1.0000     0.3484     0.9004     0.8540     0.0465
 23 H      0.6144     1.0000     0.3856     0.9002     0.8557     0.0445

  Mayer bond orders larger than 0.100000
B(  0-O ,  1-H ) :   0.8412 B(  0-O ,  2-H ) :   0.8293 B(  3-O ,  4-H ) :   0.7927 
B(  3-O ,  5-H ) :   0.8380 B(  6-O ,  7-H ) :   0.8038 B(  6-O ,  8-H ) :   0.7807 
B(  6-O , 14-H ) :   0.1319 B(  9-O , 10-H ) :   0.7625 B(  9-O , 11-H ) :   0.8407 
B(  9-O , 17-H ) :   0.1122 B( 10-H , 12-O ) :   0.1045 B( 12-O , 13-H ) :   0.8374 
B( 12-O , 14-H ) :   0.7355 B( 15-O , 16-H ) :   0.7968 B( 15-O , 17-H ) :   0.7611 
B( 18-O , 19-H ) :   0.8265 B( 18-O , 20-H ) :   0.8196 B( 21-O , 22-H ) :   0.8414 
B( 21-O , 23-H ) :   0.7403 


----------------------------------
MP2 DERIVATIVE INTEGRAL GENERATION
----------------------------------


Input Wavefunction Amplitudes       ... 12h2o.su.etal.mol1,3,4,5,6,7,8,10-orca.engrad-mp2.def2tzvp.frozencore.mp2tsaa.tmp
Input Correlated Electron Density   ... 12h2o.su.etal.mol1,3,4,5,6,7,8,10-orca.engrad-mp2.def2tzvp.frozencore.pmp2re
Input Energy Weighted Density       ... 12h2o.su.etal.mol1,3,4,5,6,7,8,10-orca.engrad-mp2.def2tzvp.frozencore.wmp2.tmp
Input SCF Electron Density          ... 12h2o.su.etal.mol1,3,4,5,6,7,8,10-orca.engrad-mp2.def2tzvp.frozencore.scfp

One-Electron Terms    ...
                        ... One-Electron Terms done
Prescreening matrices              ... done

Batch handling in the gradient evaluation:
Memory available                      ... 8000.0 MB
Memory per occupied orbital in Q2     ...   28.9 MB
Memory per occupied orbital in Q3     ...    0.1 MB
Total memory requirement per |i>      ...   29.0 MB
Max. Number of orbitals possible      ...    275
Number of orbitals treated per batch  ...     32
Number of batches to be done          ...      1
Batch   0: i=    8 ...    39

---------------------------------------
MP2 TOTAL ENERGY:     -610.602170385 Eh
---------------------------------------

The final MP2 gradient
  0:  -0.02520106   0.00993708   0.00195515
  1:  -0.00135015   0.00170508  -0.00238929
  2:   0.02699384  -0.00970095   0.00023467
  3:  -0.00843954   0.00638566   0.00024182
  4:   0.00134782   0.00051463  -0.00357645
  5:   0.00769909  -0.00501702   0.00163196
  6:  -0.00464111   0.00318678   0.00120325
  7:  -0.00029254   0.00159406   0.00019154
  8:   0.00074007  -0.00585720  -0.00110467
  9:   0.00318050   0.00175261   0.01002799
 10:  -0.00161903  -0.00038809   0.00176330
 11:  -0.00279254  -0.00142486  -0.00847147
 12:  -0.00445636   0.00394457  -0.01421907
 13:  -0.00022712  -0.00189603   0.00888184
 14:   0.00816719  -0.00446886  -0.00040347
 15:  -0.00024955   0.00338260   0.00222694
 16:   0.00015491  -0.00155749  -0.00007847
 17:   0.00006527   0.00020338  -0.00220381
 18:   0.00265803   0.00039456  -0.00319556
 19:   0.00111720   0.00054035   0.00575338
 20:  -0.00417875   0.00099222  -0.00113849
 21:   0.00252399   0.00323917  -0.00006348
 22:   0.00065556  -0.00009434   0.00117497
 23:  -0.00185575  -0.00736793   0.00155743

-----------------------------------
NORM OF THE MP2 GRADIENT:  0.051376
-----------------------------------

-------------------------   --------------------
FINAL SINGLE POINT ENERGY      -610.602170384651
-------------------------   --------------------


                            ***************************************
                            *     ORCA property calculations      *
                            ***************************************

                                    ---------------------
                                    Active property flags
                                    ---------------------
   (+) Dipole Moment


------------------------------------------------------------------------------
                       ORCA ELECTRIC PROPERTIES CALCULATION
------------------------------------------------------------------------------

Dipole Moment Calculation                       ... on
Quadrupole Moment Calculation                   ... off
Polarizability Calculation                      ... off
GBWName                                         ... 12h2o.su.etal.mol1,3,4,5,6,7,8,10-orca.engrad-mp2.def2tzvp.frozencore.gbw
Electron density file                           ... 12h2o.su.etal.mol1,3,4,5,6,7,8,10-orca.engrad-mp2.def2tzvp.frozencore.scfp
The origin for moment calculation is the CENTER OF MASS  = (-0.647884,  0.190068 -1.346505)

-------------
DIPOLE MOMENT
-------------
                                X             Y             Z
Electronic contribution:     -0.26978      -0.03876       0.15956
Nuclear contribution   :     -0.37017      -0.98813       1.37221
                        -----------------------------------------
Total Dipole Moment    :     -0.63994      -1.02689       1.53178
                        -----------------------------------------
Magnitude (a.u.)       :      1.95201
Magnitude (Debye)      :      4.96163



--------------------
Rotational spectrum 
--------------------
 
Rotational constants in cm-1:     0.036824     0.021970     0.019405 
Rotational constants in MHz :  1103.960529   658.630888   581.753360 

 Dipole components along the rotational axes: 
x,y,z [a.u.] :     1.916826    -0.138430    -0.342022 
x,y,z [Debye]:     4.872184    -0.351861    -0.869351 

 

                         *** MP2 UNRELAXED DENSITY ***

------------------------------------------------------------------------------
                       ORCA ELECTRIC PROPERTIES CALCULATION
------------------------------------------------------------------------------

Dipole Moment Calculation                       ... on
Quadrupole Moment Calculation                   ... off
Polarizability Calculation                      ... off
GBWName                                         ... 12h2o.su.etal.mol1,3,4,5,6,7,8,10-orca.engrad-mp2.def2tzvp.frozencore.gbw
Electron density file                           ... 12h2o.su.etal.mol1,3,4,5,6,7,8,10-orca.engrad-mp2.def2tzvp.frozencore.pmp2ur
The origin for moment calculation is the CENTER OF MASS  = (-0.647884,  0.190068 -1.346505)

-------------
DIPOLE MOMENT
-------------
                                X             Y             Z
Electronic contribution:     -0.26981      -0.02958       0.14925
Nuclear contribution   :     -0.37017      -0.98813       1.37221
                        -----------------------------------------
Total Dipole Moment    :     -0.63998      -1.01771       1.52146
                        -----------------------------------------
Magnitude (a.u.)       :      1.93911
Magnitude (Debye)      :      4.92883



--------------------
Rotational spectrum 
--------------------
 
Rotational constants in cm-1:     0.036824     0.021970     0.019405 
Rotational constants in MHz :  1103.960529   658.630888   581.753360 

 Dipole components along the rotational axes: 
x,y,z [a.u.] :     1.904407    -0.141370    -0.336761 
x,y,z [Debye]:     4.840618    -0.359334    -0.855978 

 

                           *** MP2 RELAXED DENSITY ***

------------------------------------------------------------------------------
                       ORCA ELECTRIC PROPERTIES CALCULATION
------------------------------------------------------------------------------

Dipole Moment Calculation                       ... on
Quadrupole Moment Calculation                   ... off
Polarizability Calculation                      ... off
GBWName                                         ... 12h2o.su.etal.mol1,3,4,5,6,7,8,10-orca.engrad-mp2.def2tzvp.frozencore.gbw
Electron density file                           ... 12h2o.su.etal.mol1,3,4,5,6,7,8,10-orca.engrad-mp2.def2tzvp.frozencore.pmp2re
The origin for moment calculation is the CENTER OF MASS  = (-0.647884,  0.190068 -1.346505)

-------------
DIPOLE MOMENT
-------------
                                X             Y             Z
Electronic contribution:     -0.27098      -0.02477       0.14391
Nuclear contribution   :     -0.37017      -0.98813       1.37221
                        -----------------------------------------
Total Dipole Moment    :     -0.64115      -1.01290       1.51612
                        -----------------------------------------
Magnitude (a.u.)       :      1.93279
Magnitude (Debye)      :      4.91276



--------------------
Rotational spectrum 
--------------------
 
Rotational constants in cm-1:     0.036824     0.021970     0.019405 
Rotational constants in MHz :  1103.960529   658.630888   581.753360 

 Dipole components along the rotational axes: 
x,y,z [a.u.] :     1.898303    -0.143965    -0.333753 
x,y,z [Debye]:     4.825103    -0.365929    -0.848333 

 

Timings for individual modules:

Sum of individual times         ...      211.598 sec (=   3.527 min)
GTO integral calculation        ...        1.428 sec (=   0.024 min)   0.7 %
SCF iterations                  ...       31.628 sec (=   0.527 min)  14.9 %
MP2 module                      ...      178.541 sec (=   2.976 min)  84.4 %
                             ****ORCA TERMINATED NORMALLY****
TOTAL RUN TIME: 0 days 0 hours 3 minutes 32 seconds 631 msec
