
                                 *****************
                                 * O   R   C   A *
                                 *****************

           --- An Ab Initio, DFT and Semiempirical electronic structure package ---

                  #######################################################
                  #                        -***-                        #
                  #          Department of theory and spectroscopy      #
                  #               Directorship: Frank Neese             #
                  #        Max Planck Institute fuer Kohlenforschung    #
                  #                Kaiser Wilhelm Platz 1               #
                  #                 D-45470 Muelheim/Ruhr               #
                  #                      Germany                        #
                  #                                                     #
                  #                  All rights reserved                #
                  #                        -***-                        #
                  #######################################################


                         Program Version 4.2.0 -  RELEASE  -


 With contributions from (in alphabetic order):
   Daniel Aravena         : Magnetic Suceptibility
   Michael Atanasov       : Ab Initio Ligand Field Theory (pilot matlab implementation)
   Alexander A. Auer      : GIAO ZORA, VPT2
   Ute Becker             : Parallelization
   Giovanni Bistoni       : ED, misc. LED, open-shell LED, HFLED
   Martin Brehm           : Molecular dynamics
   Dmytro Bykov           : SCF Hessian
   Vijay G. Chilkuri      : MRCI spin determinant printing, contributions to CSF-ICE
   Dipayan Datta          : RHF DLPNO-CCSD density
   Achintya Kumar Dutta   : EOM-CC, STEOM-CC
   Dmitry Ganyushin       : Spin-Orbit,Spin-Spin,Magnetic field MRCI
   Miquel Garcia          : C-PCM Hessian, Gaussian charge scheme
   Yang Guo               : DLPNO-NEVPT2, CIM, IAO-localization
   Andreas Hansen         : Spin unrestricted coupled pair/coupled cluster methods
   Benjamin Helmich-Paris : CASSCF linear response (MC-RPA)
   Lee Huntington         : MR-EOM, pCC
   Robert Izsak           : Overlap fitted RIJCOSX, COSX-SCS-MP3, EOM
   Christian Kollmar      : KDIIS, OOCD, Brueckner-CCSD(T), CCSD density
   Simone Kossmann        : Meta GGA functionals, TD-DFT gradient, OOMP2, MP2 Hessian
   Martin Krupicka        : AUTO-CI
   Lucas Lang             : DCDCAS
   Dagmar Lenk            : GEPOL surface, SMD
   Dimitrios Liakos       : Extrapolation schemes; Compound Job, initial MDCI parallelization
   Dimitrios Manganas     : Further ROCIS development; embedding schemes
   Dimitrios Pantazis     : SARC Basis sets
   Taras Petrenko         : DFT Hessian,TD-DFT gradient, ASA, ECA, R-Raman, ABS, FL, XAS/XES, NRVS
   Peter Pinski           : DLPNO-MP2, DLPNO-MP2 Gradient
   Christoph Reimann      : Effective Core Potentials
   Marius Retegan         : Local ZFS, SOC
   Christoph Riplinger    : Optimizer, TS searches, QM/MM, DLPNO-CCSD(T), (RO)-DLPNO pert. Triples
   Tobias Risthaus        : Range-separated hybrids, TD-DFT gradient, RPA, STAB
   Michael Roemelt        : Original ROCIS implementation
   Masaaki Saitow         : Open-shell DLPNO-CCSD energy and density
   Barbara Sandhoefer     : DKH picture change effects
   Avijit Sen             : IP-ROCIS
   Kantharuban Sivalingam : CASSCF convergence, NEVPT2, FIC-MRCI
   Bernardo de Souza      : ESD, SOC TD-DFT
   Georgi Stoychev        : AutoAux, RI-MP2 NMR
   Willem Van den Heuvel  : Paramagnetic NMR
   Boris Wezisla          : Elementary symmetry handling
   Frank Wennmohs         : Technical directorship


 We gratefully acknowledge several colleagues who have allowed us to
 interface, adapt or use parts of their codes:
   Stefan Grimme, W. Hujo, H. Kruse,             : VdW corrections, initial TS optimization,
                  C. Bannwarth                     DFT functionals, gCP, sTDA/sTD-DF
   Ed Valeev, F. Pavosevic, A. Kumar             : LibInt (2-el integral package), F12 methods
   Garnet Chan, S. Sharma, J. Yang, R. Olivares  : DMRG
   Ulf Ekstrom                                   : XCFun DFT Library
   Mihaly Kallay                                 : mrcc  (arbitrary order and MRCC methods)
   Andreas Klamt, Michael Diedenhofen            : otool_cosmo (COSMO solvation model)
   Jiri Pittner, Ondrej Demel                    : Mk-CCSD
   Frank Weinhold                                : gennbo (NPA and NBO analysis)
   Christopher J. Cramer and Donald G. Truhlar   : smd solvation model
   Lars Goerigk                                  : TD-DFT with DH, B97 family of functionals
   V. Asgeirsson, H. Jonsson                     : NEB implementation
   FAccTs GmbH                                   : IRC, NEB, NEB-TS, Multilevel, MM, QM/MM, CI optimization
   S Lehtola, MJT Oliveira, MAL Marques          : LibXC Library


 Your calculation uses the libint2 library for the computation of 2-el integrals
 For citations please refer to: http://libint.valeyev.net

 Your ORCA version has been built with support for libXC version: 4.2.3
 For citations please refer to: https://tddft.org/programs/libxc/

 This ORCA versions uses:
   CBLAS   interface :  Fast vector & matrix operations
   LAPACKE interface :  Fast linear algebra routines
   SCALAPACK package :  Parallel linear algebra routines


----- Orbital basis set information -----
Your calculation utilizes the basis: def2-TZVP
   F. Weigend and R. Ahlrichs, Phys. Chem. Chem. Phys. 7, 3297 (2005).

================================================================================
                                        WARNINGS
                       Please study these warnings very carefully!
================================================================================


WARNING: The frozen-core approximation for MP2-gradient calculations is turned on by default.

INFO   : the flag for use of LIBINT has been found!

================================================================================
                                       INPUT FILE
================================================================================
NAME = 12h2o.su.etal.mol0,1,3,4,5,6,7,8,9,11-orca.engrad-mp2.def2tzvp.frozencore.inp
|  1> # 12h2o.su.etal.mol0,1,3,4,5,6,7,8,9,11
|  2> ! MP2 def2-TZVP EnGrad TightSCF
|  3> 
|  4> %pal
|  5>     nprocs 6
|  6> end
|  7> 
|  8> %maxcore 8000
|  9> 
| 10> %scf
| 11>     ConvForced true
| 12> end
| 13> 
| 14> *xyz 0 1
| 15> O   1.794470000   0.923410000   2.768350000
| 16> H   2.338250000   1.359750000   3.430940000
| 17> H   0.879480000   1.303000000   2.865760000
| 18> O  -1.794470000  -0.923410000   2.768350000
| 19> H  -2.338250000  -1.359750000   3.430940000
| 20> H  -0.879480000  -1.303000000   2.865760000
| 21> O  -1.752130000  -0.741530000  -2.896280000
| 22> H  -2.036450000  -0.920500000  -1.984040000
| 23> H  -0.921210000  -1.242140000  -2.984230000
| 24> O  -0.885520000   1.737840000   0.052730000
| 25> H  -1.032320000   2.090180000  -0.841890000
| 26> H  -1.284090000   0.839590000   0.017130000
| 27> O   0.885520000  -1.737840000   0.052730000
| 28> H   1.284090000  -0.839590000   0.017130000
| 29> H   1.032320000  -2.090180000  -0.841890000
| 30> O   1.737840000   0.885520000  -0.052730000
| 31> H   2.090180000   1.032320000   0.841890000
| 32> H   0.839590000   1.284090000  -0.017130000
| 33> O  -1.737840000  -0.885520000  -0.052730000
| 34> H  -2.090180000  -1.032320000   0.841890000
| 35> H  -0.839590000  -1.284090000  -0.017130000
| 36> O   1.752130000   0.741530000  -2.896280000
| 37> H   2.036450000   0.920500000  -1.984040000
| 38> H   0.921210000   1.242140000  -2.984230000
| 39> O   0.741530000  -1.752130000   2.896280000
| 40> H   0.920500000  -2.036450000   1.984040000
| 41> H   1.242140000  -0.921210000   2.984230000
| 42> O  -0.741530000   1.752130000   2.896280000
| 43> H  -0.920500000   2.036450000   1.984040000
| 44> H  -1.242140000   0.921210000   2.984230000
| 45> *
| 46> 
| 47>                          ****END OF INPUT****
================================================================================

                     *******************************
                     * Energy+Gradient Calculation *
                     *******************************

---------------------------------
CARTESIAN COORDINATES (ANGSTROEM)
---------------------------------
  O      1.794470    0.923410    2.768350
  H      2.338250    1.359750    3.430940
  H      0.879480    1.303000    2.865760
  O     -1.794470   -0.923410    2.768350
  H     -2.338250   -1.359750    3.430940
  H     -0.879480   -1.303000    2.865760
  O     -1.752130   -0.741530   -2.896280
  H     -2.036450   -0.920500   -1.984040
  H     -0.921210   -1.242140   -2.984230
  O     -0.885520    1.737840    0.052730
  H     -1.032320    2.090180   -0.841890
  H     -1.284090    0.839590    0.017130
  O      0.885520   -1.737840    0.052730
  H      1.284090   -0.839590    0.017130
  H      1.032320   -2.090180   -0.841890
  O      1.737840    0.885520   -0.052730
  H      2.090180    1.032320    0.841890
  H      0.839590    1.284090   -0.017130
  O     -1.737840   -0.885520   -0.052730
  H     -2.090180   -1.032320    0.841890
  H     -0.839590   -1.284090   -0.017130
  O      1.752130    0.741530   -2.896280
  H      2.036450    0.920500   -1.984040
  H      0.921210    1.242140   -2.984230
  O      0.741530   -1.752130    2.896280
  H      0.920500   -2.036450    1.984040
  H      1.242140   -0.921210    2.984230
  O     -0.741530    1.752130    2.896280
  H     -0.920500    2.036450    1.984040
  H     -1.242140    0.921210    2.984230

----------------------------
CARTESIAN COORDINATES (A.U.)
----------------------------
  NO LB      ZA    FRAG     MASS         X           Y           Z
   0 O     8.0000    0    15.999    3.391057    1.744992    5.231423
   1 H     1.0000    0     1.008    4.418652    2.569555    6.483537
   2 H     1.0000    0     1.008    1.661976    2.462313    5.415502
   3 O     8.0000    0    15.999   -3.391057   -1.744992    5.231423
   4 H     1.0000    0     1.008   -4.418652   -2.569555    6.483537
   5 H     1.0000    0     1.008   -1.661976   -2.462313    5.415502
   6 O     8.0000    0    15.999   -3.311046   -1.401289   -5.473176
   7 H     1.0000    0     1.008   -3.848333   -1.739493   -3.749292
   8 H     1.0000    0     1.008   -1.740835   -2.347304   -5.639377
   9 O     8.0000    0    15.999   -1.673390    3.284042    0.099645
  10 H     1.0000    0     1.008   -1.950802    3.949868   -1.590942
  11 H     1.0000    0     1.008   -2.426578    1.586595    0.032371
  12 O     8.0000    0    15.999    1.673390   -3.284042    0.099645
  13 H     1.0000    0     1.008    2.426578   -1.586595    0.032371
  14 H     1.0000    0     1.008    1.950802   -3.949868   -1.590942
  15 O     8.0000    0    15.999    3.284042    1.673390   -0.099645
  16 H     1.0000    0     1.008    3.949868    1.950802    1.590942
  17 H     1.0000    0     1.008    1.586595    2.426578   -0.032371
  18 O     8.0000    0    15.999   -3.284042   -1.673390   -0.099645
  19 H     1.0000    0     1.008   -3.949868   -1.950802    1.590942
  20 H     1.0000    0     1.008   -1.586595   -2.426578   -0.032371
  21 O     8.0000    0    15.999    3.311046    1.401289   -5.473176
  22 H     1.0000    0     1.008    3.848333    1.739493   -3.749292
  23 H     1.0000    0     1.008    1.740835    2.347304   -5.639377
  24 O     8.0000    0    15.999    1.401289   -3.311046    5.473176
  25 H     1.0000    0     1.008    1.739493   -3.848333    3.749292
  26 H     1.0000    0     1.008    2.347304   -1.740835    5.639377
  27 O     8.0000    0    15.999   -1.401289    3.311046    5.473176
  28 H     1.0000    0     1.008   -1.739493    3.848333    3.749292
  29 H     1.0000    0     1.008   -2.347304    1.740835    5.639377

--------------------------------
INTERNAL COORDINATES (ANGSTROEM)
--------------------------------
 O      0   0   0     0.000000000000     0.00000000     0.00000000
 H      1   0   0     0.961828878803     0.00000000     0.00000000
 H      1   2   0     0.995381322057   106.21731035     0.00000000
 O      3   1   2     3.480861789658   117.35405144   223.81249033
 H      4   3   1     0.961828878803   134.84484566    98.22461471
 H      4   3   1     0.995381322057    62.29205096    12.66575463
 O      4   3   1     5.667707300743    90.09768939   276.02472436
 H      7   4   3     0.972136791249    18.92045113   191.47242104
 H      7   4   3     0.974050112161    94.59568686    71.02022155
 O      3   1   2     3.349245975813   116.85538783   143.82107740
 H     10   3   1     0.972645187106   154.03893681   304.15813038
 H     10   3   1     0.983350632989    97.20424340    87.67157074
 O      6   4   3     3.349245975813   116.85538783   276.41377787
 H     13   6   4     0.983350632989    97.20424340    87.67157074
 H     13   6   4     0.972645187106   154.03893681   304.15813038
 O     14  13   6     1.785153773264   170.81379649   301.36914736
 H     16  14  13     0.972645187106   101.65007623   109.44492584
 H     16  14  13     0.983350632989    99.09581498     3.33484705
 O     12  10   3     1.785153773264   170.81379649   301.36914736
 H     19  12  10     0.972645187106   101.65007623   109.44492584
 H     19  12  10     0.983350632989    99.09581498     3.33484705
 O     16  14  13     2.847229166523    89.51229470   269.85728871
 H     22  16  14     0.972136791249    19.08819947   230.61896091
 H     22  16  14     0.974050112161    93.43428486   106.52268102
 O      6   4   3     1.682356278379   171.61043709   328.33166207
 H     25   6   4     0.972136791249   103.79460456   289.35412162
 H     25   6   4     0.974050112161   105.61118924    38.30604821
 O      3   1   2     1.682356278379   171.61043709   195.73896161
 H     28   3   1     0.972136791249   103.79460456   289.35412162
 H     28   3   1     0.974050112161   105.61118924    38.30604821

---------------------------
INTERNAL COORDINATES (A.U.)
---------------------------
 O      0   0   0     0.000000000000     0.00000000     0.00000000
 H      1   0   0     1.817593168635     0.00000000     0.00000000
 H      1   2   0     1.880998097508   106.21731035     0.00000000
 O      3   1   2     6.577875492484   117.35405144   223.81249033
 H      4   3   1     1.817593168635   134.84484566    98.22461471
 H      4   3   1     1.880998097508    62.29205096    12.66575463
 O      4   3   1    10.710414605631    90.09768939   276.02472436
 H      7   4   3     1.837072300170    18.92045113   191.47242104
 H      7   4   3     1.840687952699    94.59568686    71.02022155
 O      3   1   2     6.329157649425   116.85538783   143.82107740
 H     10   3   1     1.838033029106   154.03893681   304.15813038
 H     10   3   1     1.858263389967    97.20424340    87.67157074
 O      6   4   3     6.329157649425   116.85538783   276.41377787
 H     13   6   4     1.858263389967    97.20424340    87.67157074
 H     13   6   4     1.838033029106   154.03893681   304.15813038
 O     14  13   6     3.373451738406   170.81379649   301.36914736
 H     16  14  13     1.838033029106   101.65007623   109.44492584
 H     16  14  13     1.858263389967    99.09581498     3.33484705
 O     12  10   3     3.373451738406   170.81379649   301.36914736
 H     19  12  10     1.838033029106   101.65007623   109.44492584
 H     19  12  10     1.858263389967    99.09581498     3.33484705
 O     16  14  13     5.380483365242    89.51229470   269.85728871
 H     22  16  14     1.837072300170    19.08819947   230.61896091
 H     22  16  14     1.840687952699    93.43428486   106.52268102
 O      6   4   3     3.179192625819   171.61043709   328.33166207
 H     25   6   4     1.837072300170   103.79460456   289.35412162
 H     25   6   4     1.840687952699   105.61118924    38.30604821
 O      3   1   2     3.179192625819   171.61043709   195.73896161
 H     28   3   1     1.837072300170   103.79460456   289.35412162
 H     28   3   1     1.840687952699   105.61118924    38.30604821

---------------------
BASIS SET INFORMATION
---------------------
There are 2 groups of distinct atoms

 Group   1 Type O   : 11s6p2d1f contracted to 5s3p2d1f pattern {62111/411/11/1}
 Group   2 Type H   : 5s1p contracted to 3s1p pattern {311/1}

Atom   0O    basis set group =>   1
Atom   1H    basis set group =>   2
Atom   2H    basis set group =>   2
Atom   3O    basis set group =>   1
Atom   4H    basis set group =>   2
Atom   5H    basis set group =>   2
Atom   6O    basis set group =>   1
Atom   7H    basis set group =>   2
Atom   8H    basis set group =>   2
Atom   9O    basis set group =>   1
Atom  10H    basis set group =>   2
Atom  11H    basis set group =>   2
Atom  12O    basis set group =>   1
Atom  13H    basis set group =>   2
Atom  14H    basis set group =>   2
Atom  15O    basis set group =>   1
Atom  16H    basis set group =>   2
Atom  17H    basis set group =>   2
Atom  18O    basis set group =>   1
Atom  19H    basis set group =>   2
Atom  20H    basis set group =>   2
Atom  21O    basis set group =>   1
Atom  22H    basis set group =>   2
Atom  23H    basis set group =>   2
Atom  24O    basis set group =>   1
Atom  25H    basis set group =>   2
Atom  26H    basis set group =>   2
Atom  27O    basis set group =>   1
Atom  28H    basis set group =>   2
Atom  29H    basis set group =>   2


           ************************************************************
           *        Program running with 6 parallel MPI-processes     *
           *              working on a common directory               *
           ************************************************************
------------------------------------------------------------------------------
                           ORCA GTO INTEGRAL CALCULATION
------------------------------------------------------------------------------

                         BASIS SET STATISTICS AND STARTUP INFO

 # of primitive gaussian shells          ...  320
 # of primitive gaussian functions       ...  620
 # of contracted shells                  ...  190
 # of contracted basis functions         ...  430
 Highest angular momentum                ...    3
 Maximum contraction depth               ...    6
 Integral package used                   ... LIBINT
 Integral threshhold            Thresh   ...  2.500e-11
 Primitive cut-off              TCut     ...  2.500e-12


------------------------------ INTEGRAL EVALUATION ----------------------------


 * One electron integrals 
 Pre-screening matrix                    ... done
 Shell pair data                         ... done (   0.004 sec)



           ************************************************************
           *        Program running with 6 parallel MPI-processes     *
           *              working on a common directory               *
           ************************************************************
-------------------------------------------------------------------------------
                                 ORCA SCF
-------------------------------------------------------------------------------

------------
SCF SETTINGS
------------
Hamiltonian:
 Ab initio Hamiltonian  Method          .... Hartree-Fock(GTOs)


General Settings:
 Integral files         IntName         .... 12h2o.su.etal.mol0,1,3,4,5,6,7,8,9,11-orca.engrad-mp2.def2tzvp.frozencore
 Hartree-Fock type      HFTyp           .... RHF
 Total Charge           Charge          ....    0
 Multiplicity           Mult            ....    1
 Number of Electrons    NEL             ....  100
 Basis Dimension        Dim             ....  430
 Nuclear Repulsion      ENuc            ....    722.8436415279 Eh

Convergence Acceleration:
 DIIS                   CNVDIIS         .... on
   Start iteration      DIISMaxIt       ....    12
   Startup error        DIISStart       ....  0.200000
   # of expansion vecs  DIISMaxEq       ....     5
   Bias factor          DIISBfac        ....   1.050
   Max. coefficient     DIISMaxC        ....  10.000
 Newton-Raphson         CNVNR           .... off
 SOSCF                  CNVSOSCF        .... on
   Start iteration      SOSCFMaxIt      ....   150
   Startup grad/error   SOSCFStart      ....  0.003300
 Level Shifting         CNVShift        .... on
   Level shift para.    LevelShift      ....    0.2500
   Turn off err/grad.   ShiftErr        ....    0.0010
 Zerner damping         CNVZerner       .... off
 Static damping         CNVDamp         .... on
   Fraction old density DampFac         ....    0.7000
   Max. Damping (<1)    DampMax         ....    0.9800
   Min. Damping (>=0)   DampMin         ....    0.0000
   Turn off err/grad.   DampErr         ....    0.1000
 Fernandez-Rico         CNVRico         .... off

SCF Procedure:
 Maximum # iterations   MaxIter         ....   125
 SCF integral mode      SCFMode         .... Direct
   Integral package                     .... LIBINT
 Reset frequency        DirectResetFreq ....    20
 Integral Threshold     Thresh          ....  2.500e-11 Eh
 Primitive CutOff       TCut            ....  2.500e-12 Eh

Convergence Tolerance:
 Convergence Check Mode ConvCheckMode   .... Total+1el-Energy
 Convergence forced     ConvForced      .... 1
 Energy Change          TolE            ....  1.000e-08 Eh
 1-El. energy change                    ....  1.000e-05 Eh
 Orbital Gradient       TolG            ....  1.000e-05
 Orbital Rotation angle TolX            ....  1.000e-05
 DIIS Error             TolErr          ....  5.000e-07


Diagonalization of the overlap matrix:
Smallest eigenvalue                        ... 2.608e-03
Time for diagonalization                   ...    0.025 sec
Threshold for overlap eigenvalues          ... 1.000e-08
Number of eigenvalues below threshold      ... 0
Time for construction of square roots      ...    0.013 sec
Total time needed                          ...    0.039 sec

-------------------
DFT GRID GENERATION
-------------------

General Integration Accuracy     IntAcc      ...  4.340
Radial Grid Type                 RadialGrid  ... Gauss-Chebyshev
Angular Grid (max. acc.)         AngularGrid ... Lebedev-110
Angular grid pruning method      GridPruning ... 3 (G Style)
Weight generation scheme         WeightScheme... Becke
Basis function cutoff            BFCut       ...    1.0000e-11
Integration weight cutoff        WCut        ...    1.0000e-14
Grids for H and He will be reduced by one unit

# of grid points (after initial pruning)     ...  33040 (   0.0 sec)
# of grid points (after weights+screening)   ...  30204 (   0.0 sec)
nearest neighbour list constructed           ...    0.0 sec
Grid point re-assignment to atoms done       ...    0.0 sec
Grid point division into batches done        ...    0.0 sec
Reduced shell lists constructed in    0.1 sec

Total number of grid points                  ...    30204
Total number of batches                      ...      488
Average number of points per batch           ...       61
Average number of grid points per atom       ...     1007
Average number of shells per batch           ...    85.65 (45.08%)
Average number of basis functions per batch  ...   168.49 (39.18%)
Average number of large shells per batch     ...    56.30 (65.73%)
Average number of large basis fcns per batch ...   106.81 (63.39%)
Maximum spatial batch extension              ...  13.20, 16.09, 11.85 au
Average spatial batch extension              ...   0.56,  0.64,  0.54 au

Time for grid setup =    0.129 sec

------------------------------
INITIAL GUESS: MODEL POTENTIAL
------------------------------
Loading Hartree-Fock densities                     ... done
Calculating cut-offs                               ... done
Setting up the integral package                    ... done
Initializing the effective Hamiltonian             ... done
Starting the Coulomb interaction                   ... done (   0.1 sec)
Reading the grid                                   ... done
Mapping shells                                     ... done
Starting the XC term evaluation                    ... done (   0.1 sec)
Transforming the Hamiltonian                       ... done (   0.0 sec)
Diagonalizing the Hamiltonian                      ... done (   0.0 sec)
Back transforming the eigenvectors                 ... done (   0.0 sec)
Now organizing SCF variables                       ... done
                      ------------------
                      INITIAL GUESS DONE (   0.4 sec)
                      ------------------
--------------
SCF ITERATIONS
--------------
ITER       Energy         Delta-E        Max-DP      RMS-DP      [F,P]     Damp
               ***  Starting incremental Fock matrix formation  ***
  0   -759.8540223691   0.000000000000 0.04347353  0.00072977  0.3416973 0.7000
  1   -760.1715877642  -0.317565395126 0.02874500  0.00050626  0.2162609 0.7000
                               ***Turning on DIIS***
  2   -760.3412153750  -0.169627610783 0.01624131  0.00028549  0.1636253 0.7000
  3   -761.9174670072  -1.576251632169 0.00723660  0.00013316  0.1217908 0.7000
  4   -761.5964764229   0.320990584250 0.01585293  0.00030806  0.0861038 0.0000
  5   -760.7246477986   0.871828624291 0.00219458  0.00004894  0.0049845 0.0000
                      *** Initiating the SOSCF procedure ***
                           *** Shutting down DIIS ***
                      *** Re-Reading the Fockian *** 
                      *** Removing any level shift *** 
ITER      Energy       Delta-E        Grad      Rot      Max-DP    RMS-DP
  6   -760.68023738   0.0444104184  0.000907  0.000907  0.001424  0.000030
               *** Restarting incremental Fock matrix formation ***
  7   -760.67007367   0.0101637104  0.000341  0.000525  0.000650  0.000013
  8   -760.67008729  -0.0000136212  0.000225  0.000429  0.000543  0.000012
  9   -760.67009073  -0.0000034341  0.000102  0.000070  0.000105  0.000002
 10   -760.67009101  -0.0000002817  0.000013  0.000008  0.000017  0.000000
                  ***Gradient check signals convergence***
              ***Rediagonalizing the Fockian in SOSCF/NRSCF***

               *****************************************************
               *                     SUCCESS                       *
               *           SCF CONVERGED AFTER  11 CYCLES          *
               *****************************************************


----------------
TOTAL SCF ENERGY
----------------

Total Energy       :         -760.67009101 Eh          -20698.88549 eV

Components:
Nuclear Repulsion  :          722.84364153 Eh           19669.57547 eV
Electronic Energy  :        -1483.51373254 Eh          -40368.46096 eV
One Electron Energy:        -2491.36197624 Eh          -67793.40592 eV
Two Electron Energy:         1007.84824370 Eh           27424.94497 eV

Virial components:
Potential Energy   :        -1520.46143502 Eh          -41373.85905 eV
Kinetic Energy     :          759.79134401 Eh           20674.97357 eV
Virial Ratio       :            2.00115656


---------------
SCF CONVERGENCE
---------------

  Last Energy change         ...   -7.3971e-09  Tolerance :   1.0000e-08
  Last MAX-Density change    ...    6.3833e-06  Tolerance :   1.0000e-07
  Last RMS-Density change    ...    1.2409e-07  Tolerance :   5.0000e-09
  Last Orbital Gradient      ...    2.3285e-06  Tolerance :   1.0000e-05
  Last Orbital Rotation      ...    2.9761e-06  Tolerance :   1.0000e-05

             **** THE GBW FILE WAS UPDATED (12h2o.su.etal.mol0,1,3,4,5,6,7,8,9,11-orca.engrad-mp2.def2tzvp.frozencore.gbw) ****
             **** DENSITY FILE WAS UPDATED (12h2o.su.etal.mol0,1,3,4,5,6,7,8,9,11-orca.engrad-mp2.def2tzvp.frozencore.scfp) ****
             **** ENERGY FILE WAS UPDATED (12h2o.su.etal.mol0,1,3,4,5,6,7,8,9,11-orca.engrad-mp2.def2tzvp.frozencore.en.tmp) ****
             **** THE GBW FILE WAS UPDATED (12h2o.su.etal.mol0,1,3,4,5,6,7,8,9,11-orca.engrad-mp2.def2tzvp.frozencore.gbw) ****
             **** DENSITY FILE WAS UPDATED (12h2o.su.etal.mol0,1,3,4,5,6,7,8,9,11-orca.engrad-mp2.def2tzvp.frozencore.scfp) ****
----------------
ORBITAL ENERGIES
----------------

  NO   OCC          E(Eh)            E(eV) 
   0   2.0000     -20.594317      -560.3999 
   1   2.0000     -20.594317      -560.3999 
   2   2.0000     -20.579384      -559.9935 
   3   2.0000     -20.579384      -559.9935 
   4   2.0000     -20.572946      -559.8183 
   5   2.0000     -20.572946      -559.8183 
   6   2.0000     -20.567200      -559.6620 
   7   2.0000     -20.567200      -559.6620 
   8   2.0000     -20.543867      -559.0270 
   9   2.0000     -20.543866      -559.0270 
  10   2.0000      -1.393746       -37.9258 
  11   2.0000      -1.383069       -37.6352 
  12   2.0000      -1.376776       -37.4640 
  13   2.0000      -1.372252       -37.3409 
  14   2.0000      -1.361143       -37.0386 
  15   2.0000      -1.357109       -36.9288 
  16   2.0000      -1.354370       -36.8543 
  17   2.0000      -1.343960       -36.5710 
  18   2.0000      -1.325680       -36.0736 
  19   2.0000      -1.324993       -36.0549 
  20   2.0000      -0.751033       -20.4366 
  21   2.0000      -0.747678       -20.3453 
  22   2.0000      -0.745370       -20.2825 
  23   2.0000      -0.744587       -20.2613 
  24   2.0000      -0.738011       -20.0823 
  25   2.0000      -0.734444       -19.9852 
  26   2.0000      -0.726910       -19.7802 
  27   2.0000      -0.720221       -19.5982 
  28   2.0000      -0.697167       -18.9709 
  29   2.0000      -0.693293       -18.8655 
  30   2.0000      -0.660565       -17.9749 
  31   2.0000      -0.635292       -17.2872 
  32   2.0000      -0.628469       -17.1015 
  33   2.0000      -0.624358       -16.9897 
  34   2.0000      -0.610279       -16.6065 
  35   2.0000      -0.602850       -16.4044 
  36   2.0000      -0.590610       -16.0713 
  37   2.0000      -0.571027       -15.5384 
  38   2.0000      -0.563741       -15.3402 
  39   2.0000      -0.556761       -15.1502 
  40   2.0000      -0.538435       -14.6516 
  41   2.0000      -0.537859       -14.6359 
  42   2.0000      -0.528920       -14.3926 
  43   2.0000      -0.526527       -14.3275 
  44   2.0000      -0.521834       -14.1998 
  45   2.0000      -0.520932       -14.1753 
  46   2.0000      -0.513481       -13.9725 
  47   2.0000      -0.513252       -13.9663 
  48   2.0000      -0.493347       -13.4246 
  49   2.0000      -0.487160       -13.2563 
  50   0.0000       0.092992         2.5304 
  51   0.0000       0.124280         3.3818 
  52   0.0000       0.128603         3.4995 
  53   0.0000       0.136275         3.7082 
  54   0.0000       0.189050         5.1443 
  55   0.0000       0.191216         5.2032 
  56   0.0000       0.216286         5.8854 
  57   0.0000       0.216399         5.8885 
  58   0.0000       0.230413         6.2699 
  59   0.0000       0.237119         6.4523 
  60   0.0000       0.287014         7.8100 
  61   0.0000       0.287071         7.8116 
  62   0.0000       0.289083         7.8664 
  63   0.0000       0.298652         8.1267 
  64   0.0000       0.302070         8.2198 
  65   0.0000       0.310774         8.4566 
  66   0.0000       0.333465         9.0741 
  67   0.0000       0.337451         9.1825 
  68   0.0000       0.337536         9.1848 
  69   0.0000       0.353829         9.6282 
  70   0.0000       0.388506        10.5718 
  71   0.0000       0.457997        12.4627 
  72   0.0000       0.468739        12.7550 
  73   0.0000       0.476603        12.9690 
  74   0.0000       0.478534        13.0216 
  75   0.0000       0.499175        13.5832 
  76   0.0000       0.500977        13.6323 
  77   0.0000       0.517018        14.0688 
  78   0.0000       0.522326        14.2132 
  79   0.0000       0.528240        14.3741 
  80   0.0000       0.530975        14.4486 
  81   0.0000       0.536271        14.5927 
  82   0.0000       0.544020        14.8035 
  83   0.0000       0.548181        14.9168 
  84   0.0000       0.552380        15.0310 
  85   0.0000       0.574781        15.6406 
  86   0.0000       0.580886        15.8067 
  87   0.0000       0.596829        16.2405 
  88   0.0000       0.603827        16.4310 
  89   0.0000       0.605391        16.4735 
  90   0.0000       0.629151        17.1201 
  91   0.0000       0.630186        17.1482 
  92   0.0000       0.639943        17.4137 
  93   0.0000       0.644022        17.5247 
  94   0.0000       0.686546        18.6819 
  95   0.0000       0.688128        18.7249 
  96   0.0000       0.704556        19.1720 
  97   0.0000       0.714874        19.4527 
  98   0.0000       0.718518        19.5519 
  99   0.0000       0.736314        20.0361 
 100   0.0000       0.737341        20.0641 
 101   0.0000       0.747129        20.3304 
 102   0.0000       0.756901        20.5963 
 103   0.0000       0.767305        20.8794 
 104   0.0000       0.779003        21.1978 
 105   0.0000       0.780525        21.2392 
 106   0.0000       0.801277        21.8039 
 107   0.0000       0.803708        21.8700 
 108   0.0000       0.823710        22.4143 
 109   0.0000       0.829674        22.5766 
 110   0.0000       0.834324        22.7031 
 111   0.0000       0.843956        22.9652 
 112   0.0000       0.853679        23.2298 
 113   0.0000       0.858834        23.3701 
 114   0.0000       0.863289        23.4913 
 115   0.0000       0.877365        23.8743 
 116   0.0000       0.908710        24.7273 
 117   0.0000       0.915234        24.9048 
 118   0.0000       0.925450        25.1828 
 119   0.0000       0.967213        26.3192 
 120   0.0000       0.984057        26.7776 
 121   0.0000       0.998297        27.1650 
 122   0.0000       1.008555        27.4442 
 123   0.0000       1.057320        28.7711 
 124   0.0000       1.065693        28.9990 
 125   0.0000       1.073427        29.2094 
 126   0.0000       1.104610        30.0580 
 127   0.0000       1.108954        30.1762 
 128   0.0000       1.169895        31.8345 
 129   0.0000       1.256036        34.1785 
 130   0.0000       1.324432        36.0396 
 131   0.0000       1.373308        37.3696 
 132   0.0000       1.373752        37.3817 
 133   0.0000       1.386957        37.7410 
 134   0.0000       1.394409        37.9438 
 135   0.0000       1.395452        37.9722 
 136   0.0000       1.404561        38.2201 
 137   0.0000       1.405631        38.2492 
 138   0.0000       1.419572        38.6285 
 139   0.0000       1.419686        38.6316 
 140   0.0000       1.427238        38.8371 
 141   0.0000       1.442410        39.2500 
 142   0.0000       1.464252        39.8443 
 143   0.0000       1.478351        40.2280 
 144   0.0000       1.491539        40.5868 
 145   0.0000       1.503004        40.8988 
 146   0.0000       1.510652        41.1069 
 147   0.0000       1.529080        41.6084 
 148   0.0000       1.531207        41.6663 
 149   0.0000       1.550839        42.2005 
 150   0.0000       1.555658        42.3316 
 151   0.0000       1.577396        42.9231 
 152   0.0000       1.577625        42.9294 
 153   0.0000       1.581724        43.0409 
 154   0.0000       1.592582        43.3364 
 155   0.0000       1.598104        43.4866 
 156   0.0000       1.617504        44.0145 
 157   0.0000       1.625456        44.2309 
 158   0.0000       1.634748        44.4838 
 159   0.0000       1.650835        44.9215 
 160   0.0000       1.818443        49.4823 
 161   0.0000       1.836041        49.9612 
 162   0.0000       1.845839        50.2278 
 163   0.0000       1.858082        50.5610 
 164   0.0000       1.865371        50.7593 
 165   0.0000       1.890415        51.4408 
 166   0.0000       1.894420        51.5498 
 167   0.0000       1.901992        51.7558 
 168   0.0000       1.919520        52.2328 
 169   0.0000       1.920472        52.2587 
 170   0.0000       1.952825        53.1391 
 171   0.0000       1.970635        53.6237 
 172   0.0000       1.978565        53.8395 
 173   0.0000       1.986682        54.0604 
 174   0.0000       1.990526        54.1650 
 175   0.0000       2.003099        54.5071 
 176   0.0000       2.006496        54.5995 
 177   0.0000       2.019546        54.9546 
 178   0.0000       2.024049        55.0772 
 179   0.0000       2.062635        56.1272 
 180   0.0000       2.063165        56.1416 
 181   0.0000       2.104912        57.2776 
 182   0.0000       2.112446        57.4826 
 183   0.0000       2.131656        58.0053 
 184   0.0000       2.134156        58.0733 
 185   0.0000       2.159632        58.7666 
 186   0.0000       2.175440        59.1967 
 187   0.0000       2.191959        59.6462 
 188   0.0000       2.201528        59.9066 
 189   0.0000       2.206438        60.0402 
 190   0.0000       2.239586        60.9422 
 191   0.0000       2.240775        60.9746 
 192   0.0000       2.248207        61.1768 
 193   0.0000       2.285312        62.1865 
 194   0.0000       2.302903        62.6652 
 195   0.0000       2.313700        62.9590 
 196   0.0000       2.331455        63.4421 
 197   0.0000       2.340617        63.6914 
 198   0.0000       2.344735        63.8035 
 199   0.0000       2.346902        63.8625 
 200   0.0000       2.353630        64.0455 
 201   0.0000       2.366914        64.4070 
 202   0.0000       2.368560        64.4518 
 203   0.0000       2.390356        65.0449 
 204   0.0000       2.390942        65.0608 
 205   0.0000       2.413329        65.6700 
 206   0.0000       2.415539        65.7301 
 207   0.0000       2.425622        66.0045 
 208   0.0000       2.441782        66.4443 
 209   0.0000       2.464293        67.0568 
 210   0.0000       2.484375        67.6033 
 211   0.0000       2.490467        67.7691 
 212   0.0000       2.523257        68.6613 
 213   0.0000       2.523312        68.6628 
 214   0.0000       2.558746        69.6270 
 215   0.0000       2.561915        69.7133 
 216   0.0000       2.564796        69.7917 
 217   0.0000       2.567807        69.8736 
 218   0.0000       2.602050        70.8054 
 219   0.0000       2.610974        71.0482 
 220   0.0000       2.615241        71.1643 
 221   0.0000       2.628917        71.5365 
 222   0.0000       2.634264        71.6820 
 223   0.0000       2.634475        71.6877 
 224   0.0000       2.641276        71.8728 
 225   0.0000       2.641694        71.8841 
 226   0.0000       2.658204        72.3334 
 227   0.0000       2.665374        72.5285 
 228   0.0000       2.672995        72.7359 
 229   0.0000       2.680778        72.9477 
 230   0.0000       2.713277        73.8320 
 231   0.0000       2.718403        73.9715 
 232   0.0000       2.726261        74.1853 
 233   0.0000       2.732142        74.3454 
 234   0.0000       2.733180        74.3736 
 235   0.0000       2.780034        75.6486 
 236   0.0000       2.793296        76.0094 
 237   0.0000       2.802085        76.2486 
 238   0.0000       2.809279        76.4444 
 239   0.0000       2.859526        77.8117 
 240   0.0000       2.899459        78.8983 
 241   0.0000       2.910546        79.2000 
 242   0.0000       2.948114        80.2223 
 243   0.0000       2.964889        80.6787 
 244   0.0000       2.967719        80.7558 
 245   0.0000       2.982182        81.1493 
 246   0.0000       2.985031        81.2268 
 247   0.0000       2.996953        81.5513 
 248   0.0000       3.007768        81.8455 
 249   0.0000       3.017623        82.1137 
 250   0.0000       3.028927        82.4213 
 251   0.0000       3.035919        82.6116 
 252   0.0000       3.043512        82.8182 
 253   0.0000       3.057812        83.2073 
 254   0.0000       3.065815        83.4251 
 255   0.0000       3.084026        83.9206 
 256   0.0000       3.106605        84.5350 
 257   0.0000       3.127238        85.0965 
 258   0.0000       3.128194        85.1225 
 259   0.0000       3.153149        85.8015 
 260   0.0000       3.194664        86.9312 
 261   0.0000       3.195885        86.9645 
 262   0.0000       3.201244        87.1103 
 263   0.0000       3.238938        88.1360 
 264   0.0000       3.242663        88.2374 
 265   0.0000       3.255508        88.5869 
 266   0.0000       3.257284        88.6352 
 267   0.0000       3.281712        89.2999 
 268   0.0000       3.286109        89.4196 
 269   0.0000       3.312102        90.1269 
 270   0.0000       3.312433        90.1359 
 271   0.0000       3.352175        91.2173 
 272   0.0000       3.375806        91.8604 
 273   0.0000       3.380604        91.9909 
 274   0.0000       3.436707        93.5176 
 275   0.0000       3.454773        94.0091 
 276   0.0000       3.493871        95.0731 
 277   0.0000       3.496484        95.1442 
 278   0.0000       3.551571        96.6432 
 279   0.0000       3.572161        97.2034 
 280   0.0000       4.035670       109.8162 
 281   0.0000       4.063935       110.5853 
 282   0.0000       4.070017       110.7508 
 283   0.0000       4.083746       111.1244 
 284   0.0000       4.099830       111.5620 
 285   0.0000       4.118444       112.0686 
 286   0.0000       4.131083       112.4125 
 287   0.0000       4.131605       112.4267 
 288   0.0000       4.152586       112.9976 
 289   0.0000       4.217410       114.7616 
 290   0.0000       4.304673       117.1361 
 291   0.0000       4.314916       117.4148 
 292   0.0000       4.320061       117.5548 
 293   0.0000       4.331156       117.8567 
 294   0.0000       4.334902       117.9587 
 295   0.0000       4.337033       118.0167 
 296   0.0000       4.352162       118.4283 
 297   0.0000       4.363927       118.7485 
 298   0.0000       4.381177       119.2179 
 299   0.0000       4.397634       119.6657 
 300   0.0000       5.507135       149.8568 
 301   0.0000       5.507974       149.8796 
 302   0.0000       5.523845       150.3115 
 303   0.0000       5.524008       150.3159 
 304   0.0000       5.527579       150.4131 
 305   0.0000       5.529143       150.4556 
 306   0.0000       5.532255       150.5403 
 307   0.0000       5.533329       150.5695 
 308   0.0000       5.563766       151.3978 
 309   0.0000       5.563845       151.3999 
 310   0.0000       5.617627       152.8634 
 311   0.0000       5.624167       153.0414 
 312   0.0000       5.635381       153.3465 
 313   0.0000       5.639582       153.4608 
 314   0.0000       5.661654       154.0614 
 315   0.0000       5.665060       154.1541 
 316   0.0000       5.669368       154.2713 
 317   0.0000       5.669815       154.2835 
 318   0.0000       5.680727       154.5804 
 319   0.0000       5.683762       154.6630 
 320   0.0000       5.784125       157.3940 
 321   0.0000       5.790279       157.5615 
 322   0.0000       5.791975       157.6077 
 323   0.0000       5.796938       157.7427 
 324   0.0000       5.807277       158.0240 
 325   0.0000       5.808324       158.0525 
 326   0.0000       5.815195       158.2395 
 327   0.0000       5.816193       158.2667 
 328   0.0000       5.824660       158.4971 
 329   0.0000       5.830264       158.6496 
 330   0.0000       5.838506       158.8738 
 331   0.0000       5.840909       158.9392 
 332   0.0000       5.844845       159.0463 
 333   0.0000       5.846774       159.0988 
 334   0.0000       5.854843       159.3184 
 335   0.0000       5.857338       159.3863 
 336   0.0000       5.860845       159.4817 
 337   0.0000       5.864974       159.5941 
 338   0.0000       5.873701       159.8315 
 339   0.0000       5.878844       159.9715 
 340   0.0000       5.881477       160.0431 
 341   0.0000       5.884134       160.1154 
 342   0.0000       5.892711       160.3488 
 343   0.0000       5.896055       160.4398 
 344   0.0000       5.896828       160.4608 
 345   0.0000       5.901311       160.5828 
 346   0.0000       5.908262       160.7720 
 347   0.0000       5.918424       161.0485 
 348   0.0000       5.922342       161.1551 
 349   0.0000       5.923543       161.1878 
 350   0.0000       6.444452       175.3625 
 351   0.0000       6.444909       175.3749 
 352   0.0000       6.458027       175.7318 
 353   0.0000       6.459444       175.7704 
 354   0.0000       6.462954       175.8659 
 355   0.0000       6.467063       175.9777 
 356   0.0000       6.489688       176.5934 
 357   0.0000       6.490648       176.6195 
 358   0.0000       6.507243       177.0711 
 359   0.0000       6.513253       177.2346 
 360   0.0000       6.619513       180.1261 
 361   0.0000       6.660660       181.2458 
 362   0.0000       6.687513       181.9765 
 363   0.0000       6.702431       182.3824 
 364   0.0000       6.703351       182.4075 
 365   0.0000       6.714213       182.7030 
 366   0.0000       6.738102       183.3531 
 367   0.0000       6.744617       183.5303 
 368   0.0000       6.750131       183.6804 
 369   0.0000       6.782805       184.5695 
 370   0.0000       6.821491       185.6222 
 371   0.0000       6.838539       186.0861 
 372   0.0000       6.841978       186.1797 
 373   0.0000       6.851696       186.4441 
 374   0.0000       6.853548       186.4945 
 375   0.0000       6.859993       186.6699 
 376   0.0000       6.868116       186.8909 
 377   0.0000       6.873213       187.0296 
 378   0.0000       6.883916       187.3209 
 379   0.0000       6.884036       187.3242 
 380   0.0000       6.890413       187.4977 
 381   0.0000       6.894868       187.6189 
 382   0.0000       6.904643       187.8849 
 383   0.0000       6.908477       187.9892 
 384   0.0000       6.915041       188.1678 
 385   0.0000       6.925766       188.4597 
 386   0.0000       6.935423       188.7224 
 387   0.0000       6.944092       188.9584 
 388   0.0000       6.954907       189.2526 
 389   0.0000       6.959601       189.3804 
 390   0.0000       6.971839       189.7134 
 391   0.0000       6.973549       189.7599 
 392   0.0000       6.982948       190.0157 
 393   0.0000       6.986999       190.1259 
 394   0.0000       7.025201       191.1654 
 395   0.0000       7.030428       191.3077 
 396   0.0000       7.064365       192.2311 
 397   0.0000       7.082438       192.7229 
 398   0.0000       7.105892       193.3611 
 399   0.0000       7.135418       194.1646 
 400   0.0000       7.331346       199.4961 
 401   0.0000       7.379347       200.8022 
 402   0.0000       7.384502       200.9425 
 403   0.0000       7.395755       201.2487 
 404   0.0000       7.424505       202.0310 
 405   0.0000       7.435596       202.3329 
 406   0.0000       7.467667       203.2056 
 407   0.0000       7.484172       203.6547 
 408   0.0000       7.484711       203.6693 
 409   0.0000       7.516365       204.5307 
 410   0.0000       7.549081       205.4209 
 411   0.0000       7.556508       205.6230 
 412   0.0000       7.560953       205.7440 
 413   0.0000       7.560980       205.7447 
 414   0.0000       7.576649       206.1711 
 415   0.0000       7.582842       206.3396 
 416   0.0000       7.587903       206.4773 
 417   0.0000       7.590068       206.5363 
 418   0.0000       7.620443       207.3628 
 419   0.0000       7.638486       207.8538 
 420   0.0000      44.919784      1222.3295 
 421   0.0000      44.954745      1223.2808 
 422   0.0000      44.996791      1224.4249 
 423   0.0000      45.004742      1224.6413 
 424   0.0000      45.014886      1224.9173 
 425   0.0000      45.040612      1225.6174 
 426   0.0000      45.095293      1227.1053 
 427   0.0000      45.106068      1227.3985 
 428   0.0000      45.120673      1227.7959 
 429   0.0000      45.257854      1231.5288 

                    ********************************
                    * MULLIKEN POPULATION ANALYSIS *
                    ********************************

-----------------------
MULLIKEN ATOMIC CHARGES
-----------------------
   0 O :   -0.804351
   1 H :    0.365613
   2 H :    0.418121
   3 O :   -0.804351
   4 H :    0.365613
   5 H :    0.418121
   6 O :   -0.725290
   7 H :    0.389772
   8 H :    0.334228
   9 O :   -0.788095
  10 H :    0.374690
  11 H :    0.411570
  12 O :   -0.788095
  13 H :    0.411570
  14 H :    0.374690
  15 O :   -0.803918
  16 H :    0.408847
  17 H :    0.387192
  18 O :   -0.803918
  19 H :    0.408847
  20 H :    0.387192
  21 O :   -0.725290
  22 H :    0.389772
  23 H :    0.334228
  24 O :   -0.765569
  25 H :    0.403295
  26 H :    0.393895
  27 O :   -0.765569
  28 H :    0.403295
  29 H :    0.393895
Sum of atomic charges:    0.0000000

--------------------------------
MULLIKEN REDUCED ORBITAL CHARGES
--------------------------------
  0 O s       :     3.806195  s :     3.806195
      pz      :     1.727253  p :     4.975220
      px      :     1.450550
      py      :     1.797417
      dz2     :     0.003522  d :     0.021559
      dxz     :     0.004345
      dyz     :     0.004904
      dx2y2   :     0.002179
      dxy     :     0.006609
      f0      :     0.000080  f :     0.001377
      f+1     :     0.000313
      f-1     :     0.000169
      f+2     :     0.000061
      f-2     :     0.000346
      f+3     :     0.000081
      f-3     :     0.000327
  1 H s       :     0.589160  s :     0.589160
      pz      :     0.016879  p :     0.045227
      px      :     0.013662
      py      :     0.014686
  2 H s       :     0.526162  s :     0.526162
      pz      :     0.009672  p :     0.055717
      px      :     0.033095
      py      :     0.012950
  3 O s       :     3.806195  s :     3.806195
      pz      :     1.727253  p :     4.975220
      px      :     1.450550
      py      :     1.797417
      dz2     :     0.003522  d :     0.021559
      dxz     :     0.004345
      dyz     :     0.004904
      dx2y2   :     0.002179
      dxy     :     0.006609
      f0      :     0.000080  f :     0.001377
      f+1     :     0.000313
      f-1     :     0.000169
      f+2     :     0.000061
      f-2     :     0.000346
      f+3     :     0.000081
      f-3     :     0.000327
  4 H s       :     0.589160  s :     0.589160
      pz      :     0.016879  p :     0.045227
      px      :     0.013662
      py      :     0.014686
  5 H s       :     0.526162  s :     0.526162
      pz      :     0.009672  p :     0.055717
      px      :     0.033095
      py      :     0.012950
  6 O s       :     3.812215  s :     3.812215
      pz      :     1.555565  p :     4.886046
      px      :     1.518806
      py      :     1.811675
      dz2     :     0.011724  d :     0.025547
      dxz     :     0.001238
      dyz     :     0.002964
      dx2y2   :     0.002125
      dxy     :     0.007496
      f0      :     0.000247  f :     0.001482
      f+1     :     0.000374
      f-1     :     0.000164
      f+2     :     0.000055
      f-2     :     0.000055
      f+3     :     0.000069
      f-3     :     0.000518
  7 H s       :     0.561341  s :     0.561341
      pz      :     0.024503  p :     0.048887
      px      :     0.011497
      py      :     0.012887
  8 H s       :     0.620890  s :     0.620890
      pz      :     0.011011  p :     0.044882
      px      :     0.018020
      py      :     0.015851
  9 O s       :     3.801945  s :     3.801945
      pz      :     1.569789  p :     4.962074
      px      :     1.850978
      py      :     1.541306
      dz2     :     0.010637  d :     0.022722
      dxz     :     0.001893
      dyz     :     0.002593
      dx2y2   :     0.003143
      dxy     :     0.004456
      f0      :     0.000189  f :     0.001354
      f+1     :     0.000111
      f-1     :     0.000445
      f+2     :     0.000068
      f-2     :     0.000037
      f+3     :     0.000410
      f-3     :     0.000094
 10 H s       :     0.581469  s :     0.581469
      pz      :     0.019005  p :     0.043841
      px      :     0.013233
      py      :     0.011603
 11 H s       :     0.536117  s :     0.536117
      pz      :     0.008345  p :     0.052313
      px      :     0.014213
      py      :     0.029755
 12 O s       :     3.801945  s :     3.801945
      pz      :     1.569789  p :     4.962074
      px      :     1.850978
      py      :     1.541306
      dz2     :     0.010637  d :     0.022722
      dxz     :     0.001893
      dyz     :     0.002593
      dx2y2   :     0.003143
      dxy     :     0.004456
      f0      :     0.000189  f :     0.001354
      f+1     :     0.000111
      f-1     :     0.000445
      f+2     :     0.000068
      f-2     :     0.000037
      f+3     :     0.000410
      f-3     :     0.000094
 13 H s       :     0.536117  s :     0.536117
      pz      :     0.008345  p :     0.052313
      px      :     0.014213
      py      :     0.029755
 14 H s       :     0.581469  s :     0.581469
      pz      :     0.019005  p :     0.043841
      px      :     0.013233
      py      :     0.011603
 15 O s       :     3.800100  s :     3.800100
      pz      :     1.616522  p :     4.980359
      px      :     1.521592
      py      :     1.842245
      dz2     :     0.010153  d :     0.022162
      dxz     :     0.002467
      dyz     :     0.001857
      dx2y2   :     0.003172
      dxy     :     0.004513
      f0      :     0.000164  f :     0.001297
      f+1     :     0.000431
      f-1     :     0.000103
      f+2     :     0.000066
      f-2     :     0.000035
      f+3     :     0.000093
      f-3     :     0.000406
 16 H s       :     0.542701  s :     0.542701
      pz      :     0.025192  p :     0.048452
      px      :     0.010969
      py      :     0.012290
 17 H s       :     0.560084  s :     0.560084
      pz      :     0.008888  p :     0.052724
      px      :     0.029193
      py      :     0.014643
 18 O s       :     3.800100  s :     3.800100
      pz      :     1.616522  p :     4.980359
      px      :     1.521592
      py      :     1.842245
      dz2     :     0.010153  d :     0.022162
      dxz     :     0.002467
      dyz     :     0.001857
      dx2y2   :     0.003172
      dxy     :     0.004513
      f0      :     0.000164  f :     0.001297
      f+1     :     0.000431
      f-1     :     0.000103
      f+2     :     0.000066
      f-2     :     0.000035
      f+3     :     0.000093
      f-3     :     0.000406
 19 H s       :     0.542701  s :     0.542701
      pz      :     0.025192  p :     0.048452
      px      :     0.010969
      py      :     0.012290
 20 H s       :     0.560084  s :     0.560084
      pz      :     0.008888  p :     0.052724
      px      :     0.029193
      py      :     0.014643
 21 O s       :     3.812215  s :     3.812215
      pz      :     1.555565  p :     4.886046
      px      :     1.518806
      py      :     1.811675
      dz2     :     0.011724  d :     0.025547
      dxz     :     0.001238
      dyz     :     0.002964
      dx2y2   :     0.002125
      dxy     :     0.007496
      f0      :     0.000247  f :     0.001482
      f+1     :     0.000374
      f-1     :     0.000164
      f+2     :     0.000055
      f-2     :     0.000055
      f+3     :     0.000069
      f-3     :     0.000518
 22 H s       :     0.561341  s :     0.561341
      pz      :     0.024503  p :     0.048887
      px      :     0.011497
      py      :     0.012887
 23 H s       :     0.620890  s :     0.620890
      pz      :     0.011011  p :     0.044882
      px      :     0.018020
      py      :     0.015851
 24 O s       :     3.793519  s :     3.793519
      pz      :     1.570819  p :     4.946697
      px      :     1.782795
      py      :     1.593083
      dz2     :     0.011811  d :     0.024017
      dxz     :     0.002179
      dyz     :     0.001228
      dx2y2   :     0.002308
      dxy     :     0.006491
      f0      :     0.000229  f :     0.001336
      f+1     :     0.000147
      f-1     :     0.000376
      f+2     :     0.000050
      f-2     :     0.000054
      f+3     :     0.000436
      f-3     :     0.000045
 25 H s       :     0.548966  s :     0.548966
      pz      :     0.024551  p :     0.047739
      px      :     0.012068
      py      :     0.011120
 26 H s       :     0.556552  s :     0.556552
      pz      :     0.009729  p :     0.049553
      px      :     0.015529
      py      :     0.024295
 27 O s       :     3.793519  s :     3.793519
      pz      :     1.570819  p :     4.946697
      px      :     1.782795
      py      :     1.593083
      dz2     :     0.011811  d :     0.024017
      dxz     :     0.002179
      dyz     :     0.001228
      dx2y2   :     0.002308
      dxy     :     0.006491
      f0      :     0.000229  f :     0.001336
      f+1     :     0.000147
      f-1     :     0.000376
      f+2     :     0.000050
      f-2     :     0.000054
      f+3     :     0.000436
      f-3     :     0.000045
 28 H s       :     0.548966  s :     0.548966
      pz      :     0.024551  p :     0.047739
      px      :     0.012068
      py      :     0.011120
 29 H s       :     0.556552  s :     0.556552
      pz      :     0.009729  p :     0.049553
      px      :     0.015529
      py      :     0.024295


                     *******************************
                     * LOEWDIN POPULATION ANALYSIS *
                     *******************************

----------------------
LOEWDIN ATOMIC CHARGES
----------------------
   0 O :   -0.329447
   1 H :    0.161171
   2 H :    0.157666
   3 O :   -0.329447
   4 H :    0.161171
   5 H :    0.157666
   6 O :   -0.342407
   7 H :    0.155969
   8 H :    0.157909
   9 O :   -0.308601
  10 H :    0.172716
  11 H :    0.158401
  12 O :   -0.308601
  13 H :    0.158401
  14 H :    0.172716
  15 O :   -0.315529
  16 H :    0.160354
  17 H :    0.150259
  18 O :   -0.315529
  19 H :    0.160354
  20 H :    0.150259
  21 O :   -0.342407
  22 H :    0.155969
  23 H :    0.157909
  24 O :   -0.297775
  25 H :    0.161591
  26 H :    0.157724
  27 O :   -0.297775
  28 H :    0.161591
  29 H :    0.157724

-------------------------------
LOEWDIN REDUCED ORBITAL CHARGES
-------------------------------
  0 O s       :     3.453585  s :     3.453585
      pz      :     1.683437  p :     4.846127
      px      :     1.410982
      py      :     1.751709
      dz2     :     0.004536  d :     0.027807
      dxz     :     0.006532
      dyz     :     0.004972
      dx2y2   :     0.003562
      dxy     :     0.008204
      f0      :     0.000083  f :     0.001928
      f+1     :     0.000423
      f-1     :     0.000255
      f+2     :     0.000031
      f-2     :     0.000603
      f+3     :     0.000083
      f-3     :     0.000449
  1 H s       :     0.673284  s :     0.673284
      pz      :     0.066102  p :     0.165545
      px      :     0.046415
      py      :     0.053028
  2 H s       :     0.642237  s :     0.642237
      pz      :     0.033081  p :     0.200097
      px      :     0.119295
      py      :     0.047721
  3 O s       :     3.453585  s :     3.453585
      pz      :     1.683437  p :     4.846127
      px      :     1.410982
      py      :     1.751709
      dz2     :     0.004536  d :     0.027807
      dxz     :     0.006532
      dyz     :     0.004972
      dx2y2   :     0.003562
      dxy     :     0.008204
      f0      :     0.000083  f :     0.001928
      f+1     :     0.000423
      f-1     :     0.000255
      f+2     :     0.000031
      f-2     :     0.000603
      f+3     :     0.000083
      f-3     :     0.000449
  4 H s       :     0.673284  s :     0.673284
      pz      :     0.066102  p :     0.165545
      px      :     0.046415
      py      :     0.053028
  5 H s       :     0.642237  s :     0.642237
      pz      :     0.033081  p :     0.200097
      px      :     0.119295
      py      :     0.047721
  6 O s       :     3.467025  s :     3.467025
      pz      :     1.536841  p :     4.841212
      px      :     1.519863
      py      :     1.784507
      dz2     :     0.015406  d :     0.032046
      dxz     :     0.001855
      dyz     :     0.002290
      dx2y2   :     0.002416
      dxy     :     0.010079
      f0      :     0.000436  f :     0.002125
      f+1     :     0.000562
      f-1     :     0.000316
      f+2     :     0.000024
      f-2     :     0.000045
      f+3     :     0.000003
      f-3     :     0.000740
  7 H s       :     0.672827  s :     0.672827
      pz      :     0.093485  p :     0.171205
      px      :     0.035841
      py      :     0.041879
  8 H s       :     0.684662  s :     0.684662
      pz      :     0.031445  p :     0.157429
      px      :     0.071206
      py      :     0.054778
  9 O s       :     3.453306  s :     3.453306
      pz      :     1.536475  p :     4.824102
      px      :     1.790285
      py      :     1.497341
      dz2     :     0.014369  d :     0.029241
      dxz     :     0.001189
      dyz     :     0.003944
      dx2y2   :     0.004482
      dxy     :     0.005258
      f0      :     0.000378  f :     0.001952
      f+1     :     0.000191
      f-1     :     0.000722
      f+2     :     0.000038
      f-2     :     0.000047
      f+3     :     0.000513
      f-3     :     0.000064
 10 H s       :     0.667133  s :     0.667133
      pz      :     0.080041  p :     0.160151
      px      :     0.042940
      py      :     0.037169
 11 H s       :     0.652158  s :     0.652158
      pz      :     0.028882  p :     0.189441
      px      :     0.052642
      py      :     0.107917
 12 O s       :     3.453306  s :     3.453306
      pz      :     1.536475  p :     4.824102
      px      :     1.790285
      py      :     1.497341
      dz2     :     0.014369  d :     0.029241
      dxz     :     0.001189
      dyz     :     0.003944
      dx2y2   :     0.004482
      dxy     :     0.005258
      f0      :     0.000378  f :     0.001952
      f+1     :     0.000191
      f-1     :     0.000722
      f+2     :     0.000038
      f-2     :     0.000047
      f+3     :     0.000513
      f-3     :     0.000064
 13 H s       :     0.652158  s :     0.652158
      pz      :     0.028882  p :     0.189441
      px      :     0.052642
      py      :     0.107917
 14 H s       :     0.667133  s :     0.667133
      pz      :     0.080041  p :     0.160151
      px      :     0.042940
      py      :     0.037169
 15 O s       :     3.448657  s :     3.448657
      pz      :     1.563957  p :     4.836895
      px      :     1.489028
      py      :     1.783910
      dz2     :     0.013360  d :     0.028109
      dxz     :     0.003465
      dyz     :     0.001111
      dx2y2   :     0.004663
      dxy     :     0.005511
      f0      :     0.000331  f :     0.001868
      f+1     :     0.000680
      f-1     :     0.000184
      f+2     :     0.000034
      f-2     :     0.000043
      f+3     :     0.000065
      f-3     :     0.000531
 16 H s       :     0.664708  s :     0.664708
      pz      :     0.095206  p :     0.174938
      px      :     0.037381
      py      :     0.042351
 17 H s       :     0.661605  s :     0.661605
      pz      :     0.030641  p :     0.188136
      px      :     0.104871
      py      :     0.052623
 18 O s       :     3.448657  s :     3.448657
      pz      :     1.563957  p :     4.836895
      px      :     1.489028
      py      :     1.783910
      dz2     :     0.013360  d :     0.028109
      dxz     :     0.003465
      dyz     :     0.001111
      dx2y2   :     0.004663
      dxy     :     0.005511
      f0      :     0.000331  f :     0.001868
      f+1     :     0.000680
      f-1     :     0.000184
      f+2     :     0.000034
      f-2     :     0.000043
      f+3     :     0.000065
      f-3     :     0.000531
 19 H s       :     0.664708  s :     0.664708
      pz      :     0.095206  p :     0.174938
      px      :     0.037381
      py      :     0.042351
 20 H s       :     0.661605  s :     0.661605
      pz      :     0.030641  p :     0.188136
      px      :     0.104871
      py      :     0.052623
 21 O s       :     3.467025  s :     3.467025
      pz      :     1.536841  p :     4.841212
      px      :     1.519863
      py      :     1.784507
      dz2     :     0.015406  d :     0.032046
      dxz     :     0.001855
      dyz     :     0.002290
      dx2y2   :     0.002416
      dxy     :     0.010079
      f0      :     0.000436  f :     0.002125
      f+1     :     0.000562
      f-1     :     0.000316
      f+2     :     0.000024
      f-2     :     0.000045
      f+3     :     0.000003
      f-3     :     0.000740
 22 H s       :     0.672827  s :     0.672827
      pz      :     0.093485  p :     0.171205
      px      :     0.035841
      py      :     0.041879
 23 H s       :     0.684662  s :     0.684662
      pz      :     0.031445  p :     0.157429
      px      :     0.071206
      py      :     0.054778
 24 O s       :     3.445502  s :     3.445502
      pz      :     1.541086  p :     4.820677
      px      :     1.725616
      py      :     1.553975
      dz2     :     0.014856  d :     0.029606
      dxz     :     0.001656
      dyz     :     0.001809
      dx2y2   :     0.003359
      dxy     :     0.007927
      f0      :     0.000418  f :     0.001990
      f+1     :     0.000316
      f-1     :     0.000537
      f+2     :     0.000019
      f-2     :     0.000049
      f+3     :     0.000627
      f-3     :     0.000025
 25 H s       :     0.666416  s :     0.666416
      pz      :     0.093295  p :     0.171993
      px      :     0.041571
      py      :     0.037127
 26 H s       :     0.666389  s :     0.666389
      pz      :     0.030933  p :     0.175887
      px      :     0.057865
      py      :     0.087089
 27 O s       :     3.445502  s :     3.445502
      pz      :     1.541086  p :     4.820677
      px      :     1.725616
      py      :     1.553975
      dz2     :     0.014856  d :     0.029606
      dxz     :     0.001656
      dyz     :     0.001809
      dx2y2   :     0.003359
      dxy     :     0.007927
      f0      :     0.000418  f :     0.001990
      f+1     :     0.000316
      f-1     :     0.000537
      f+2     :     0.000019
      f-2     :     0.000049
      f+3     :     0.000627
      f-3     :     0.000025
 28 H s       :     0.666416  s :     0.666416
      pz      :     0.093295  p :     0.171993
      px      :     0.041571
      py      :     0.037127
 29 H s       :     0.666389  s :     0.666389
      pz      :     0.030933  p :     0.175887
      px      :     0.057865
      py      :     0.087089


                      *****************************
                      * MAYER POPULATION ANALYSIS *
                      *****************************

  NA   - Mulliken gross atomic population
  ZA   - Total nuclear charge
  QA   - Mulliken gross atomic charge
  VA   - Mayer's total valence
  BVA  - Mayer's bonded valence
  FA   - Mayer's free valence

  ATOM       NA         ZA         QA         VA         BVA        FA
  0 O      8.8044     8.0000    -0.8044     1.6645     1.6645     0.0000
  1 H      0.6344     1.0000     0.3656     0.8841     0.8841    -0.0000
  2 H      0.5819     1.0000     0.4181     0.8659     0.8659     0.0000
  3 O      8.8044     8.0000    -0.8044     1.6645     1.6645    -0.0000
  4 H      0.6344     1.0000     0.3656     0.8841     0.8841    -0.0000
  5 H      0.5819     1.0000     0.4181     0.8659     0.8659    -0.0000
  6 O      8.7253     8.0000    -0.7253     1.7584     1.7584    -0.0000
  7 H      0.6102     1.0000     0.3898     0.8724     0.8724     0.0000
  8 H      0.6658     1.0000     0.3342     0.9071     0.9071    -0.0000
  9 O      8.7881     8.0000    -0.7881     1.6888     1.6888     0.0000
 10 H      0.6253     1.0000     0.3747     0.8787     0.8787    -0.0000
 11 H      0.5884     1.0000     0.4116     0.8724     0.8724    -0.0000
 12 O      8.7881     8.0000    -0.7881     1.6888     1.6888     0.0000
 13 H      0.5884     1.0000     0.4116     0.8724     0.8724     0.0000
 14 H      0.6253     1.0000     0.3747     0.8787     0.8787    -0.0000
 15 O      8.8039     8.0000    -0.8039     1.6707     1.6707     0.0000
 16 H      0.5912     1.0000     0.4088     0.8661     0.8661     0.0000
 17 H      0.6128     1.0000     0.3872     0.8939     0.8939     0.0000
 18 O      8.8039     8.0000    -0.8039     1.6707     1.6707    -0.0000
 19 H      0.5912     1.0000     0.4088     0.8661     0.8661     0.0000
 20 H      0.6128     1.0000     0.3872     0.8939     0.8939    -0.0000
 21 O      8.7253     8.0000    -0.7253     1.7584     1.7584     0.0000
 22 H      0.6102     1.0000     0.3898     0.8724     0.8724     0.0000
 23 H      0.6658     1.0000     0.3342     0.9071     0.9071     0.0000
 24 O      8.7656     8.0000    -0.7656     1.7306     1.7306    -0.0000
 25 H      0.5967     1.0000     0.4033     0.8602     0.8602    -0.0000
 26 H      0.6061     1.0000     0.3939     0.8797     0.8797     0.0000
 27 O      8.7656     8.0000    -0.7656     1.7306     1.7306     0.0000
 28 H      0.5967     1.0000     0.4033     0.8602     0.8602     0.0000
 29 H      0.6061     1.0000     0.3939     0.8797     0.8797     0.0000

  Mayer bond orders larger than 0.100000
B(  0-O ,  1-H ) :   0.8742 B(  0-O ,  2-H ) :   0.7611 B(  3-O ,  4-H ) :   0.8742 
B(  3-O ,  5-H ) :   0.7611 B(  6-O ,  7-H ) :   0.8488 B(  6-O ,  8-H ) :   0.8954 
B(  9-O , 10-H ) :   0.8669 B(  9-O , 11-H ) :   0.7832 B( 12-O , 13-H ) :   0.7832 
B( 12-O , 14-H ) :   0.8669 B( 15-O , 16-H ) :   0.8229 B( 15-O , 17-H ) :   0.8064 
B( 18-O , 19-H ) :   0.8229 B( 18-O , 20-H ) :   0.8064 B( 21-O , 22-H ) :   0.8488 
B( 21-O , 23-H ) :   0.8954 B( 24-O , 25-H ) :   0.8373 B( 24-O , 26-H ) :   0.8305 
B( 27-O , 28-H ) :   0.8373 B( 27-O , 29-H ) :   0.8305 

-------
TIMINGS
-------

Total SCF time: 0 days 0 hours 0 min 54 sec 

Total time                  ....      54.172 sec
Sum of individual times     ....      53.822 sec  ( 99.4%)

Fock matrix formation       ....      52.976 sec  ( 97.8%)
Diagonalization             ....       0.224 sec  (  0.4%)
Density matrix formation    ....       0.022 sec  (  0.0%)
Population analysis         ....       0.022 sec  (  0.0%)
Initial guess               ....       0.261 sec  (  0.5%)
Orbital Transformation      ....       0.000 sec  (  0.0%)
Orbital Orthonormalization  ....       0.000 sec  (  0.0%)
DIIS solution               ....       0.087 sec  (  0.2%)
SOSCF solution              ....       0.101 sec  (  0.2%)


           ************************************************************
           *        Program running with 6 parallel MPI-processes     *
           *              working on a common directory               *
           ************************************************************

------------------------------------------------------------------------------
                                ORCA  MP2 
------------------------------------------------------------------------------

Freezing NCore=20 chemical core electrons
MP2 will be done in the AO integral direct mode
The Q1-step will be done using symmetric double matrices
Dimension of the basis                    ...  430
Memory devoted for MP2                    ... 8000 MB   
Memory needed for all in one shot         ... 2129 MB
Number of MOs that can be treated together...   25      
MP2 density construction                  ... relaxed
The MP2 gradient is requested => amplitudes will be stored on disk
Total number of MOs              ...   40
Number of MOs treated per batch  ...    7 
Number of batches necessary      ...    1 
OPERATORS   0/  0 PASS   0
-----------------------------------------------
 MP2 CORRELATION ENERGY   :     -2.601937794 Eh
-----------------------------------------------


---------------------
MP2 DENSITY FORMATION
---------------------

Completing the external part of the density      ... done
Storing the unrelaxed density                    ... done

Calculating G(D)                                 ... done
Completing the Lagrangian                        ... done
Solving the Z-vector equations                   ... 

------------------------------------------------------------------------------
                           ORCA CP-SCF CALCULATION
------------------------------------------------------------------------------

Input orbitals are from        ... 12h2o.su.etal.mol0,1,3,4,5,6,7,8,9,11-orca.engrad-mp2.def2tzvp.frozencore.gbw
Input Perturbation             ... 12h2o.su.etal.mol0,1,3,4,5,6,7,8,9,11-orca.engrad-mp2.def2tzvp.frozencore.pin.tmp
Wavefunction output            ... 12h2o.su.etal.mol0,1,3,4,5,6,7,8,9,11-orca.engrad-mp2.def2tzvp.frozencore.pout.tmp
Perturbation mode              ... Real perturbation (singlet)
Solver                         ... POPLE
Max. number of iterations      ... 128
Convergence tolerance          ... 1.000e-08
Integral handling              ... Direct
Number of perturbations        ... 1
Number of operators            ... 1
Orbital ranges used for CP-SCF:
 Operator 0:  Orbitals   0... 49  to  50...429
Variables per vector in CP-SCF ... 19000
Number of vectors sought       ... 1
     CP-SCF ITERATION   0: 
     CP-SCF ITERATION   1:      0.001345522427
     CP-SCF ITERATION   2:      0.000042270223
     CP-SCF ITERATION   3:      0.000002607926
     CP-SCF ITERATION   4:      0.000000220350
     CP-SCF ITERATION   5:      0.000000021333
     CP-SCF ITERATION   6:      0.000000001415
                                                 ... done
Finalizing the relaxed density                   ... done
Transforming P to the AO basis                   ... done
Storing the relaxed density                      ... done

------------------------------------
ENERGY WEIGHTED DENSITY FINALIZATION
------------------------------------

Gathering the parts of the W-matrix              ...                                                      done
Forming the Z-density                            ... done
Transforming Z to the AO basis                   ... done
Calculating G(Z)                                 ... done
Finalizing the W-matrix                          ...                                                      done
Transforming W to the AO basis and storing       ... done

                *********************************************
                * UNRELAXED MP2 DENSITY POPULATION ANALYSIS *
                *********************************************

------------------------------------------------------------------------------
                           ORCA POPULATION ANALYSIS
------------------------------------------------------------------------------
Input electron density              ... 12h2o.su.etal.mol0,1,3,4,5,6,7,8,9,11-orca.engrad-mp2.def2tzvp.frozencore.pmp2ur
BaseName (.gbw .S,...)              ... 12h2o.su.etal.mol0,1,3,4,5,6,7,8,9,11-orca.engrad-mp2.def2tzvp.frozencore

                    ********************************
                    * MULLIKEN POPULATION ANALYSIS *
                    ********************************

-----------------------
MULLIKEN ATOMIC CHARGES
-----------------------
   0 O :   -0.797489
   1 H :    0.363276
   2 H :    0.413017
   3 O :   -0.797489
   4 H :    0.363276
   5 H :    0.413017
   6 O :   -0.719721
   7 H :    0.386802
   8 H :    0.331600
   9 O :   -0.780771
  10 H :    0.372203
  11 H :    0.406679
  12 O :   -0.780771
  13 H :    0.406679
  14 H :    0.372203
  15 O :   -0.796093
  16 H :    0.405668
  17 H :    0.382199
  18 O :   -0.796093
  19 H :    0.405668
  20 H :    0.382199
  21 O :   -0.719721
  22 H :    0.386802
  23 H :    0.331600
  24 O :   -0.758058
  25 H :    0.400357
  26 H :    0.390330
  27 O :   -0.758058
  28 H :    0.400357
  29 H :    0.390330
Sum of atomic charges:    0.0000000

--------------------------------
MULLIKEN REDUCED ORBITAL CHARGES
--------------------------------
  0 O s       :     3.801252  s :     3.801252
      pz      :     1.716016  p :     4.942637
      px      :     1.441413
      py      :     1.785207
      dz2     :     0.009237  d :     0.049623
      dxz     :     0.009901
      dyz     :     0.010475
      dx2y2   :     0.007872
      dxy     :     0.012138
      f0      :     0.000454  f :     0.003977
      f+1     :     0.000681
      f-1     :     0.000537
      f+2     :     0.000433
      f-2     :     0.000714
      f+3     :     0.000459
      f-3     :     0.000698
  1 H s       :     0.589915  s :     0.589915
      pz      :     0.017339  p :     0.046809
      px      :     0.014102
      py      :     0.015368
  2 H s       :     0.529670  s :     0.529670
      pz      :     0.010465  p :     0.057313
      px      :     0.033210
      py      :     0.013638
  3 O s       :     3.801252  s :     3.801252
      pz      :     1.716016  p :     4.942637
      px      :     1.441413
      py      :     1.785207
      dz2     :     0.009237  d :     0.049623
      dxz     :     0.009901
      dyz     :     0.010475
      dx2y2   :     0.007872
      dxy     :     0.012138
      f0      :     0.000454  f :     0.003977
      f+1     :     0.000681
      f-1     :     0.000537
      f+2     :     0.000433
      f-2     :     0.000714
      f+3     :     0.000459
      f-3     :     0.000698
  4 H s       :     0.589915  s :     0.589915
      pz      :     0.017339  p :     0.046809
      px      :     0.014102
      py      :     0.015368
  5 H s       :     0.529670  s :     0.529670
      pz      :     0.010465  p :     0.057313
      px      :     0.033210
      py      :     0.013638
  6 O s       :     3.807438  s :     3.807438
      pz      :     1.546067  p :     4.856026
      px      :     1.509719
      py      :     1.800239
      dz2     :     0.016840  d :     0.052213
      dxz     :     0.006634
      dyz     :     0.008437
      dx2y2   :     0.007595
      dxy     :     0.012707
      f0      :     0.000627  f :     0.004043
      f+1     :     0.000741
      f-1     :     0.000538
      f+2     :     0.000414
      f-2     :     0.000420
      f+3     :     0.000435
      f-3     :     0.000869
  7 H s       :     0.562772  s :     0.562772
      pz      :     0.024557  p :     0.050426
      px      :     0.012150
      py      :     0.013720
  8 H s       :     0.621807  s :     0.621807
      pz      :     0.011837  p :     0.046593
      px      :     0.018198
      py      :     0.016558
  9 O s       :     3.796656  s :     3.796656
      pz      :     1.560125  p :     4.929374
      px      :     1.837725
      py      :     1.531524
      dz2     :     0.016064  d :     0.050780
      dxz     :     0.007645
      dyz     :     0.008115
      dx2y2   :     0.008873
      dxy     :     0.010084
      f0      :     0.000574  f :     0.003961
      f+1     :     0.000487
      f-1     :     0.000815
      f+2     :     0.000436
      f-2     :     0.000406
      f+3     :     0.000773
      f-3     :     0.000469
 10 H s       :     0.582396  s :     0.582396
      pz      :     0.019133  p :     0.045401
      px      :     0.014058
      py      :     0.012210
 11 H s       :     0.539442  s :     0.539442
      pz      :     0.009110  p :     0.053879
      px      :     0.014866
      py      :     0.029903
 12 O s       :     3.796656  s :     3.796656
      pz      :     1.560125  p :     4.929374
      px      :     1.837725
      py      :     1.531524
      dz2     :     0.016064  d :     0.050780
      dxz     :     0.007645
      dyz     :     0.008115
      dx2y2   :     0.008873
      dxy     :     0.010084
      f0      :     0.000574  f :     0.003961
      f+1     :     0.000487
      f-1     :     0.000815
      f+2     :     0.000436
      f-2     :     0.000406
      f+3     :     0.000773
      f-3     :     0.000469
 13 H s       :     0.539442  s :     0.539442
      pz      :     0.009110  p :     0.053879
      px      :     0.014866
      py      :     0.029903
 14 H s       :     0.582396  s :     0.582396
      pz      :     0.019133  p :     0.045401
      px      :     0.014058
      py      :     0.012210
 15 O s       :     3.794853  s :     3.794853
      pz      :     1.606265  p :     4.946830
[...]
      f+3     :     0.000480
      f-3     :     0.000888
  1 H s       :     0.669772  s :     0.669772
      pz      :     0.067172  p :     0.168458
      px      :     0.046962
      py      :     0.054323
  2 H s       :     0.650901  s :     0.650901
      pz      :     0.034406  p :     0.202571
      px      :     0.119259
      py      :     0.048906
  3 O s       :     3.451335  s :     3.451335
      pz      :     1.666431  p :     4.804722
      px      :     1.406195
      py      :     1.732097
      dz2     :     0.010471  d :     0.056646
      dxz     :     0.011979
      dyz     :     0.010852
      dx2y2   :     0.009422
      dxy     :     0.013923
      f0      :     0.000472  f :     0.004766
      f+1     :     0.000852
      f-1     :     0.000645
      f+2     :     0.000412
      f-2     :     0.001018
      f+3     :     0.000480
      f-3     :     0.000888
  4 H s       :     0.669772  s :     0.669772
      pz      :     0.067172  p :     0.168458
      px      :     0.046962
      py      :     0.054323
  5 H s       :     0.650901  s :     0.650901
      pz      :     0.034406  p :     0.202571
      px      :     0.119259
      py      :     0.048906
  6 O s       :     3.464808  s :     3.464808
      pz      :     1.528444  p :     4.811271
      px      :     1.512121
      py      :     1.770706
      dz2     :     0.020595  d :     0.058662
      dxz     :     0.007090
      dyz     :     0.007751
      dx2y2   :     0.007800
      dxy     :     0.015425
      f0      :     0.000861  f :     0.004898
      f+1     :     0.000990
      f-1     :     0.000711
      f+2     :     0.000389
      f-2     :     0.000416
      f+3     :     0.000375
      f-3     :     0.001156
  7 H s       :     0.675262  s :     0.675262
      pz      :     0.094003  p :     0.174382
      px      :     0.036882
      py      :     0.043497
  8 H s       :     0.681365  s :     0.681365
      pz      :     0.032704  p :     0.161198
      px      :     0.072061
      py      :     0.056433
  9 O s       :     3.450725  s :     3.450725
      pz      :     1.525479  p :     4.782067
      px      :     1.765973
      py      :     1.490615
      dz2     :     0.020015  d :     0.057912
      dxz     :     0.006946
      dyz     :     0.009297
      dx2y2   :     0.010440
      dxy     :     0.011214
      f0      :     0.000797  f :     0.004793
      f+1     :     0.000586
      f-1     :     0.001175
      f+2     :     0.000415
      f-2     :     0.000421
      f+3     :     0.000947
      f-3     :     0.000452
 10 H s       :     0.664567  s :     0.664567
      pz      :     0.080713  p :     0.163142
      px      :     0.044358
      py      :     0.038071
 11 H s       :     0.659762  s :     0.659762
      pz      :     0.030019  p :     0.192624
      px      :     0.053898
      py      :     0.108706
 12 O s       :     3.450725  s :     3.450725
      pz      :     1.525479  p :     4.782067
      px      :     1.765973
      py      :     1.490615
      dz2     :     0.020015  d :     0.057912
      dxz     :     0.006946
      dyz     :     0.009297
      dx2y2   :     0.010440
      dxy     :     0.011214
      f0      :     0.000797  f :     0.004793
      f+1     :     0.000586
      f-1     :     0.001175
      f+2     :     0.000415
      f-2     :     0.000421
      f+3     :     0.000947
      f-3     :     0.000452
 13 H s       :     0.659762  s :     0.659762
      pz      :     0.030019  p :     0.192624
      px      :     0.053898
      py      :     0.108706
 14 H s       :     0.664567  s :     0.664567
      pz      :     0.080713  p :     0.163142
      px      :     0.044358
      py      :     0.038071
 15 O s       :     3.445789  s :     3.445789
      pz      :     1.551981  p :     4.792331
      px      :     1.481649
      py      :     1.758701
      dz2     :     0.019348  d :     0.057298
      dxz     :     0.008963
      dyz     :     0.006933
      dx2y2   :     0.010604
      dxy     :     0.011450
      f0      :     0.000761  f :     0.004729
      f+1     :     0.001138
      f-1     :     0.000582
      f+2     :     0.000412
      f-2     :     0.000420
      f+3     :     0.000452
      f-3     :     0.000963
 16 H s       :     0.668654  s :     0.668654
      pz      :     0.095938  p :     0.177919
      px      :     0.038337
      py      :     0.043643
 17 H s       :     0.668019  s :     0.668019
      pz      :     0.032003  p :     0.191775
      px      :     0.105864
      py      :     0.053907
 18 O s       :     3.445789  s :     3.445789
      pz      :     1.551981  p :     4.792331
      px      :     1.481649
      py      :     1.758701
      dz2     :     0.019348  d :     0.057298
      dxz     :     0.008963
      dyz     :     0.006933
      dx2y2   :     0.010604
      dxy     :     0.011450
      f0      :     0.000761  f :     0.004729
      f+1     :     0.001138
      f-1     :     0.000582
      f+2     :     0.000412
      f-2     :     0.000420
      f+3     :     0.000452
      f-3     :     0.000963
 19 H s       :     0.668654  s :     0.668654
      pz      :     0.095938  p :     0.177919
      px      :     0.038337
      py      :     0.043643
 20 H s       :     0.668019  s :     0.668019
      pz      :     0.032003  p :     0.191775
      px      :     0.105864
      py      :     0.053907
 21 O s       :     3.464808  s :     3.464808
      pz      :     1.528444  p :     4.811271
      px      :     1.512121
      py      :     1.770706
      dz2     :     0.020595  d :     0.058662
      dxz     :     0.007090
      dyz     :     0.007751
      dx2y2   :     0.007800
      dxy     :     0.015425
      f0      :     0.000861  f :     0.004898
      f+1     :     0.000990
      f-1     :     0.000711
      f+2     :     0.000389
      f-2     :     0.000416
      f+3     :     0.000375
      f-3     :     0.001156
 22 H s       :     0.675262  s :     0.675262
      pz      :     0.094003  p :     0.174382
      px      :     0.036882
      py      :     0.043497
 23 H s       :     0.681365  s :     0.681365
      pz      :     0.032704  p :     0.161198
      px      :     0.072061
      py      :     0.056433
 24 O s       :     3.441978  s :     3.441978
      pz      :     1.532867  p :     4.779543
      px      :     1.701344
      py      :     1.545332
      dz2     :     0.020354  d :     0.057832
      dxz     :     0.007306
      dyz     :     0.007209
      dx2y2   :     0.009154
      dxy     :     0.013809
      f0      :     0.000849  f :     0.004827
      f+1     :     0.000720
      f-1     :     0.000971
      f+2     :     0.000390
      f-2     :     0.000426
      f+3     :     0.001063
      f-3     :     0.000409
 25 H s       :     0.668353  s :     0.668353
      pz      :     0.093758  p :     0.174931
      px      :     0.042834
      py      :     0.038339
 26 H s       :     0.670218  s :     0.670218
      pz      :     0.032196  p :     0.179195
      px      :     0.059031
      py      :     0.087967
 27 O s       :     3.441978  s :     3.441978
      pz      :     1.532867  p :     4.779543
      px      :     1.701344
      py      :     1.545332
      dz2     :     0.020354  d :     0.057832
      dxz     :     0.007306
      dyz     :     0.007209
      dx2y2   :     0.009154
      dxy     :     0.013809
      f0      :     0.000849  f :     0.004827
      f+1     :     0.000720
      f-1     :     0.000971
      f+2     :     0.000390
      f-2     :     0.000426
      f+3     :     0.001063
      f-3     :     0.000409
 28 H s       :     0.668353  s :     0.668353
      pz      :     0.093758  p :     0.174931
      px      :     0.042834
      py      :     0.038339
 29 H s       :     0.670218  s :     0.670218
      pz      :     0.032196  p :     0.179195
      px      :     0.059031
      py      :     0.087967


                      *****************************
                      * MAYER POPULATION ANALYSIS *
                      *****************************

  NA   - Mulliken gross atomic population
  ZA   - Total nuclear charge
  QA   - Mulliken gross atomic charge
  VA   - Mayer's total valence
  BVA  - Mayer's bonded valence
  FA   - Mayer's free valence

  ATOM       NA         ZA         QA         VA         BVA        FA
  0 O      8.7650     8.0000    -0.7650     2.0290     1.6373     0.3916
  1 H      0.6440     1.0000     0.3560     0.8951     0.8493     0.0458
  2 H      0.6135     1.0000     0.3865     0.9056     0.8614     0.0442
  3 O      8.7650     8.0000    -0.7650     2.0290     1.6373     0.3916
  4 H      0.6440     1.0000     0.3560     0.8951     0.8493     0.0458
  5 H      0.6135     1.0000     0.3865     0.9056     0.8614     0.0442
  6 O      8.7003     8.0000    -0.7003     2.0830     1.6994     0.3836
  7 H      0.6269     1.0000     0.3731     0.8974     0.8535     0.0439
  8 H      0.6758     1.0000     0.3242     0.9211     0.8720     0.0491
  9 O      8.7471     8.0000    -0.7471     2.0526     1.6630     0.3896
 10 H      0.6357     1.0000     0.3643     0.8912     0.8454     0.0458
 11 H      0.6190     1.0000     0.3810     0.9153     0.8710     0.0442
 12 O      8.7471     8.0000    -0.7471     2.0526     1.6630     0.3896
 13 H      0.6190     1.0000     0.3810     0.9153     0.8710     0.0442
 14 H      0.6357     1.0000     0.3643     0.8912     0.8454     0.0458
 15 O      8.7559     8.0000    -0.7559     2.0461     1.6549     0.3912
 16 H      0.6122     1.0000     0.3878     0.8958     0.8530     0.0427
 17 H      0.6424     1.0000     0.3576     0.9357     0.8890     0.0467
 18 O      8.7559     8.0000    -0.7559     2.0461     1.6549     0.3912
 19 H      0.6122     1.0000     0.3878     0.8958     0.8530     0.0427
 20 H      0.6424     1.0000     0.3576     0.9357     0.8890     0.0467
 21 O      8.7003     8.0000    -0.7003     2.0830     1.6994     0.3836
 22 H      0.6269     1.0000     0.3731     0.8974     0.8535     0.0439
 23 H      0.6758     1.0000     0.3242     0.9211     0.8720     0.0491
 24 O      8.7226     8.0000    -0.7226     2.0912     1.7057     0.3855
 25 H      0.6119     1.0000     0.3881     0.8824     0.8393     0.0432
 26 H      0.6278     1.0000     0.3722     0.9122     0.8681     0.0441
 27 O      8.7226     8.0000    -0.7226     2.0912     1.7057     0.3855
 28 H      0.6119     1.0000     0.3881     0.8824     0.8393     0.0432
 29 H      0.6278     1.0000     0.3722     0.9122     0.8681     0.0441

  Mayer bond orders larger than 0.100000
B(  0-O ,  1-H ) :   0.8375 B(  0-O ,  2-H ) :   0.7234 B(  2-H , 27-O ) :   0.1255 
B(  3-O ,  4-H ) :   0.8375 B(  3-O ,  5-H ) :   0.7234 B(  5-H , 24-O ) :   0.1255 
B(  6-O ,  7-H ) :   0.8164 B(  6-O ,  8-H ) :   0.8563 B(  9-O , 10-H ) :   0.8303 
B(  9-O , 11-H ) :   0.7444 B( 11-H , 18-O ) :   0.1091 B( 12-O , 13-H ) :   0.7444 
B( 12-O , 14-H ) :   0.8303 B( 13-H , 15-O ) :   0.1091 B( 15-O , 16-H ) :   0.7912 
B( 15-O , 17-H ) :   0.7655 B( 18-O , 19-H ) :   0.7912 B( 18-O , 20-H ) :   0.7655 
B( 21-O , 22-H ) :   0.8164 B( 21-O , 23-H ) :   0.8563 B( 24-O , 25-H ) :   0.8045 
B( 24-O , 26-H ) :   0.7955 B( 27-O , 28-H ) :   0.8045 B( 27-O , 29-H ) :   0.7955 



----------------------------------
MP2 DERIVATIVE INTEGRAL GENERATION
----------------------------------


Input Wavefunction Amplitudes       ... 12h2o.su.etal.mol0,1,3,4,5,6,7,8,9,11-orca.engrad-mp2.def2tzvp.frozencore.mp2tsaa.tmp
Input Correlated Electron Density   ... 12h2o.su.etal.mol0,1,3,4,5,6,7,8,9,11-orca.engrad-mp2.def2tzvp.frozencore.pmp2re
Input Energy Weighted Density       ... 12h2o.su.etal.mol0,1,3,4,5,6,7,8,9,11-orca.engrad-mp2.def2tzvp.frozencore.wmp2.tmp
Input SCF Electron Density          ... 12h2o.su.etal.mol0,1,3,4,5,6,7,8,9,11-orca.engrad-mp2.def2tzvp.frozencore.scfp

One-Electron Terms    ...
                        ... One-Electron Terms done
Prescreening matrices              ... done

Batch handling in the gradient evaluation:
Memory available                      ... 8000.0 MB
Memory per occupied orbital in Q2     ...   56.4 MB
Memory per occupied orbital in Q3     ...    0.2 MB
Total memory requirement per |i>      ...   56.6 MB
Max. Number of orbitals possible      ...    141
Number of orbitals treated per batch  ...     40
Number of batches to be done          ...      1
Batch   0: i=   10 ...    49

---------------------------------------
MP2 TOTAL ENERGY:     -763.272028808 Eh
---------------------------------------

The final MP2 gradient
  0:   0.00152267   0.00179363   0.00149736
  1:  -0.00053821  -0.00079542  -0.00125785
  2:  -0.00143947  -0.00103833  -0.00191395
  3:  -0.00152267  -0.00179363   0.00149736
  4:   0.00053821   0.00079542  -0.00125785
  5:   0.00143947   0.00103833  -0.00191395
  6:  -0.00949782   0.00487046  -0.00197555
  7:  -0.00054694  -0.00081155   0.00234408
  8:   0.00955028  -0.00655297   0.00077112
  9:  -0.00198834  -0.00257610   0.01040292
 10:   0.00247232  -0.00032229  -0.00812256
 11:   0.00315560   0.00471802   0.00178776
 12:   0.00198834   0.00257610   0.01040292
 13:  -0.00315560  -0.00471802   0.00178776
 14:  -0.00247232   0.00032229  -0.00812256
 15:   0.00297143   0.00285086  -0.00101612
 16:  -0.00028436  -0.00081512  -0.00207040
 17:  -0.00268518  -0.00030879  -0.00135417
 18:  -0.00297143  -0.00285086  -0.00101612
 19:   0.00028436   0.00081512  -0.00207040
 20:   0.00268518   0.00030879  -0.00135417
 21:   0.00949782  -0.00487046  -0.00197555
 22:   0.00054694   0.00081155   0.00234408
 23:  -0.00955028   0.00655297   0.00077112
 24:   0.00216404  -0.00097352   0.00260195
 25:  -0.00136550   0.00140612  -0.00121470
 26:  -0.00234406  -0.00067500  -0.00047989
 27:  -0.00216404   0.00097352   0.00260195
 28:   0.00136550  -0.00140612  -0.00121470
 29:   0.00234406   0.00067500  -0.00047989

-----------------------------------
NORM OF THE MP2 GRADIENT:  0.033425
-----------------------------------

-------------------------   --------------------
FINAL SINGLE POINT ENERGY      -763.272028807690
-------------------------   --------------------


                            ***************************************
                            *     ORCA property calculations      *
                            ***************************************

                                    ---------------------
                                    Active property flags
                                    ---------------------
   (+) Dipole Moment


------------------------------------------------------------------------------
                       ORCA ELECTRIC PROPERTIES CALCULATION
------------------------------------------------------------------------------

Dipole Moment Calculation                       ... on
Quadrupole Moment Calculation                   ... off
Polarizability Calculation                      ... off
GBWName                                         ... 12h2o.su.etal.mol0,1,3,4,5,6,7,8,9,11-orca.engrad-mp2.def2tzvp.frozencore.gbw
Electron density file                           ... 12h2o.su.etal.mol0,1,3,4,5,6,7,8,9,11-orca.engrad-mp2.def2tzvp.frozencore.scfp
The origin for moment calculation is the CENTER OF MASS  = (-0.000000, -0.000000  1.062357)

-------------
DIPOLE MOMENT
-------------
                                X             Y             Z
Electronic contribution:      0.00000      -0.00000       0.25155
Nuclear contribution   :     -0.00000      -0.00000       1.26519
                        -----------------------------------------
Total Dipole Moment    :      0.00000      -0.00000       1.51674
                        -----------------------------------------
Magnitude (a.u.)       :      1.51674
Magnitude (Debye)      :      3.85524



--------------------
Rotational spectrum 
--------------------
 
Rotational constants in cm-1:     0.024561     0.015473     0.013625 
Rotational constants in MHz :   736.332758   463.862217   408.458746 

 Dipole components along the rotational axes: 
x,y,z [a.u.] :     1.516736    -0.000000     0.000000 
x,y,z [Debye]:     3.855235    -0.000000     0.000000 

 

                         *** MP2 UNRELAXED DENSITY ***

------------------------------------------------------------------------------
                       ORCA ELECTRIC PROPERTIES CALCULATION
------------------------------------------------------------------------------

Dipole Moment Calculation                       ... on
Quadrupole Moment Calculation                   ... off
Polarizability Calculation                      ... off
GBWName                                         ... 12h2o.su.etal.mol0,1,3,4,5,6,7,8,9,11-orca.engrad-mp2.def2tzvp.frozencore.gbw
Electron density file                           ... 12h2o.su.etal.mol0,1,3,4,5,6,7,8,9,11-orca.engrad-mp2.def2tzvp.frozencore.pmp2ur
The origin for moment calculation is the CENTER OF MASS  = (-0.000000, -0.000000  1.062357)

-------------
DIPOLE MOMENT
-------------
                                X             Y             Z
Electronic contribution:      0.00000      -0.00000       0.24384
Nuclear contribution   :     -0.00000      -0.00000       1.26519
                        -----------------------------------------
Total Dipole Moment    :      0.00000      -0.00000       1.50902
                        -----------------------------------------
Magnitude (a.u.)       :      1.50902
Magnitude (Debye)      :      3.83564



--------------------
Rotational spectrum 
--------------------
 
Rotational constants in cm-1:     0.024561     0.015473     0.013625 
Rotational constants in MHz :   736.332758   463.862217   408.458746 

 Dipole components along the rotational axes: 
x,y,z [a.u.] :     1.509025    -0.000000     0.000000 
x,y,z [Debye]:     3.835637    -0.000000     0.000000 

 

                           *** MP2 RELAXED DENSITY ***

------------------------------------------------------------------------------
                       ORCA ELECTRIC PROPERTIES CALCULATION
------------------------------------------------------------------------------

Dipole Moment Calculation                       ... on
Quadrupole Moment Calculation                   ... off
Polarizability Calculation                      ... off
GBWName                                         ... 12h2o.su.etal.mol0,1,3,4,5,6,7,8,9,11-orca.engrad-mp2.def2tzvp.frozencore.gbw
Electron density file                           ... 12h2o.su.etal.mol0,1,3,4,5,6,7,8,9,11-orca.engrad-mp2.def2tzvp.frozencore.pmp2re
The origin for moment calculation is the CENTER OF MASS  = (-0.000000, -0.000000  1.062357)

-------------
DIPOLE MOMENT
-------------
                                X             Y             Z
Electronic contribution:      0.00000      -0.00000       0.24312
Nuclear contribution   :     -0.00000      -0.00000       1.26519
                        -----------------------------------------
Total Dipole Moment    :      0.00000      -0.00000       1.50831
                        -----------------------------------------
Magnitude (a.u.)       :      1.50831
Magnitude (Debye)      :      3.83382



--------------------
Rotational spectrum 
--------------------
 
Rotational constants in cm-1:     0.024561     0.015473     0.013625 
Rotational constants in MHz :   736.332758   463.862217   408.458746 

 Dipole components along the rotational axes: 
x,y,z [a.u.] :     1.508312    -0.000000     0.000000 
x,y,z [Debye]:     3.833824    -0.000000     0.000000 

 

Timings for individual modules:

Sum of individual times         ...      421.620 sec (=   7.027 min)
GTO integral calculation        ...        1.127 sec (=   0.019 min)   0.3 %
SCF iterations                  ...       54.901 sec (=   0.915 min)  13.0 %
MP2 module                      ...      365.591 sec (=   6.093 min)  86.7 %
                             ****ORCA TERMINATED NORMALLY****
TOTAL RUN TIME: 0 days 0 hours 7 minutes 2 seconds 805 msec
