7
Energy:    -40.45562930
C    0.00335038   0.00932101   0.05162407
H   -0.88246220   0.56893410  -0.16533088
H   -0.17531744  -1.02863242  -0.13713393
H    0.80334779   0.35244787  -0.57060353
C    0.38400883   0.20392771   1.53109269
N    0.66742636   0.34882124   2.63262432
Cl  -0.80035372  -0.45481951  -3.34227274
