7
Energy:    -39.65382610
C    0.03672040  -0.07427615  -0.06054594
H    0.84988680   0.39660162   0.45124964
H   -0.89001521   0.29014323   0.33093679
H    0.09525930   0.14961239  -1.10522111
C    0.11592305  -1.59871447   0.14296020
N    0.17489302  -2.73372809   0.29447977
Cl  -0.38266734   3.57036145  -0.05385934
