7
Energy:    -39.70761766
C   -0.13395474  -0.02873458   0.00403111
H    0.21691808  -0.19702488   1.00075917
H    0.70158681   0.11541188  -0.64864892
H   -0.69977806  -0.87606299  -0.32273732
C   -1.02714351   1.22553626  -0.02083862
N   -1.69216314   2.15939790  -0.03935527
Cl   2.63453456  -2.39852359   0.02678986
