7
Energy:    -39.36652677
C   -0.22106993   0.05510817   0.03106796
H    0.67609476   0.61132402   0.20605264
H   -0.12303643  -0.92247532   0.45488281
H   -1.04791725   0.55965574   0.48566048
C   -0.46336975  -0.06460894  -1.48503184
N   -0.64377299  -0.15374377  -2.61383706
Cl   1.82307159  -0.08525991   2.92120502
