
                                 *****************
                                 * O   R   C   A *
                                 *****************

           --- An Ab Initio, DFT and Semiempirical electronic structure package ---

                  #######################################################
                  #                        -***-                        #
                  #  Department of molecular theory and spectroscopy    #
                  #              Directorship: Frank Neese              #
                  # Max Planck Institute for Chemical Energy Conversion #
                  #                  D-45470 Muelheim/Ruhr              #
                  #                       Germany                       #
                  #                                                     #
                  #                  All rights reserved                #
                  #                        -***-                        #
                  #######################################################


                         Program Version 3.0.3 - RELEASE   -


 With contributions from (in alphabetic order):
   Ute Becker             : Parallelization
   Dmytro Bykov           : SCF Hessian
   Dmitry Ganyushin       : Spin-Orbit,Spin-Spin,Magnetic field MRCI
   Andreas Hansen         : Spin unrestricted coupled pair/coupled cluster methods
   Dimitrios Liakos       : Extrapolation schemes; parallel MDCI
   Robert Izsak           : Overlap fitted RIJCOSX, COSX-SCS-MP3
   Christian Kollmar      : KDIIS, OOCD, Brueckner-CCSD(T), CCSD density
   Simone Kossmann        : Meta GGA functionals, TD-DFT gradient, OOMP2, MP2 Hessian
   Taras Petrenko         : DFT Hessian,TD-DFT gradient, ASA and ECA modules, normal mode analysis, Resonance Raman, ABS, FL, XAS/XES, NRVS
   Christoph Reimann      : Effective Core Potentials
   Michael Roemelt        : Restricted open shell CIS
   Christoph Riplinger    : Improved optimizer, TS searches, QM/MM, DLPNO-CCSD
   Barbara Sandhoefer     : DKH picture change effects
   Igor Schapiro          : Molecular dynamics
   Kantharuban Sivalingam : CASSCF convergence, NEVPT2
   Boris Wezisla          : Elementary symmetry handling
   Frank Wennmohs         : Technical directorship


 We gratefully acknowledge several colleagues who have allowed us to
 interface, adapt or use parts of their codes:
   Stefan Grimme, W. Hujo, H. Kruse, T. Risthaus : VdW corrections, initial TS optimization,
                                                   DFT functionals, gCP
   Ed Valeev                                     : LibInt (2-el integral package), F12 methods
   Garnet Chan, S. Sharma, R. Olivares           : DMRG
   Ulf Ekstrom                                   : XCFun DFT Library
   Mihaly Kallay                                 : mrcc  (arbitrary order and MRCC methods)
   Andreas Klamt, Michael Diedenhofen            : otool_cosmo (COSMO solvation model)
   Frank Weinhold                                : gennbo (NPA and NBO analysis)
   Christopher J. Cramer and Donald G. Truhlar   : smd solvation model


 Your calculation uses the libint2 library for the computation of 2-el integrals
 For citations please refer to: http://libint.valeyev.net

 This ORCA versions uses:
   CBLAS   interface :  Fast vector & matrix operations
   LAPACKE interface :  Fast linear algebra routines
   SCALAPACK package :  Parallel linear algebra routines


Your calculation utilizes the basis: Ahlrichs-VDZ
Cite in your paper:
H - Kr: A. Schaefer, H. Horn and R. Ahlrichs, J. Chem. Phys. 97, 2571 (1992).

Your calculation utilizes the basis: Ahlrichs SVPalls1+f
Cite in your paper:
Rb - Xe: A. Schaefer, C. Huber and R. Ahlrichs, J. Chem. Phys. 100, 5829 (1994).

Your calculation utilizes the atom-pairwise dispersion correction
with the Becke-Johnson damping scheme (D3BJ)
Cite in your paper:
S.Grimme, S.Ehrlich, L.Goerigk, J Comput Chem, (2011), 32, 1456–1465 
S.Grimme, J.Antony, S.Ehrlich and H.Krieg, J.Chem.Phys., 132, (2010), 154104 
   

================================================================================
                                        WARNINGS
                       Please study these warnings very carefully!
================================================================================

WARNING: The RI method has been chosen with no auxiliary basis (AUX or GTOAUX in BASIS block)
        Standard SV/J expansion basis used (GTOAUX=VDZ_J)

Now building the actual basis set

WARNING: Geometry Optimization
  ===> : Switching off AutoStart
         For restart on a previous wavefunction, please use MOREAD


INFO   : the flag for use of LIBINT has been found!

================================================================================
                                       INPUT FILE
================================================================================
NAME = 0_BP86_2_h2o.inp
|  1> ! BP86 Def2-SVP TightSCF Opt D3BJ
|  2> 
|  3> %pal nprocs 12 end
|  4> 
|  5> %scf
|  6>         maxiter 800
|  7> end
|  8> 
|  9> * xyz  0  1
| 10> O  -0.04468784	-0.56701308	1.47508273
| 11> H  -0.02574341	-0.21196918	0.58636636
| 12> H  -0.55308813	0.06990437	1.97717550
| 13> O  0.04080847	0.40707791	-1.09273819
| 14> H  -0.34278402	-0.18280846	-1.74167788
| 15> H  0.92761331	0.57214287	-1.41299212
| 16> **                         ****END OF INPUT****
================================================================================

                       *****************************
                       * Geometry Optimization Run *
                       *****************************

Geometry optimization settings:
Update method            Update   .... BFGS
Choice of coordinates    CoordSys .... Redundant Internals
Initial Hessian          InHess   .... Almoef's Model

Convergence Tolerances:
Energy Change            TolE     ....  5.0000e-06 Eh
Max. Gradient            TolMAXG  ....  3.0000e-04 Eh/bohr
RMS Gradient             TolRMSG  ....  1.0000e-04 Eh/bohr
Max. Displacement        TolMAXD  ....  4.0000e-03 bohr
RMS Displacement         TolRMSD  ....  2.0000e-03 bohr

------------------------------------------------------------------------------
                        ORCA OPTIMIZATION COORDINATE SETUP
------------------------------------------------------------------------------

The optimization will be done in new redundant internal coordinates
Making redundant internal coordinates   ...  (new redundants) done
Evaluating the initial hessian          ...  (Almloef) done
Evaluating the coordinates              ...  done
Calculating the B-matrix                .... done
Calculating the G-matrix                .... done
Diagonalizing the G-matrix              .... done
The first mode is                       ....    1
The number of degrees of freedom        ....   12

    -----------------------------------------------------------------
                    Redundant Internal Coordinates


    -----------------------------------------------------------------
         Definition                    Initial Value    Approx d2E/dq
    -----------------------------------------------------------------
      1. B(H   1,O   0)                  0.9572         0.525332   
      2. B(H   2,O   0)                  0.9572         0.525332   
      3. B(O   3,H   1)                  1.7908         0.024572   
      4. B(H   4,O   3)                  0.9572         0.525332   
      5. B(H   5,O   3)                  0.9572         0.525332   
      6. A(H   1,O   0,H   2)          104.5200         0.322920   
      7. L(O   0,H   1,O   3,H   2, 1) 181.8325         0.205961   
      8. L(O   0,H   1,O   3,H   2, 2) 180.0000         0.205961   
      9. A(H   1,O   3,H   5)          114.0631         0.205961   
     10. A(H   1,O   3,H   4)          114.0631         0.205961   
     11. A(H   4,O   3,H   5)          104.5200         0.322920   
     12. D(H   5,O   3,O   0,H   2)    120.2407         0.001501   
     13. D(H   4,O   3,O   0,H   2)   -120.2409         0.001501   
    -----------------------------------------------------------------

Number of atoms                         .... 6
Number of degrees of freedom            .... 13

         *************************************************************
         *                GEOMETRY OPTIMIZATION CYCLE   1            *
         *************************************************************
---------------------------------
CARTESIAN COORDINATES (ANGSTROEM)
---------------------------------
  O     -0.044688   -0.567013    1.475083
  H     -0.025743   -0.211969    0.586366
  H     -0.553088    0.069904    1.977175
  O      0.040808    0.407078   -1.092738
  H     -0.342784   -0.182808   -1.741678
  H      0.927613    0.572143   -1.412992

----------------------------
CARTESIAN COORDINATES (A.U.)
----------------------------
  NO LB      ZA    FRAG    MASS        X           Y           Z
   0 O     8.0000    0    15.999         -0.084447779116491         -1.071499435551181          2.787502384576905
   1 H     1.0000    0     1.008         -0.048647994653250         -0.400563699031858          1.108071834544277
   2 H     1.0000    0     1.008         -1.045185093622635          0.132100114864301          3.736320213698818
   3 O     8.0000    0    15.999          0.077116832244341          0.769265765069043         -2.064975915176806
   4 H     1.0000    0     1.008         -0.647767920884585         -0.345457924363898         -3.291294206708562
   5 H     1.0000    0     1.008          1.752935114080196          1.081193333775709         -2.670168136188793

--------------------------------
INTERNAL COORDINATES (ANGSTROEM)
--------------------------------
 O      0   0   0   0.000000     0.000     0.000
 H      1   0   0   0.957200     0.000     0.000
 H      1   2   0   0.957200   104.520     0.000
 O      2   1   3   1.790821   178.167   179.999
 H      4   2   1   0.957200   114.063    60.005
 H      4   2   1   0.957200   114.063   299.997

---------------------------
INTERNAL COORDINATES (A.U.)
---------------------------
 O      0   0   0   0.000000     0.000     0.000
 H      1   0   0   1.808846     0.000     0.000
 H      1   2   0   1.808846   104.520     0.000
 O      2   1   3   3.384162   178.167   179.999
 H      4   2   1   1.808846   114.063    60.005
 H      4   2   1   1.808846   114.063   299.997

---------------------
BASIS SET INFORMATION
---------------------
There are 2 groups of distinct atoms

 Group   1 Type O   : 7s4p1d contracted to 3s2p1d pattern {511/31/1}
 Group   2 Type H   : 4s1p contracted to 2s1p pattern {31/1}

Atom   0O    basis set group =>   1
Atom   1H    basis set group =>   2
Atom   2H    basis set group =>   2
Atom   3O    basis set group =>   1
Atom   4H    basis set group =>   2
Atom   5H    basis set group =>   2
-------------------------------
AUXILIARY BASIS SET INFORMATION
-------------------------------
There are 2 groups of distinct atoms

 Group   1 Type O   : 12s5p4d2f1g contracted to 6s4p3d1f1g pattern {711111/2111/211/2/1}
 Group   2 Type H   : 5s2p1d contracted to 3s1p1d pattern {311/2/1}

Atom   0O    basis set group =>   1
Atom   1H    basis set group =>   2
Atom   2H    basis set group =>   2
Atom   3O    basis set group =>   1
Atom   4H    basis set group =>   2
Atom   5H    basis set group =>   2
smp-n61.crc.pitt.edu.34432hfi_wait_for_device: The /dev/hfi1_0 device failed to appear after 15.0 seconds: Connection timed out
smp-n61.crc.pitt.edu.34433hfi_wait_for_device: The /dev/hfi1_0 device failed to appear after 15.0 seconds: Connection timed out
smp-n61.crc.pitt.edu.34434hfi_wait_for_device: The /dev/hfi1_0 device failed to appear after 15.0 seconds: Connection timed out
smp-n61.crc.pitt.edu.34435hfi_wait_for_device: The /dev/hfi1_0 device failed to appear after 15.0 seconds: Connection timed out
smp-n61.crc.pitt.edu.34436hfi_wait_for_device: The /dev/hfi1_0 device failed to appear after 15.0 seconds: Connection timed out
smp-n61.crc.pitt.edu.34437hfi_wait_for_device: The /dev/hfi1_0 device failed to appear after 15.0 seconds: Connection timed out
smp-n61.crc.pitt.edu.34439hfi_wait_for_device: The /dev/hfi1_0 device failed to appear after 15.0 seconds: Connection timed out
smp-n61.crc.pitt.edu.34442hfi_wait_for_device: The /dev/hfi1_0 device failed to appear after 15.0 seconds: Connection timed out
smp-n61.crc.pitt.edu.34445hfi_wait_for_device: The /dev/hfi1_0 device failed to appear after 15.0 seconds: Connection timed out
smp-n61.crc.pitt.edu.34447hfi_wait_for_device: The /dev/hfi1_0 device failed to appear after 15.0 seconds: Connection timed out
smp-n61.crc.pitt.edu.34449hfi_wait_for_device: The /dev/hfi1_0 device failed to appear after 15.0 seconds: Connection timed out
smp-n61.crc.pitt.edu.34443hfi_wait_for_device: The /dev/hfi1_0 device failed to appear after 15.0 seconds: Connection timed out


           ************************************************************
           *        Program running with 12 parallel MPI-processes    *
           *              working on a common directory               *
           ************************************************************
------------------------------------------------------------------------------
                           ORCA GTO INTEGRAL CALCULATION
                           -- RI-GTO INTEGRALS CHOSEN --
------------------------------------------------------------------------------

                         BASIS SET STATISTICS AND STARTUP INFO

Gaussian basis set:
 # of primitive gaussian shells          ...   44
 # of primitive gaussian functions       ...   76
 # of contracted shells                  ...   24
 # of contracted basis functions         ...   48
 Highest angular momentum                ...    2
 Maximum contraction depth               ...    5
Auxiliary gaussian basis set:
 # of primitive gaussian shells          ...   80
 # of primitive gaussian functions       ...  204
 # of contracted shells                  ...   50
 # of contracted aux-basis functions     ...  142
 Highest angular momentum                ...    4
 Maximum contraction depth               ...    7
Ratio of auxiliary to basis functions    ...  2.96
Integral package used                  ... LIBINT
 One Electron integrals                  ... done
 Ordering auxiliary basis shells         ... done
 Integral threshhold             Thresh  ...  2.500e-11
 Primitive cut-off               TCut    ...  2.500e-12
 Pre-screening matrix                    ... done
 Shell pair data                         ... 
 Ordering of the shell pairs             ... done (   0.000 sec) 299 of 300 pairs
 Determination of significant pairs      ... done (   0.000 sec)
 Creation of shell pair data             ... done (   0.000 sec)
 Storage of shell pair data              ... done (   0.000 sec)
 Shell pair data done in (   0.000 sec)
 Computing two index integrals           ... done
 Cholesky decomposition of the V-matrix  ... done


Timings:
 Total evaluation time                   ...   0.097 sec (  0.002 min)
 One electron matrix time                ...   0.004 sec (  0.000 min) =  3.7%
 Schwartz matrix evaluation time         ...   0.072 sec (  0.001 min) = 74.5%
 Two index repulsion integral time       ...   0.006 sec (  0.000 min) =  6.5%
 Cholesky decomposition of V             ...   0.000 sec (  0.000 min) =  0.4%
 Three index repulsion integral time     ...   0.000 sec (  0.000 min) =  0.0%

           ************************************************************
           *              Shut down parallel processing               *
           ************************************************************
smp-n61.crc.pitt.edu.34485hfi_wait_for_device: The /dev/hfi1_0 device failed to appear after 15.0 seconds: Connection timed out
smp-n61.crc.pitt.edu.34487hfi_wait_for_device: The /dev/hfi1_0 device failed to appear after 15.0 seconds: Connection timed out
smp-n61.crc.pitt.edu.34489hfi_wait_for_device: The /dev/hfi1_0 device failed to appear after 15.0 seconds: Connection timed out
smp-n61.crc.pitt.edu.34484hfi_wait_for_device: The /dev/hfi1_0 device failed to appear after 15.0 seconds: Connection timed out
smp-n61.crc.pitt.edu.34486hfi_wait_for_device: The /dev/hfi1_0 device failed to appear after 15.0 seconds: Connection timed out
smp-n61.crc.pitt.edu.34488hfi_wait_for_device: The /dev/hfi1_0 device failed to appear after 15.0 seconds: Connection timed out
smp-n61.crc.pitt.edu.34491hfi_wait_for_device: The /dev/hfi1_0 device failed to appear after 15.0 seconds: Connection timed out
smp-n61.crc.pitt.edu.34494hfi_wait_for_device: The /dev/hfi1_0 device failed to appear after 15.0 seconds: Connection timed out
smp-n61.crc.pitt.edu.34499hfi_wait_for_device: The /dev/hfi1_0 device failed to appear after 15.0 seconds: Connection timed out
smp-n61.crc.pitt.edu.34495hfi_wait_for_device: The /dev/hfi1_0 device failed to appear after 15.0 seconds: Connection timed out
smp-n61.crc.pitt.edu.34498hfi_wait_for_device: The /dev/hfi1_0 device failed to appear after 15.0 seconds: Connection timed out
smp-n61.crc.pitt.edu.34501hfi_wait_for_device: The /dev/hfi1_0 device failed to appear after 15.0 seconds: Connection timed out


           ************************************************************
           *        Program running with 12 parallel MPI-processes    *
           *              working on a common directory               *
           ************************************************************
-------------------------------------------------------------------------------
                                 ORCA SCF
-------------------------------------------------------------------------------

------------
SCF SETTINGS
------------
Hamiltonian:
 Density Functional     Method          .... DFT(GTOs)
 Exchange Functional    Exchange        .... B88
   X-Alpha parameter    XAlpha          ....  0.666667
   Becke's b parameter  XBeta           ....  0.004200
 Correlation Functional Correlation     .... P86
 LDA part of GGA corr.  LDAOpt          .... PW91-LDA
 Gradients option       PostSCFGGA      .... off
 RI-approximation to the Coulomb term is turned on
   Number of auxiliary basis functions  .... 142


General Settings:
 Integral files         IntName         .... 0_BP86_2_h2o
 Hartree-Fock type      HFTyp           .... RHF
 Total Charge           Charge          ....    0
 Multiplicity           Mult            ....    1
 Number of Electrons    NEL             ....   20
 Basis Dimension        Dim             ....   48
 Nuclear Repulsion      ENuc            ....     37.7621092376 Eh

Convergence Acceleration:
 DIIS                   CNVDIIS         .... on
   Start iteration      DIISMaxIt       ....    12
   Startup error        DIISStart       ....  0.200000
   # of expansion vecs  DIISMaxEq       ....     5
   Bias factor          DIISBfac        ....   1.050
   Max. coefficient     DIISMaxC        ....  10.000
 Newton-Raphson         CNVNR           .... off
 SOSCF                  CNVSOSCF        .... on
   Start iteration      SOSCFMaxIt      ....   150
   Startup grad/error   SOSCFStart      ....  0.003300
 Level Shifting         CNVShift        .... on
   Level shift para.    LevelShift      ....    0.2500
   Turn off err/grad.   ShiftErr        ....    0.0010
 Zerner damping         CNVZerner       .... off
 Static damping         CNVDamp         .... on
   Fraction old density DampFac         ....    0.7000
   Max. Damping (<1)    DampMax         ....    0.9800
   Min. Damping (>=0)   DampMin         ....    0.0000
   Turn off err/grad.   DampErr         ....    0.1000
 Fernandez-Rico         CNVRico         .... off

SCF Procedure:
 Maximum # iterations   MaxIter         ....   800
 SCF integral mode      SCFMode         .... Direct
   Integral package                     .... LIBINT
 Reset frequeny         DirectResetFreq ....    20
 Integral Threshold     Thresh          ....  2.500e-11 Eh
 Primitive CutOff       TCut            ....  2.500e-12 Eh

Convergence Tolerance:
 Convergence Check Mode ConvCheckMode   .... Total+1el-Energy
 Energy Change          TolE            ....  1.000e-08 Eh
 1-El. energy change                    ....  1.000e-05 Eh
 Orbital Gradient       TolG            ....  1.000e-05
 Orbital Rotation angle TolX            ....  1.000e-05
 DIIS Error             TolErr          ....  5.000e-07


Diagonalization of the overlap matrix:
Smallest eigenvalue                        ... 2.802e-02
Time for diagonalization                   ...    0.001 sec
Threshold for overlap eigenvalues          ... 1.000e-08
Number of eigenvalues below threshold      ... 0
Time for construction of square roots      ...    0.000 sec
Total time needed                          ...    0.001 sec

-------------------
DFT GRID GENERATION
-------------------

General Integration Accuracy     IntAcc      ...  4.340
Radial Grid Type                 RadialGrid  ... Gauss-Chebyshev
Angular Grid (max. acc.)         AngularGrid ... Lebedev-110
Angular grid pruning method      GridPruning ... 3 (G Style)
Weight generation scheme         WeightScheme... Becke
Basis function cutoff            BFCut       ...    1.0000e-11
Integration weight cutoff        WCut        ...    1.0000e-14
Grids for H and He will be reduced by one unit

# of grid points (after initial pruning)     ...   6608 (   0.0 sec)
# of grid points (after weights+screening)   ...   6480 (   0.0 sec)
nearest neighbour list constructed           ...    0.0 sec
Grid point re-assignment to atoms done       ...    0.0 sec
Grid point division into batches done        ...    0.0 sec
Reduced shell lists constructed in    0.0 sec

Total number of grid points                  ...     6480
Total number of batches                      ...      105
Average number of points per batch           ...       61
Average number of grid points per atom       ...     1080
Average number of shells per batch           ...    15.90 (66.25%)
Average number of basis functions per batch  ...    29.30 (61.04%)
Average number of large shells per batch     ...    12.90 (81.13%)
Average number of large basis fcns per batch ...    23.90 (81.57%)
Maximum spatial batch extension              ...  19.49, 12.83, 15.12 au
Average spatial batch extension              ...   0.79,  0.67,  0.57 au

Time for grid setup =    0.037 sec

------------------------------
INITIAL GUESS: MODEL POTENTIAL
------------------------------
Loading Hartree-Fock densities                     ... done
Calculating cut-offs                               ... done
Setting up the integral package                    ... done
Initializing the effective Hamiltonian             ... done
Starting the Coulomb interaction                   ... done (   0.0 sec)
Reading the grid                                   ... done
Mapping shells                                     ... done
Starting the XC term evaluation                    ... done (   0.0 sec)
  promolecular density results
     # of electrons  =     19.999971422
     EX              =    -17.579416018
     EC              =     -0.712790647
     EX+EC           =    -18.292206665
Transforming the Hamiltonian                       ... done (   0.0 sec)
Diagonalizing the Hamiltonian                      ... done (   0.0 sec)
Back transforming the eigenvectors                 ... done (   0.0 sec)
Now organizing SCF variables                       ... done
                      ------------------
                      INITIAL GUESS DONE (   0.1 sec)
                      ------------------
--------------
SCF ITERATIONS
--------------
ITER       Energy         Delta-E        Max-DP      RMS-DP      [F,P]     Damp
               ***  Starting incremental Fock matrix formation  ***
  0   -152.5711538187   0.000000000000 0.09396974  0.00655446  0.2986022 0.7000
  1   -152.6531168860  -0.081963067267 0.04933565  0.00351339  0.1118358 0.7000
                               ***Turning on DIIS***
  2   -152.6773733468  -0.024256460841 0.04497206  0.00346775  0.0152197 0.0000
  3   -152.7243051452  -0.046931798421 0.02731068  0.00201436  0.0650463 0.0000
  4   -152.7318037455  -0.007498600252 0.00569003  0.00046658  0.0104257 0.0000
                      *** Initiating the SOSCF procedure ***
                           *** Shutting down DIIS ***
                      *** Re-Reading the Fockian *** 
                      *** Removing any level shift *** 
ITER      Energy       Delta-E        Grad      Rot      Max-DP    RMS-DP
  5   -152.73204746  -0.0002437171  0.000954  0.000954  0.002198  0.000163
               *** Restarting incremental Fock matrix formation ***
  6   -152.73206165  -0.0000141901  0.000440  0.001211  0.001960  0.000135
  7   -152.73205964   0.0000020162  0.000827  0.000366  0.000933  0.000064
  8   -152.73206492  -0.0000052875  0.000052  0.000148  0.000190  0.000015
  9   -152.73206495  -0.0000000211  0.000043  0.000033  0.000063  0.000004
 10   -152.73206496  -0.0000000112  0.000020  0.000036  0.000044  0.000003
 11   -152.73206496  -0.0000000028  0.000004  0.000012  0.000011  0.000001
                  ***Gradient check signals convergence***
              ***Rediagonalizing the Fockian in SOSCF/NRSCF***

               *****************************************************
               *                     SUCCESS                       *
               *           SCF CONVERGED AFTER  12 CYCLES          *
               *****************************************************

Setting up the final grid:

General Integration Accuracy     IntAcc      ...  4.670
Radial Grid Type                 RadialGrid  ... Gauss-Chebyshev
Angular Grid (max. acc.)         AngularGrid ... Lebedev-302
Angular grid pruning method      GridPruning ... 3 (G Style)
Weight generation scheme         WeightScheme... Becke
Basis function cutoff            BFCut       ...    1.0000e-11
Integration weight cutoff        WCut        ...    1.0000e-14
Grids for H and He will be reduced by one unit

# of grid points (after initial pruning)     ...  26000 (   0.0 sec)
# of grid points (after weights+screening)   ...  25360 (   0.0 sec)
nearest neighbour list constructed           ...    0.0 sec
Grid point re-assignment to atoms done       ...    0.0 sec
Grid point division into batches done        ...    0.1 sec
Reduced shell lists constructed in    0.1 sec

Total number of grid points                  ...    25360
Total number of batches                      ...      399
Average number of points per batch           ...       63
Average number of grid points per atom       ...     4227
Average number of shells per batch           ...    14.17 (59.05%)
Average number of basis functions per batch  ...    26.40 (55.00%)
Average number of large shells per batch     ...    11.09 (78.23%)
Average number of large basis fcns per batch ...    20.06 (75.97%)
Maximum spatial batch extension              ...  16.88, 14.08, 12.68 au
Average spatial batch extension              ...   0.45,  0.42,  0.39 au

Final grid set up in    0.1 sec
Final integration                            ... done (   0.0 sec)
Change in XC energy                          ...     0.000177596
Integrated number of electrons               ...    19.999984665
Previous integrated no of electrons          ...    20.000381570

----------------
TOTAL SCF ENERGY
----------------

Total Energy       :         -152.73188736 Eh           -4156.04594 eV

Components:
Nuclear Repulsion  :           37.76210924 Eh            1027.55923 eV
Electronic Energy  :         -190.49399660 Eh           -5183.60518 eV

One Electron Energy:         -284.92135297 Eh           -7753.10417 eV
Two Electron Energy:           94.42735637 Eh            2569.49900 eV

Virial components:
Potential Energy   :         -304.39926788 Eh           -8283.12518 eV
Kinetic Energy     :          151.66738052 Eh            4127.07924 eV
Virial Ratio       :            2.00701869


DFT components:
N(Alpha)           :        9.999992332737 electrons
N(Beta)            :        9.999992332737 electrons
N(Total)           :       19.999984665475 electrons
E(X)               :      -17.989166393934 Eh       
E(C)               :       -0.733760387357 Eh       
E(XC)              :      -18.722926781291 Eh       

---------------
SCF CONVERGENCE
---------------

  Last Energy change         ...   -1.6112e-09  Tolerance :   1.0000e-08
  Last MAX-Density change    ...    2.1508e-06  Tolerance :   1.0000e-07
  Last RMS-Density change    ...    1.1804e-07  Tolerance :   5.0000e-09
  Last Orbital Gradient      ...    8.8960e-07  Tolerance :   1.0000e-05
  Last Orbital Rotation      ...    6.9613e-07  Tolerance :   1.0000e-05

             **** THE GBW FILE WAS UPDATED (0_BP86_2_h2o.gbw) ****
             **** DENSITY FILE WAS UPDATED (0_BP86_2_h2o.scfp.tmp) ****
             **** ENERGY FILE WAS UPDATED (0_BP86_2_h2o.en.tmp) ****
----------------
ORBITAL ENERGIES
----------------

  NO   OCC          E(Eh)            E(eV) 
   0   2.0000     -18.800576      -511.5897 
   1   2.0000     -18.712209      -509.1851 
   2   2.0000      -0.937499       -25.5107 
   3   2.0000      -0.853298       -23.2194 
   4   2.0000      -0.502560       -13.6754 
   5   2.0000      -0.432380       -11.7656 
   6   2.0000      -0.355799        -9.6818 
   7   2.0000      -0.283278        -7.7084 
   8   2.0000      -0.259814        -7.0699 
   9   2.0000      -0.195396        -5.3170 
  10   0.0000       0.010703         0.2913 
  11   0.0000       0.087947         2.3931 
  12   0.0000       0.090301         2.4572 
  13   0.0000       0.228994         6.2312 
  14   0.0000       0.489895        13.3307 
  15   0.0000       0.541820        14.7437 
  16   0.0000       0.569979        15.5099 
  17   0.0000       0.598434        16.2842 
  18   0.0000       0.810368        22.0512 
  19   0.0000       0.881048        23.9745 
  20   0.0000       0.900677        24.5087 
  21   0.0000       0.927996        25.2520 
  22   0.0000       0.936485        25.4830 
  23   0.0000       1.011991        27.5377 
  24   0.0000       1.038755        28.2660 
  25   0.0000       1.250039        34.0153 
  26   0.0000       1.254873        34.1468 
  27   0.0000       1.327021        36.1101 
  28   0.0000       1.335006        36.3274 
  29   0.0000       1.440686        39.2031 
  30   0.0000       1.526333        41.5336 
  31   0.0000       1.526700        41.5436 
  32   0.0000       1.716656        46.7126 
  33   0.0000       1.790915        48.7333 
  34   0.0000       2.112607        57.4870 
  35   0.0000       2.138774        58.1990 
  36   0.0000       2.200385        59.8755 
  37   0.0000       2.437833        66.3368 
  38   0.0000       2.847195        77.4761 
  39   0.0000       2.869869        78.0931 
  40   0.0000       2.918477        79.4158 
  41   0.0000       2.969331        80.7996 
  42   0.0000       3.067991        83.4843 
  43   0.0000       3.146595        85.6232 
  44   0.0000       3.374871        91.8349 
  45   0.0000       3.475159        94.5639 
  46   0.0000       3.701975       100.7359 
  47   0.0000       3.785994       103.0221 

                    ********************************
                    * MULLIKEN POPULATION ANALYSIS *
                    ********************************

-----------------------
MULLIKEN ATOMIC CHARGES
-----------------------
   0 O :   -0.323601
   1 H :    0.103247
   2 H :    0.134598
   3 O :   -0.246771
   4 H :    0.165947
   5 H :    0.166580
Sum of atomic charges:   -0.0000000

--------------------------------
MULLIKEN REDUCED ORBITAL CHARGES
--------------------------------
  0 O s       :     3.656914  s :     3.656914
      pz      :     1.268226  p :     4.656488
      px      :     1.774425
      py      :     1.613837
      dz2     :     0.001825  d :     0.010198
      dxz     :     0.000719
      dyz     :     0.003776
      dx2y2   :     0.001244
      dxy     :     0.002635
  1 H s       :     0.821545  s :     0.821545
      pz      :     0.036629  p :     0.075208
      px      :     0.018916
      py      :     0.019664
  2 H s       :     0.794322  s :     0.794322
      pz      :     0.022728  p :     0.071080
      px      :     0.023970
      py      :     0.024383
  3 O s       :     3.669852  s :     3.669852
      pz      :     1.546139  p :     4.566971
      px      :     1.321811
      py      :     1.699021
      dz2     :     0.001363  d :     0.009949
      dxz     :     0.002807
      dyz     :     0.003002
      dx2y2   :     0.002372
      dxy     :     0.000405
  4 H s       :     0.763312  s :     0.763312
      pz      :     0.024125  p :     0.070741
      px      :     0.020795
      py      :     0.025821
  5 H s       :     0.762572  s :     0.762572
      pz      :     0.018858  p :     0.070847
      px      :     0.032422
      py      :     0.019567


                     *******************************
                     * LOEWDIN POPULATION ANALYSIS *
                     *******************************

----------------------
LOEWDIN ATOMIC CHARGES
----------------------
   0 O :   -0.165068
   1 H :    0.011149
   2 H :    0.058702
   3 O :   -0.068793
   4 H :    0.081887
   5 H :    0.082122

-------------------------------
LOEWDIN REDUCED ORBITAL CHARGES
-------------------------------
  0 O s       :     3.416680  s :     3.416680
      pz      :     1.333089  p :     4.729294
      px      :     1.749426
      py      :     1.646779
      dz2     :     0.004681  d :     0.019094
      dxz     :     0.001707
      dyz     :     0.007614
      dx2y2   :     0.000770
      dxy     :     0.004321
  1 H s       :     0.774233  s :     0.774233
      pz      :     0.109463  p :     0.214618
      px      :     0.049800
      py      :     0.055355
  2 H s       :     0.760142  s :     0.760142
      pz      :     0.045068  p :     0.181156
      px      :     0.066200
      py      :     0.069887
  3 O s       :     3.408035  s :     3.408035
      pz      :     1.579980  p :     4.641489
      px      :     1.379902
      py      :     1.681607
      dz2     :     0.001761  d :     0.019268
      dxz     :     0.005466
      dyz     :     0.005635
      dx2y2   :     0.005256
      dxy     :     0.001151
  4 H s       :     0.738399  s :     0.738399
      pz      :     0.070556  p :     0.179713
      px      :     0.040604
      py      :     0.068553
  5 H s       :     0.738130  s :     0.738130
      pz      :     0.049581  p :     0.179748
      px      :     0.082419
      py      :     0.047748


                      *****************************
                      * MAYER POPULATION ANALYSIS *
                      *****************************

  NA   - Mulliken gross atomic population
  ZA   - Total nuclear charge
  QA   - Mulliken gross atomic charge
  VA   - Mayer's total valence
  BVA  - Mayer's bonded valence
  FA   - Mayer's free valence

  ATOM       NA         ZA         QA         VA         BVA        FA
  0 O      8.3236     8.0000    -0.3236     1.9956     1.9956    -0.0000
  1 H      0.8968     1.0000     0.1032     1.1254     1.1254    -0.0000
  2 H      0.8654     1.0000     0.1346     1.0179     1.0179    -0.0000
  3 O      8.2468     8.0000    -0.2468     2.1548     2.1548     0.0000
  4 H      0.8341     1.0000     0.1659     1.0102     1.0102     0.0000
  5 H      0.8334     1.0000     0.1666     1.0102     1.0102     0.0000

  Mayer bond orders larger than 0.1
B(  0-O ,  1-H ) :   0.9641 B(  0-O ,  2-H ) :   1.0143 B(  1-H ,  3-O ) :   0.1558 
B(  3-O ,  4-H ) :   0.9958 B(  3-O ,  5-H ) :   0.9958 

-------
TIMINGS
-------

Total SCF time: 0 days 0 hours 0 min 1 sec 

Total time                  ....       1.305 sec
Sum of individual times     ....       1.364 sec  (104.5%)

Fock matrix formation       ....       0.998 sec  ( 76.5%)
  Coulomb formation         ....       0.929 sec  ( 93.1% of F)
  Split-RI-J                ....       0.917 sec  ( 91.9% of F)
  XC integration            ....       0.066 sec  (  6.6% of F)
    Basis function eval.    ....       0.013 sec  ( 19.3% of XC)
    Density eval.           ....       0.006 sec  (  9.0% of XC)
    XC-Functional eval.     ....       0.007 sec  ( 11.1% of XC)
    XC-Potential eval.      ....       0.007 sec  ( 10.8% of XC)
Diagonalization             ....       0.003 sec  (  0.2%)
Density matrix formation    ....       0.059 sec  (  4.5%)
Population analysis         ....       0.001 sec  (  0.1%)
Initial guess               ....       0.120 sec  (  9.2%)
Orbital Transformation      ....       0.000 sec  (  0.0%)
Orbital Orthonormalization  ....       0.000 sec  (  0.0%)
DIIS solution               ....       0.001 sec  (  0.1%)
SOSCF solution              ....       0.041 sec  (  3.2%)
Grid generation             ....       0.141 sec  ( 10.8%)
           ************************************************************
           *              Shut down parallel processing               *
           ************************************************************

Entering the calculation of the dispersion correction...

Checking the input atom types...

Done


-------------------------------------------------------------------------------
                          DFT DISPERSION CORRECTION                            
                                                                               
                                DFTD3 V2.1  Rev 6                               
                          USING Becke-Johnson damping                          
-------------------------------------------------------------------------------
The BP86 functional is recognized
Active option DFTDOPT                   ...         4   

molecular C6(AA) [au] = 178.070426 


            DFT-D V3
 parameters
 s6 scaling factor         :     1.0000 
 a1 scaling factor         :     0.3946 
 s8 scaling factor         :     3.2822 
 a2 scaling factor         :     4.8516 
 ad hoc parameters k1-k3   :    16.0000     1.3333    -4.0000 

 Edisp/kcal,au: -1.208878316998  -0.001926470018 
 E6   /kcal   :  -0.539027643 
 E8   /kcal   :  -0.669850674 
 % E8         :  55.410926389 

-------------------------   ----------------
Dispersion correction           -0.001926470
-------------------------   ----------------


-------------------------   --------------------
FINAL SINGLE POINT ENERGY      -152.733813834943
-------------------------   --------------------

smp-n61.crc.pitt.edu.34510hfi_wait_for_device: The /dev/hfi1_0 device failed to appear after 15.0 seconds: Connection timed out
smp-n61.crc.pitt.edu.34511hfi_wait_for_device: The /dev/hfi1_0 device failed to appear after 15.0 seconds: Connection timed out
smp-n61.crc.pitt.edu.34512hfi_wait_for_device: The /dev/hfi1_0 device failed to appear after 15.0 seconds: Connection timed out
smp-n61.crc.pitt.edu.34513hfi_wait_for_device: The /dev/hfi1_0 device failed to appear after 15.0 seconds: Connection timed out
smp-n61.crc.pitt.edu.34514hfi_wait_for_device: The /dev/hfi1_0 device failed to appear after 15.0 seconds: Connection timed out
smp-n61.crc.pitt.edu.34515hfi_wait_for_device: The /dev/hfi1_0 device failed to appear after 15.0 seconds: Connection timed out
smp-n61.crc.pitt.edu.34521hfi_wait_for_device: The /dev/hfi1_0 device failed to appear after 15.0 seconds: Connection timed out
smp-n61.crc.pitt.edu.34517hfi_wait_for_device: The /dev/hfi1_0 device failed to appear after 15.0 seconds: Connection timed out
smp-n61.crc.pitt.edu.34519hfi_wait_for_device: The /dev/hfi1_0 device failed to appear after 15.0 seconds: Connection timed out
smp-n61.crc.pitt.edu.34523hfi_wait_for_device: The /dev/hfi1_0 device failed to appear after 15.0 seconds: Connection timed out
smp-n61.crc.pitt.edu.34525hfi_wait_for_device: The /dev/hfi1_0 device failed to appear after 15.0 seconds: Connection timed out
smp-n61.crc.pitt.edu.34527hfi_wait_for_device: The /dev/hfi1_0 device failed to appear after 15.0 seconds: Connection timed out


           ************************************************************
           *        Program running with 12 parallel MPI-processes    *
           *              working on a common directory               *
           ************************************************************
------------------------------------------------------------------------------
                         ORCA SCF GRADIENT CALCULATION
------------------------------------------------------------------------------

Gradient of the Kohn-Sham DFT energy:
Kohn-Sham wavefunction type      ... RKS
Hartree-Fock exchange scaling    ...    0.000
Number of operators              ...    1
Number of atoms                  ...    6
Basis set dimensions             ...   48
Integral neglect threshold       ... 2.5e-11
Integral primitive cutoff        ... 2.5e-12

Nuclear repulsion gradient       ... done
One Electron Gradient            ... done
Pre-screening matrix             ... done
RI-J gradient                    ... done
Exchange-correlation gradient    ... done
Dispersion correction            ... 
Entering the calculation of the dispersion correction...

Checking the input atom types...

Done
done

------------------
CARTESIAN GRADIENT
------------------

   1   O   :   -0.008842181    0.023357279   -0.019293360
   2   H   :    0.000062189   -0.010302233    0.022754890
   3   H   :    0.008516871   -0.011309996   -0.006408524
   4   O   :    0.010181498   -0.011096944   -0.014242056
   5   H   :    0.006797338    0.011739830    0.011737261
   6   H   :   -0.016715715   -0.002387937    0.005451788

Norm of the cartesian gradient     ...    0.054108215
RMS gradient                       ...    0.012753428
MAX gradient                       ...    0.023357279

-------
TIMINGS
-------

Total SCF gradient time            ...        0.222 sec

One electron gradient       ....       0.001 sec  (  0.4%)
Prescreening matrices       ....       0.004 sec  (  1.7%)
RI-J Coulomb gradient       ....       0.058 sec  ( 26.2%)
XC gradient                 ....       0.033 sec  ( 15.0%)
           ************************************************************
           *              Shut down parallel processing               *
           ************************************************************
------------------------------------------------------------------------------
                         ORCA GEOMETRY RELAXATION STEP
------------------------------------------------------------------------------

Reading the OPT-File                    .... done
Getting information on internals        .... done
Copying old internal coords+grads       .... done
Making the new internal coordinates     .... (new redundants).... done
Validating the new internal coordinates .... (new redundants).... done
Calculating the B-matrix                .... done
Calculating the G,G- and P matrices     .... done
Transforming gradient to internals      .... done
Projecting the internal gradient        .... done
Number of atoms                         ....   6
Number of internal coordinates          ....  13
Current Energy                          ....  -152.733813835 Eh
Current gradient norm                   ....     0.054108215 Eh/bohr
Maximum allowed component of the step   ....  0.300
Current trust radius                    ....  0.300
Evaluating the initial hessian          ....  (Almloef) done
Projecting the Hessian                  .... done
Forming the augmented Hessian           .... done
Diagonalizing the augmented Hessian     .... done
Last element of RFO vector              ....  0.989853549
Lowest eigenvalues of augmented Hessian:
 -0.003646841  0.001501180  0.024966438  0.102078928  0.205961206
Length of the computed step             ....  0.143547850
The final length of the internal step   ....  0.143547850
Converting the step to cartesian space:
 Initial RMS(Int)=    0.0398130102
Transforming coordinates:
 Iter   0:  RMS(Cart)=    0.0466129516 RMS(Int)=    0.0398194055
 Iter   1:  RMS(Cart)=    0.0001477303 RMS(Int)=    0.0001330948
 Iter   2:  RMS(Cart)=    0.0000060458 RMS(Int)=    0.0000085467
 Iter   3:  RMS(Cart)=    0.0000025298 RMS(Int)=    0.0000041137
 Iter   4:  RMS(Cart)=    0.0000013022 RMS(Int)=    0.0000021224
 Iter   5:  RMS(Cart)=    0.0000006718 RMS(Int)=    0.0000010951
 Iter   6:  RMS(Cart)=    0.0000003467 RMS(Int)=    0.0000005650
 Iter   7:  RMS(Cart)=    0.0000001789 RMS(Int)=    0.0000002915
 Iter   8:  RMS(Cart)=    0.0000000923 RMS(Int)=    0.0000001504
done
Storing new coordinates                 .... done

                                .--------------------.
          ----------------------|Geometry convergence|---------------------
          Item                value                 Tolerance   Converged
          -----------------------------------------------------------------
          RMS gradient        0.01145195            0.00010000      NO
          MAX gradient        0.02831208            0.00030000      NO
          RMS step            0.03981301            0.00200000      NO
          MAX step            0.11862775            0.00400000      NO
          ....................................................
          Max(Bonds)      0.0628      Max(Angles)    0.64
          Max(Dihed)        0.85      Max(Improp)    0.00
          -----------------------------------------------------------------

The optimization has not yet converged - more geometry cycles are needed


    ---------------------------------------------------------------------------
                         Redundant Internal Coordinates
                            (Angstroem and degrees)

        Definition                    Value    dE/dq     Step     New-Value
    ----------------------------------------------------------------------------
     1. B(H   1,O   0)                0.9572 -0.028312  0.0283    0.9855   
     2. B(H   2,O   0)                0.9572 -0.015427  0.0154    0.9726   
     3. B(O   3,H   1)                1.7908 -0.003349  0.0628    1.8536   
     4. B(H   4,O   3)                0.9572 -0.017922  0.0179    0.9751   
     5. B(H   5,O   3)                0.9572 -0.017727  0.0177    0.9749   
     6. A(H   1,O   0,H   2)          104.52  0.003652   -0.64    103.88   
     7. L(O   0,H   1,O   3,H   2, 1) 181.83  0.000583   -0.10    181.74   
     8. L(O   0,H   1,O   3,H   2, 2) 180.00 -0.000041    0.01    180.01   
     9. A(H   1,O   3,H   5)          114.06  0.001335   -0.55    113.52   
    10. A(H   1,O   3,H   4)          114.06  0.001226   -0.52    113.55   
    11. A(H   4,O   3,H   5)          104.52 -0.000018   -0.20    104.32   
    12. D(H   5,O   3,O   0,H   2)    120.24 -0.000954    0.85    121.09   
    13. D(H   4,O   3,O   0,H   2)   -120.24  0.000895   -0.20   -120.44   
    ----------------------------------------------------------------------------

         *************************************************************
         *                GEOMETRY OPTIMIZATION CYCLE   2            *
         *************************************************************
---------------------------------
CARTESIAN COORDINATES (ANGSTROEM)
---------------------------------
  O     -0.045802   -0.583103    1.523694
  H     -0.026474   -0.218030    0.608485
  H     -0.566929    0.068324    2.023778
  O      0.040434    0.424259   -1.128987
  H     -0.346287   -0.185150   -1.784688
  H      0.947177    0.581034   -1.451065

----------------------------
CARTESIAN COORDINATES (A.U.)
----------------------------
  NO LB      ZA    FRAG    MASS        X           Y           Z
   0 O     8.0000    0    15.999         -0.086552869634940         -1.101904625835963          2.879365027102312
   1 H     1.0000    0     1.008         -0.050029036491533         -0.412017367828752          1.149869218897757
   2 H     1.0000    0     1.008         -1.071340707630533          0.129114577786253          3.824386316910380
   3 O     8.0000    0    15.999          0.076408810479425          0.801733284204089         -2.133475918106291
   4 H     1.0000    0     1.008         -0.654387506301177         -0.349882397726043         -3.372572468093181
   5 H     1.0000    0     1.008          1.789904467626335          1.097994684162531         -2.742116001965137

--------------------------------
INTERNAL COORDINATES (ANGSTROEM)
--------------------------------
 O      0   0   0   0.000000     0.000     0.000
 H      1   0   0   0.985525     0.000     0.000
 H      1   2   0   0.972633   103.879     0.000
 O      2   1   3   1.853596   178.262   180.216
 H      4   2   1   0.975129   113.543    59.571
 H      4   2   1   0.974934   113.513   300.648

---------------------------
INTERNAL COORDINATES (A.U.)
---------------------------
 O      0   0   0   0.000000     0.000     0.000
 H      1   0   0   1.862373     0.000     0.000
 H      1   2   0   1.838010   103.879     0.000
 O      2   1   3   3.502789   178.262   180.216
 H      4   2   1   1.842727   113.543    59.571
 H      4   2   1   1.842357   113.513   300.648

smp-n61.crc.pitt.edu.34579hfi_wait_for_device: The /dev/hfi1_0 device failed to appear after 15.0 seconds: Connection timed out
smp-n61.crc.pitt.edu.34563hfi_wait_for_device: The /dev/hfi1_0 device failed to appear after 15.0 seconds: Connection timed out
smp-n61.crc.pitt.edu.34564hfi_wait_for_device: The /dev/hfi1_0 device failed to appear after 15.0 seconds: Connection timed out
smp-n61.crc.pitt.edu.34565hfi_wait_for_device: The /dev/hfi1_0 device failed to appear after 15.0 seconds: Connection timed out
smp-n61.crc.pitt.edu.34566hfi_wait_for_device: The /dev/hfi1_0 device failed to appear after 15.0 seconds: Connection timed out
smp-n61.crc.pitt.edu.34568hfi_wait_for_device: The /dev/hfi1_0 device failed to appear after 15.0 seconds: Connection timed out
smp-n61.crc.pitt.edu.34570hfi_wait_for_device: The /dev/hfi1_0 device failed to appear after 15.0 seconds: Connection timed out
smp-n61.crc.pitt.edu.34573hfi_wait_for_device: The /dev/hfi1_0 device failed to appear after 15.0 seconds: Connection timed out
smp-n61.crc.pitt.edu.34575hfi_wait_for_device: The /dev/hfi1_0 device failed to appear after 15.0 seconds: Connection timed out
smp-n61.crc.pitt.edu.34577hfi_wait_for_device: The /dev/hfi1_0 device failed to appear after 15.0 seconds: Connection timed out
smp-n61.crc.pitt.edu.34567hfi_wait_for_device: The /dev/hfi1_0 device failed to appear after 15.0 seconds: Connection timed out
smp-n61.crc.pitt.edu.34581hfi_wait_for_device: The /dev/hfi1_0 device failed to appear after 15.0 seconds: Connection timed out


           ************************************************************
           *        Program running with 12 parallel MPI-processes    *
           *              working on a common directory               *
           ************************************************************
 One Electron integrals                  ... done
 Pre-screening matrix                    ... done
           ************************************************************
           *              Shut down parallel processing               *
           ************************************************************
smp-n61.crc.pitt.edu.34617hfi_wait_for_device: The /dev/hfi1_0 device failed to appear after 15.0 seconds: Connection timed out
smp-n61.crc.pitt.edu.34619hfi_wait_for_device: The /dev/hfi1_0 device failed to appear after 15.0 seconds: Connection timed out
smp-n61.crc.pitt.edu.34627hfi_wait_for_device: The /dev/hfi1_0 device failed to appear after 15.0 seconds: Connection timed out
smp-n61.crc.pitt.edu.34631hfi_wait_for_device: The /dev/hfi1_0 device failed to appear after 15.0 seconds: Connection timed out
smp-n61.crc.pitt.edu.34616hfi_wait_for_device: The /dev/hfi1_0 device failed to appear after 15.0 seconds: Connection timed out
smp-n61.crc.pitt.edu.34618hfi_wait_for_device: The /dev/hfi1_0 device failed to appear after 15.0 seconds: Connection timed out
smp-n61.crc.pitt.edu.34620hfi_wait_for_device: The /dev/hfi1_0 device failed to appear after 15.0 seconds: Connection timed out
smp-n61.crc.pitt.edu.34623hfi_wait_for_device: The /dev/hfi1_0 device failed to appear after 15.0 seconds: Connection timed out
smp-n61.crc.pitt.edu.34621hfi_wait_for_device: The /dev/hfi1_0 device failed to appear after 15.0 seconds: Connection timed out
smp-n61.crc.pitt.edu.34625hfi_wait_for_device: The /dev/hfi1_0 device failed to appear after 15.0 seconds: Connection timed out
smp-n61.crc.pitt.edu.34629hfi_wait_for_device: The /dev/hfi1_0 device failed to appear after 15.0 seconds: Connection timed out
smp-n61.crc.pitt.edu.34633hfi_wait_for_device: The /dev/hfi1_0 device failed to appear after 15.0 seconds: Connection timed out


           ************************************************************
           *        Program running with 12 parallel MPI-processes    *
           *              working on a common directory               *
           ************************************************************

Diagonalization of the overlap matrix:
Smallest eigenvalue                        ... 3.031e-02
Time for diagonalization                   ...    0.001 sec
Threshold for overlap eigenvalues          ... 1.000e-08
Number of eigenvalues below threshold      ... 0
Time for construction of square roots      ...    0.000 sec
Total time needed                          ...    0.001 sec

-------------------
DFT GRID GENERATION
-------------------

General Integration Accuracy     IntAcc      ...  4.340
Radial Grid Type                 RadialGrid  ... Gauss-Chebyshev
Angular Grid (max. acc.)         AngularGrid ... Lebedev-110
Angular grid pruning method      GridPruning ... 3 (G Style)
Weight generation scheme         WeightScheme... Becke
Basis function cutoff            BFCut       ...    1.0000e-11
Integration weight cutoff        WCut        ...    1.0000e-14
Grids for H and He will be reduced by one unit

# of grid points (after initial pruning)     ...   6608 (   0.0 sec)
# of grid points (after weights+screening)   ...   6488 (   0.0 sec)
nearest neighbour list constructed           ...    0.0 sec
Grid point re-assignment to atoms done       ...    0.0 sec
Grid point division into batches done        ...    0.0 sec
Reduced shell lists constructed in    0.0 sec

Total number of grid points                  ...     6488
Total number of batches                      ...      106
Average number of points per batch           ...       61
Average number of grid points per atom       ...     1081
Average number of shells per batch           ...    15.60 (65.00%)
Average number of basis functions per batch  ...    28.20 (58.75%)
Average number of large shells per batch     ...    12.70 (81.41%)
Average number of large basis fcns per batch ...    23.70 (84.04%)
Maximum spatial batch extension              ...  19.46, 12.83, 15.12 au
Average spatial batch extension              ...   0.76,  0.67,  0.57 au

Time for grid setup =    0.012 sec

--------------
SCF ITERATIONS
--------------
ITER       Energy         Delta-E        Max-DP      RMS-DP      [F,P]     Damp
               ***  Starting incremental Fock matrix formation  ***
  0   -152.7333397791   0.000000000000 0.00415174  0.00030855  0.0100119 0.7000
                      *** Initiating the SOSCF procedure ***
                      *** Re-Reading the Fockian *** 
                      *** Removing any level shift *** 
ITER      Energy       Delta-E        Grad      Rot      Max-DP    RMS-DP
  1   -152.73351720  -0.0001774190  0.001028  0.001028  0.011859  0.000876
               *** Restarting incremental Fock matrix formation ***
  2   -152.73390061  -0.0003834093  0.001307  0.001676  0.003669  0.000264
  3   -152.73388225   0.0000183534  0.001921  0.001186  0.002256  0.000168
  4   -152.73391886  -0.0000366058  0.000152  0.000123  0.000349  0.000022
  5   -152.73391901  -0.0000001486  0.000081  0.000064  0.000141  0.000010
  6   -152.73391909  -0.0000000781  0.000048  0.000043  0.000125  0.000007
  7   -152.73391910  -0.0000000112  0.000036  0.000020  0.000070  0.000003
                  ***Gradient check signals convergence***
              ***Rediagonalizing the Fockian in SOSCF/NRSCF***

               *****************************************************
               *                     SUCCESS                       *
               *           SCF CONVERGED AFTER   8 CYCLES          *
               *****************************************************

Setting up the final grid:

General Integration Accuracy     IntAcc      ...  4.670
Radial Grid Type                 RadialGrid  ... Gauss-Chebyshev
Angular Grid (max. acc.)         AngularGrid ... Lebedev-302
Angular grid pruning method      GridPruning ... 3 (G Style)
Weight generation scheme         WeightScheme... Becke
Basis function cutoff            BFCut       ...    1.0000e-11
Integration weight cutoff        WCut        ...    1.0000e-14
Grids for H and He will be reduced by one unit

# of grid points (after initial pruning)     ...  26000 (   0.0 sec)
# of grid points (after weights+screening)   ...  25385 (   0.0 sec)
nearest neighbour list constructed           ...    0.0 sec
Grid point re-assignment to atoms done       ...    0.0 sec
Grid point division into batches done        ...    0.1 sec
Reduced shell lists constructed in    0.1 sec

Total number of grid points                  ...    25385
Total number of batches                      ...      400
Average number of points per batch           ...       63
Average number of grid points per atom       ...     4231
Average number of shells per batch           ...    14.20 (59.17%)
Average number of basis functions per batch  ...    26.43 (55.06%)
Average number of large shells per batch     ...    10.91 (76.86%)
Average number of large basis fcns per batch ...    19.77 (74.81%)
Maximum spatial batch extension              ...  16.88, 14.12, 12.68 au
Average spatial batch extension              ...   0.45,  0.41,  0.40 au

Final grid set up in    0.1 sec
Final integration                            ... done (   0.0 sec)
Change in XC energy                          ...     0.000167776
Integrated number of electrons               ...    19.999984471
Previous integrated no of electrons          ...    20.000449034
Total Energy       :         -152.73375133 Eh           -4156.09667 eV
  Last Energy change         ...   -1.2785e-08  Tolerance :   1.0000e-08
  Last MAX-Density change    ...    4.9557e-06  Tolerance :   1.0000e-07
             **** THE GBW FILE WAS UPDATED (0_BP86_2_h2o.gbw) ****
             **** DENSITY FILE WAS UPDATED (0_BP86_2_h2o.scfp.tmp) ****
             **** ENERGY FILE WAS UPDATED (0_BP86_2_h2o.en.tmp) ****
Total SCF time: 0 days 0 hours 0 min 0 sec 
           ************************************************************
           *              Shut down parallel processing               *
           ************************************************************

Entering the calculation of the dispersion correction...

Checking the input atom types...

Done


-------------------------------------------------------------------------------
                          DFT DISPERSION CORRECTION                            
                                                                               
                                DFTD3 V2.1  Rev 6                               
                          USING Becke-Johnson damping                          
-------------------------------------------------------------------------------
-------------------------   ----------------
Dispersion correction           -0.001881018
-------------------------   ----------------


-------------------------   --------------------
FINAL SINGLE POINT ENERGY      -152.735632352997
-------------------------   --------------------

smp-n61.crc.pitt.edu.34668hfi_wait_for_device: The /dev/hfi1_0 device failed to appear after 15.0 seconds: Connection timed out
smp-n61.crc.pitt.edu.34669hfi_wait_for_device: The /dev/hfi1_0 device failed to appear after 15.0 seconds: Connection timed out
smp-n61.crc.pitt.edu.34670hfi_wait_for_device: The /dev/hfi1_0 device failed to appear after 15.0 seconds: Connection timed out
smp-n61.crc.pitt.edu.34671hfi_wait_for_device: The /dev/hfi1_0 device failed to appear after 15.0 seconds: Connection timed out
smp-n61.crc.pitt.edu.34672hfi_wait_for_device: The /dev/hfi1_0 device failed to appear after 15.0 seconds: Connection timed out
smp-n61.crc.pitt.edu.34673hfi_wait_for_device: The /dev/hfi1_0 device failed to appear after 15.0 seconds: Connection timed out
smp-n61.crc.pitt.edu.34675hfi_wait_for_device: The /dev/hfi1_0 device failed to appear after 15.0 seconds: Connection timed out
smp-n61.crc.pitt.edu.34677hfi_wait_for_device: The /dev/hfi1_0 device failed to appear after 15.0 seconds: Connection timed out
smp-n61.crc.pitt.edu.34679hfi_wait_for_device: The /dev/hfi1_0 device failed to appear after 15.0 seconds: Connection timed out
smp-n61.crc.pitt.edu.34683hfi_wait_for_device: The /dev/hfi1_0 device failed to appear after 15.0 seconds: Connection timed out
smp-n61.crc.pitt.edu.34685hfi_wait_for_device: The /dev/hfi1_0 device failed to appear after 15.0 seconds: Connection timed out
smp-n61.crc.pitt.edu.34681hfi_wait_for_device: The /dev/hfi1_0 device failed to appear after 15.0 seconds: Connection timed out


           ************************************************************
           *        Program running with 12 parallel MPI-processes    *
           *              working on a common directory               *
           ************************************************************
------------------------------------------------------------------------------
                         ORCA SCF GRADIENT CALCULATION
------------------------------------------------------------------------------

Gradient of the Kohn-Sham DFT energy:
Kohn-Sham wavefunction type      ... RKS
Hartree-Fock exchange scaling    ...    0.000
Number of operators              ...    1
Number of atoms                  ...    6
Basis set dimensions             ...   48
Integral neglect threshold       ... 2.5e-11
Integral primitive cutoff        ... 2.5e-12

Nuclear repulsion gradient       ... done
One Electron Gradient            ... done
Pre-screening matrix             ... done
RI-J gradient                    ... done
Exchange-correlation gradient    ... done
Dispersion correction            ... 
Entering the calculation of the dispersion correction...

Checking the input atom types...

Done
done

------------------
CARTESIAN GRADIENT
------------------

   1   O   :   -0.001925755    0.003499883   -0.000645410
   2   H   :    0.000834380   -0.001139065   -0.001150722
   3   H   :    0.000680716   -0.001697925    0.001904489
   4   O   :    0.001783467   -0.002740324   -0.000188635
   5   H   :   -0.001143114    0.000819055   -0.000074799
   6   H   :   -0.000229694    0.001258376    0.000155078

Norm of the cartesian gradient     ...    0.006405831
RMS gradient                       ...    0.001509869
MAX gradient                       ...    0.003499883

-------
TIMINGS
-------

Total SCF gradient time            ...        0.215 sec

One electron gradient       ....       0.001 sec  (  0.4%)
Prescreening matrices       ....       0.004 sec  (  1.7%)
RI-J Coulomb gradient       ....       0.058 sec  ( 26.9%)
XC gradient                 ....       0.029 sec  ( 13.3%)
           ************************************************************
           *              Shut down parallel processing               *
           ************************************************************
------------------------------------------------------------------------------
                         ORCA GEOMETRY RELAXATION STEP
------------------------------------------------------------------------------

Reading the OPT-File                    .... done
Getting information on internals        .... done
Copying old internal coords+grads       .... done
Making the new internal coordinates     .... (new redundants).... done
Validating the new internal coordinates .... (new redundants).... done
Calculating the B-matrix                .... done
Calculating the G,G- and P matrices     .... done
Transforming gradient to internals      .... done
Projecting the internal gradient        .... done
Number of atoms                         ....   6
Number of internal coordinates          ....  13
Current Energy                          ....  -152.735632353 Eh
Current gradient norm                   ....     0.006405831 Eh/bohr
Maximum allowed component of the step   ....  0.300
Current trust radius                    ....  0.300
Updating the Hessian (BFGS)             .... done
Forming the augmented Hessian           .... done
Diagonalizing the augmented Hessian     .... done
Last element of RFO vector              ....  0.998663242
Lowest eigenvalues of augmented Hessian:
 -0.000163657  0.001503109  0.025028049  0.099106757  0.205257749
Length of the computed step             ....  0.051757951
The final length of the internal step   ....  0.051757951
Converting the step to cartesian space:
 Initial RMS(Int)=    0.0143550729
Transforming coordinates:
 Iter   0:  RMS(Cart)=    0.0105118343 RMS(Int)=    0.0143251649
 Iter   1:  RMS(Cart)=    0.0001413845 RMS(Int)=    0.0001892910
 Iter   2:  RMS(Cart)=    0.0000069338 RMS(Int)=    0.0000116582
 Iter   3:  RMS(Cart)=    0.0000034818 RMS(Int)=    0.0000056282
 Iter   4:  RMS(Cart)=    0.0000017689 RMS(Int)=    0.0000028479
 Iter   5:  RMS(Cart)=    0.0000008952 RMS(Int)=    0.0000014414
 Iter   6:  RMS(Cart)=    0.0000004531 RMS(Int)=    0.0000007295
 Iter   7:  RMS(Cart)=    0.0000002293 RMS(Int)=    0.0000003692
 Iter   8:  RMS(Cart)=    0.0000001160 RMS(Int)=    0.0000001868
 Iter   9:  RMS(Cart)=    0.0000000587 RMS(Int)=    0.0000000946
done
Storing new coordinates                 .... done

                                .--------------------.
          ----------------------|Geometry convergence|---------------------
          Item                value                 Tolerance   Converged
          -----------------------------------------------------------------
          Energy change      -0.00181852            0.00000500      NO
          RMS gradient        0.00157183            0.00010000      NO
          MAX gradient        0.00477820            0.00030000      NO
          RMS step            0.01435507            0.00200000      NO
          MAX step            0.04262045            0.00400000      NO
          ....................................................
          Max(Bonds)      0.0047      Max(Angles)    0.90
          Max(Dihed)        2.44      Max(Improp)    0.00
          -----------------------------------------------------------------

The optimization has not yet converged - more geometry cycles are needed


    ---------------------------------------------------------------------------
                         Redundant Internal Coordinates
                            (Angstroem and degrees)

        Definition                    Value    dE/dq     Step     New-Value
    ----------------------------------------------------------------------------
     1. B(H   1,O   0)                0.9855  0.000541  0.0007    0.9862   
     2. B(H   2,O   0)                0.9726 -0.000539  0.0012    0.9739   
     3. B(O   3,H   1)                1.8536 -0.000106  0.0047    1.8583   
     4. B(H   4,O   3)                0.9751 -0.000005  0.0008    0.9759   
     5. B(H   5,O   3)                0.9749 -0.000077  0.0008    0.9758   
     6. A(H   1,O   0,H   2)          103.88  0.004778   -0.90    102.98   
     7. L(O   0,H   1,O   3,H   2, 1) 181.74  0.000628   -0.07    181.66   
     8. L(O   0,H   1,O   3,H   2, 2) 180.01 -0.000041    0.01    180.02   
     9. A(H   1,O   3,H   5)          113.51  0.001233   -0.69    112.82   
    10. A(H   1,O   3,H   4)          113.54  0.001208   -0.68    112.86   
    11. A(H   4,O   3,H   5)          104.31  0.001007   -0.55    103.77   
    12. D(H   5,O   3,O   0,H   2)    121.09 -0.001510    2.44    123.53   
    13. D(H   4,O   3,O   0,H   2)   -120.44  0.001421    0.69   -119.75   
    ----------------------------------------------------------------------------

         *************************************************************
         *                GEOMETRY OPTIMIZATION CYCLE   3            *
         *************************************************************
---------------------------------
CARTESIAN COORDINATES (ANGSTROEM)
---------------------------------
  O     -0.037245   -0.583422    1.525730
  H     -0.021966   -0.215910    0.610709
  H     -0.575689    0.065412    2.013056
  O      0.036946    0.434428   -1.129069
  H     -0.347762   -0.184503   -1.778155
  H      0.947835    0.571329   -1.451055

----------------------------
CARTESIAN COORDINATES (A.U.)
----------------------------
  NO LB      ZA    FRAG    MASS        X           Y           Z
   0 O     8.0000    0    15.999         -0.070381988595384         -1.102506960805214          2.883211696390109
   1 H     1.0000    0     1.008         -0.041509524151373         -0.408011598545090          1.154072704027922
   2 H     1.0000    0     1.008         -1.087894543305790          0.123611100502526          3.804125085713820
   3 O     8.0000    0    15.999          0.069816989885289          0.820950132545531         -2.133630591493588
   4 H     1.0000    0     1.008         -0.657175803058880         -0.348659589751792         -3.360226165632706
   5 H     1.0000    0     1.008          1.791148027273713          1.079655070816155         -2.742096554259717

--------------------------------
INTERNAL COORDINATES (ANGSTROEM)
--------------------------------
 O      0   0   0   0.000000     0.000     0.000
 H      1   0   0   0.986185     0.000     0.000
 H      1   2   0   0.973856   102.978     0.000
 O      2   1   3   1.858289   178.331   180.479
 H      4   2   1   0.975904   112.845    60.003
 H      4   2   1   0.975775   112.807   302.826

---------------------------
INTERNAL COORDINATES (A.U.)
---------------------------
 O      0   0   0   0.000000     0.000     0.000
 H      1   0   0   1.863620     0.000     0.000
 H      1   2   0   1.840320   102.978     0.000
 O      2   1   3   3.511657   178.331   180.479
 H      4   2   1   1.844191   112.845    60.003
 H      4   2   1   1.843947   112.807   302.826

smp-n61.crc.pitt.edu.34721hfi_wait_for_device: The /dev/hfi1_0 device failed to appear after 15.0 seconds: Connection timed out
smp-n61.crc.pitt.edu.34723hfi_wait_for_device: The /dev/hfi1_0 device failed to appear after 15.0 seconds: Connection timed out
smp-n61.crc.pitt.edu.34734hfi_wait_for_device: The /dev/hfi1_0 device failed to appear after 15.0 seconds: Connection timed out
smp-n61.crc.pitt.edu.34736hfi_wait_for_device: The /dev/hfi1_0 device failed to appear after 15.0 seconds: Connection timed out
smp-n61.crc.pitt.edu.34738hfi_wait_for_device: The /dev/hfi1_0 device failed to appear after 15.0 seconds: Connection timed out
smp-n61.crc.pitt.edu.34722hfi_wait_for_device: The /dev/hfi1_0 device failed to appear after 15.0 seconds: Connection timed out
smp-n61.crc.pitt.edu.34724hfi_wait_for_device: The /dev/hfi1_0 device failed to appear after 15.0 seconds: Connection timed out
smp-n61.crc.pitt.edu.34725hfi_wait_for_device: The /dev/hfi1_0 device failed to appear after 15.0 seconds: Connection timed out
smp-n61.crc.pitt.edu.34728hfi_wait_for_device: The /dev/hfi1_0 device failed to appear after 15.0 seconds: Connection timed out
smp-n61.crc.pitt.edu.34726hfi_wait_for_device: The /dev/hfi1_0 device failed to appear after 15.0 seconds: Connection timed out
smp-n61.crc.pitt.edu.34731hfi_wait_for_device: The /dev/hfi1_0 device failed to appear after 15.0 seconds: Connection timed out
smp-n61.crc.pitt.edu.34732hfi_wait_for_device: The /dev/hfi1_0 device failed to appear after 15.0 seconds: Connection timed out


           ************************************************************
           *        Program running with 12 parallel MPI-processes    *
           *              working on a common directory               *
           ************************************************************
 One Electron integrals                  ... done
 Pre-screening matrix                    ... done
           ************************************************************
           *              Shut down parallel processing               *
           ************************************************************
smp-n61.crc.pitt.edu.34748hfi_wait_for_device: The /dev/hfi1_0 device failed to appear after 15.0 seconds: Connection timed out
smp-n61.crc.pitt.edu.34749hfi_wait_for_device: The /dev/hfi1_0 device failed to appear after 15.0 seconds: Connection timed out
smp-n61.crc.pitt.edu.34750hfi_wait_for_device: The /dev/hfi1_0 device failed to appear after 15.0 seconds: Connection timed out
smp-n61.crc.pitt.edu.34751hfi_wait_for_device: The /dev/hfi1_0 device failed to appear after 15.0 seconds: Connection timed out
smp-n61.crc.pitt.edu.34753hfi_wait_for_device: The /dev/hfi1_0 device failed to appear after 15.0 seconds: Connection timed out
smp-n61.crc.pitt.edu.34754hfi_wait_for_device: The /dev/hfi1_0 device failed to appear after 15.0 seconds: Connection timed out
smp-n61.crc.pitt.edu.34756hfi_wait_for_device: The /dev/hfi1_0 device failed to appear after 15.0 seconds: Connection timed out
smp-n61.crc.pitt.edu.34761hfi_wait_for_device: The /dev/hfi1_0 device failed to appear after 15.0 seconds: Connection timed out
smp-n61.crc.pitt.edu.34763hfi_wait_for_device: The /dev/hfi1_0 device failed to appear after 15.0 seconds: Connection timed out
smp-n61.crc.pitt.edu.34764hfi_wait_for_device: The /dev/hfi1_0 device failed to appear after 15.0 seconds: Connection timed out
smp-n61.crc.pitt.edu.34766hfi_wait_for_device: The /dev/hfi1_0 device failed to appear after 15.0 seconds: Connection timed out
smp-n61.crc.pitt.edu.34759hfi_wait_for_device: The /dev/hfi1_0 device failed to appear after 15.0 seconds: Connection timed out


           ************************************************************
           *        Program running with 12 parallel MPI-processes    *
           *              working on a common directory               *
           ************************************************************

Diagonalization of the overlap matrix:
Smallest eigenvalue                        ... 3.026e-02
Time for diagonalization                   ...    0.001 sec
Threshold for overlap eigenvalues          ... 1.000e-08
Number of eigenvalues below threshold      ... 0
Time for construction of square roots      ...    0.000 sec
Total time needed                          ...    0.001 sec

-------------------
DFT GRID GENERATION
-------------------

General Integration Accuracy     IntAcc      ...  4.340
Radial Grid Type                 RadialGrid  ... Gauss-Chebyshev
Angular Grid (max. acc.)         AngularGrid ... Lebedev-110
Angular grid pruning method      GridPruning ... 3 (G Style)
Weight generation scheme         WeightScheme... Becke
Basis function cutoff            BFCut       ...    1.0000e-11
Integration weight cutoff        WCut        ...    1.0000e-14
Grids for H and He will be reduced by one unit

# of grid points (after initial pruning)     ...   6608 (   0.0 sec)
# of grid points (after weights+screening)   ...   6489 (   0.0 sec)
nearest neighbour list constructed           ...    0.0 sec
Grid point re-assignment to atoms done       ...    0.0 sec
Grid point division into batches done        ...    0.0 sec
Reduced shell lists constructed in    0.0 sec

Total number of grid points                  ...     6489
Total number of batches                      ...      104
Average number of points per batch           ...       62
Average number of grid points per atom       ...     1082
Average number of shells per batch           ...    15.60 (65.00%)
Average number of basis functions per batch  ...    28.20 (58.75%)
Average number of large shells per batch     ...    12.70 (81.41%)
Average number of large basis fcns per batch ...    23.70 (84.04%)
Maximum spatial batch extension              ...  19.43, 12.83, 15.12 au
Average spatial batch extension              ...   0.77,  0.68,  0.58 au

Time for grid setup =    0.011 sec

--------------
SCF ITERATIONS
--------------
ITER       Energy         Delta-E        Max-DP      RMS-DP      [F,P]     Damp
               ***  Starting incremental Fock matrix formation  ***
                      *** Initiating the SOSCF procedure ***
                      *** Re-Reading the Fockian *** 
                      *** Removing any level shift *** 
ITER      Energy       Delta-E        Grad      Rot      Max-DP    RMS-DP
  0   -152.73392758 -152.7339275784  0.002220  0.002220  0.008524  0.000487
               *** Restarting incremental Fock matrix formation ***
  1   -152.73405943  -0.0001318494  0.000408  0.001475  0.001824  0.000144
  2   -152.73406583  -0.0000064002  0.000304  0.000419  0.000775  0.000052
  3   -152.73406546   0.0000003647  0.000364  0.000264  0.000443  0.000035
  4   -152.73406647  -0.0000010094  0.000021  0.000024  0.000064  0.000004
  5   -152.73406647   0.0000000034  0.000035  0.000015  0.000038  0.000002
                 **** Energy Check signals convergence ****
              ***Rediagonalizing the Fockian in SOSCF/NRSCF***

               *****************************************************
               *                     SUCCESS                       *
               *           SCF CONVERGED AFTER   6 CYCLES          *
               *****************************************************

Setting up the final grid:

General Integration Accuracy     IntAcc      ...  4.670
Radial Grid Type                 RadialGrid  ... Gauss-Chebyshev
Angular Grid (max. acc.)         AngularGrid ... Lebedev-302
Angular grid pruning method      GridPruning ... 3 (G Style)
Weight generation scheme         WeightScheme... Becke
Basis function cutoff            BFCut       ...    1.0000e-11
Integration weight cutoff        WCut        ...    1.0000e-14
Grids for H and He will be reduced by one unit

# of grid points (after initial pruning)     ...  26000 (   0.0 sec)
# of grid points (after weights+screening)   ...  25382 (   0.0 sec)
nearest neighbour list constructed           ...    0.0 sec
Grid point re-assignment to atoms done       ...    0.0 sec
Grid point division into batches done        ...    0.1 sec
Reduced shell lists constructed in    0.1 sec

Total number of grid points                  ...    25382
Total number of batches                      ...      400
Average number of points per batch           ...       63
Average number of grid points per atom       ...     4230
Average number of shells per batch           ...    13.89 (57.86%)
Average number of basis functions per batch  ...    25.60 (53.33%)
Average number of large shells per batch     ...    10.77 (77.57%)
Average number of large basis fcns per batch ...    19.63 (76.67%)
Maximum spatial batch extension              ...  16.88, 14.11, 12.70 au
Average spatial batch extension              ...   0.46,  0.42,  0.40 au

Final grid set up in    0.1 sec
Final integration                            ... done (   0.0 sec)
Change in XC energy                          ...     0.000181593
Integrated number of electrons               ...    19.999985475
Previous integrated no of electrons          ...    20.000385012
Total Energy       :         -152.73388488 Eh           -4156.10030 eV
  Last Energy change         ...   -6.6065e-09  Tolerance :   1.0000e-08
  Last MAX-Density change    ...    6.6472e-06  Tolerance :   1.0000e-07
             **** THE GBW FILE WAS UPDATED (0_BP86_2_h2o.gbw) ****
[...]
Number of eigenvalues below threshold      ... 0
Time for construction of square roots      ...    0.000 sec
Total time needed                          ...    0.001 sec

---------------------
INITIAL GUESS: MOREAD
---------------------
Guess MOs are being read from file: 0_BP86_2_h2o.gbw
Input Geometry matches current geometry (good)
Input basis set matches current basis set (good)
MOs were renormalized
MOs were reorthogonalized (Schmidt)
                      ------------------
                      INITIAL GUESS DONE (   0.0 sec)
                      ------------------
-------------------
DFT GRID GENERATION
-------------------

General Integration Accuracy     IntAcc      ...  4.340
Radial Grid Type                 RadialGrid  ... Gauss-Chebyshev
Angular Grid (max. acc.)         AngularGrid ... Lebedev-110
Angular grid pruning method      GridPruning ... 3 (G Style)
Weight generation scheme         WeightScheme... Becke
Basis function cutoff            BFCut       ...    1.0000e-11
Integration weight cutoff        WCut        ...    1.0000e-14
Grids for H and He will be reduced by one unit

# of grid points (after initial pruning)     ...   6608 (   0.0 sec)
# of grid points (after weights+screening)   ...   6459 (   0.0 sec)
nearest neighbour list constructed           ...    0.0 sec
Grid point re-assignment to atoms done       ...    0.0 sec
Grid point division into batches done        ...    0.0 sec
Reduced shell lists constructed in    0.0 sec

Total number of grid points                  ...     6459
Total number of batches                      ...      104
Average number of points per batch           ...       62
Average number of grid points per atom       ...     1076
Average number of shells per batch           ...    17.40 (72.50%)
Average number of basis functions per batch  ...    32.80 (68.33%)
Average number of large shells per batch     ...    13.60 (78.16%)
Average number of large basis fcns per batch ...    24.80 (75.61%)
Maximum spatial batch extension              ...  19.52, 13.84, 13.05 au
Average spatial batch extension              ...   0.75,  0.58,  0.55 au

Time for grid setup =    0.011 sec

--------------
SCF ITERATIONS
--------------
ITER       Energy         Delta-E        Max-DP      RMS-DP      [F,P]     Damp
               ***  Starting incremental Fock matrix formation  ***
                      *** Initiating the SOSCF procedure ***
                      *** Re-Reading the Fockian *** 
                      *** Removing any level shift *** 
ITER      Energy       Delta-E        Grad      Rot      Max-DP    RMS-DP
  0   -152.73465398 -152.7346539752  0.000193  0.000193  0.000626  0.000039
               *** Restarting incremental Fock matrix formation ***
  1   -152.73465499  -0.0000010108  0.000040  0.000110  0.000130  0.000011
  2   -152.73465503  -0.0000000485  0.000016  0.000024  0.000049  0.000003
  3   -152.73465503   0.0000000031  0.000025  0.000015  0.000030  0.000002
                  ***Gradient check signals convergence***
              ***Rediagonalizing the Fockian in SOSCF/NRSCF***

               *****************************************************
               *                     SUCCESS                       *
               *           SCF CONVERGED AFTER   4 CYCLES          *
               *****************************************************

Setting up the final grid:

General Integration Accuracy     IntAcc      ...  4.670
Radial Grid Type                 RadialGrid  ... Gauss-Chebyshev
Angular Grid (max. acc.)         AngularGrid ... Lebedev-302
Angular grid pruning method      GridPruning ... 3 (G Style)
Weight generation scheme         WeightScheme... Becke
Basis function cutoff            BFCut       ...    1.0000e-11
Integration weight cutoff        WCut        ...    1.0000e-14
Grids for H and He will be reduced by one unit

# of grid points (after initial pruning)     ...  26000 (   0.0 sec)
# of grid points (after weights+screening)   ...  25338 (   0.0 sec)
nearest neighbour list constructed           ...    0.0 sec
Grid point re-assignment to atoms done       ...    0.0 sec
Grid point division into batches done        ...    0.1 sec
Reduced shell lists constructed in    0.1 sec

Total number of grid points                  ...    25338
Total number of batches                      ...      399
Average number of points per batch           ...       63
Average number of grid points per atom       ...     4223
Average number of shells per batch           ...    15.23 (63.45%)
Average number of basis functions per batch  ...    28.26 (58.87%)
Average number of large shells per batch     ...    11.94 (78.42%)
Average number of large basis fcns per batch ...    21.89 (77.45%)
Maximum spatial batch extension              ...  15.43, 14.34, 11.49 au
Average spatial batch extension              ...   0.39,  0.39,  0.37 au

Final grid set up in    0.1 sec
Final integration                            ... done (   0.0 sec)
Change in XC energy                          ...     0.000047521
Integrated number of electrons               ...    19.999988269
Previous integrated no of electrons          ...    19.999768260

----------------
TOTAL SCF ENERGY
----------------

Total Energy       :         -152.73460752 Eh           -4156.11996 eV

Components:
Nuclear Repulsion  :           37.01894228 Eh            1007.33663 eV
Electronic Energy  :         -189.75354979 Eh           -5163.45659 eV

One Electron Energy:         -283.40128163 Eh           -7711.74093 eV
Two Electron Energy:           93.64773183 Eh            2548.28434 eV

Virial components:
Potential Energy   :         -304.28202238 Eh           -8279.93477 eV
Kinetic Energy     :          151.54741487 Eh            4123.81481 eV
Virial Ratio       :            2.00783380


DFT components:
N(Alpha)           :        9.999994134313 electrons
N(Beta)            :        9.999994134313 electrons
N(Total)           :       19.999988268626 electrons
E(X)               :      -17.946892822736 Eh       
E(C)               :       -0.731295995243 Eh       
E(XC)              :      -18.678188817979 Eh       

---------------
SCF CONVERGENCE
---------------

  Last Energy change         ...   -4.8852e-09  Tolerance :   1.0000e-08
  Last MAX-Density change    ...    1.2036e-06  Tolerance :   1.0000e-07
  Last RMS-Density change    ...    8.4557e-08  Tolerance :   5.0000e-09
  Last Orbital Gradient      ...    5.3052e-07  Tolerance :   1.0000e-05
  Last Orbital Rotation      ...    9.9932e-07  Tolerance :   1.0000e-05

             **** THE GBW FILE WAS UPDATED (0_BP86_2_h2o.gbw) ****
             **** DENSITY FILE WAS UPDATED (0_BP86_2_h2o.scfp.tmp) ****
             **** ENERGY FILE WAS UPDATED (0_BP86_2_h2o.en.tmp) ****
----------------
ORBITAL ENERGIES
----------------

  NO   OCC          E(Eh)            E(eV) 
   0   2.0000     -18.802748      -511.6488 
   1   2.0000     -18.730905      -509.6938 
   2   2.0000      -0.929764       -25.3002 
   3   2.0000      -0.859638       -23.3919 
   4   2.0000      -0.490350       -13.3431 
   5   2.0000      -0.430276       -11.7084 
   6   2.0000      -0.353156        -9.6099 
   7   2.0000      -0.296599        -8.0709 
   8   2.0000      -0.266078        -7.2404 
   9   2.0000      -0.207929        -5.6580 
  10   0.0000       0.006979         0.1899 
  11   0.0000       0.073652         2.0042 
  12   0.0000       0.086795         2.3618 
  13   0.0000       0.193481         5.2649 
  14   0.0000       0.478332        13.0161 
  15   0.0000       0.536171        14.5900 
  16   0.0000       0.557928        15.1820 
  17   0.0000       0.577441        15.7130 
  18   0.0000       0.809113        22.0171 
  19   0.0000       0.891117        24.2485 
  20   0.0000       0.892640        24.2900 
  21   0.0000       0.918702        24.9991 
  22   0.0000       0.928694        25.2710 
  23   0.0000       0.986955        26.8564 
  24   0.0000       1.032078        28.0843 
  25   0.0000       1.233828        33.5742 
  26   0.0000       1.247538        33.9472 
  27   0.0000       1.325416        36.0664 
  28   0.0000       1.347840        36.6766 
  29   0.0000       1.386097        37.7176 
  30   0.0000       1.470042        40.0019 
  31   0.0000       1.502554        40.8866 
  32   0.0000       1.694469        46.1088 
  33   0.0000       1.785030        48.5731 
  34   0.0000       2.070218        56.3335 
  35   0.0000       2.080004        56.5998 
  36   0.0000       2.152950        58.5848 
  37   0.0000       2.358589        64.1805 
  38   0.0000       2.848227        77.5042 
  39   0.0000       2.849795        77.5469 
  40   0.0000       2.890873        78.6647 
  41   0.0000       2.918208        79.4085 
  42   0.0000       3.038046        82.6694 
  43   0.0000       3.116979        84.8173 
  44   0.0000       3.362579        91.5004 
  45   0.0000       3.423318        93.1532 
  46   0.0000       3.685157       100.2782 
  47   0.0000       3.761814       102.3642 

                    ********************************
                    * MULLIKEN POPULATION ANALYSIS *
                    ********************************

-----------------------
MULLIKEN ATOMIC CHARGES
-----------------------
   0 O :   -0.337627
   1 H :    0.097007
   2 H :    0.146207
   3 O :   -0.253259
   4 H :    0.173244
   5 H :    0.174428
Sum of atomic charges:   -0.0000000

--------------------------------
MULLIKEN REDUCED ORBITAL CHARGES
--------------------------------
  0 O s       :     3.692334  s :     3.692334
      pz      :     1.229233  p :     4.635568
      px      :     1.792475
      py      :     1.613860
      dz2     :     0.000243  d :     0.009726
      dxz     :     0.001319
      dyz     :     0.004594
      dx2y2   :     0.001400
      dxy     :     0.002170
  1 H s       :     0.831369  s :     0.831369
      pz      :     0.032596  p :     0.071624
      px      :     0.017781
      py      :     0.021246
  2 H s       :     0.784883  s :     0.784883
      pz      :     0.024661  p :     0.068910
      px      :     0.022706
      py      :     0.021543
  3 O s       :     3.704181  s :     3.704181
      pz      :     1.787603  p :     4.538965
      px      :     1.264577
      py      :     1.486786
      dz2     :     0.001442  d :     0.010113
      dxz     :     0.000408
      dyz     :     0.001941
      dx2y2   :     0.004855
      dxy     :     0.001468
  4 H s       :     0.758060  s :     0.758060
      pz      :     0.020680  p :     0.068695
      px      :     0.018482
      py      :     0.029534
  5 H s       :     0.756531  s :     0.756531
      pz      :     0.019027  p :     0.069041
      px      :     0.033495
      py      :     0.016518


                     *******************************
                     * LOEWDIN POPULATION ANALYSIS *
                     *******************************

----------------------
LOEWDIN ATOMIC CHARGES
----------------------
   0 O :   -0.187510
   1 H :    0.029505
   2 H :    0.070862
   3 O :   -0.095803
   4 H :    0.091264
   5 H :    0.091681

-------------------------------
LOEWDIN REDUCED ORBITAL CHARGES
-------------------------------
  0 O s       :     3.452714  s :     3.452714
      pz      :     1.294056  p :     4.716785
      px      :     1.771314
      py      :     1.651415
      dz2     :     0.001306  d :     0.018011
      dxz     :     0.003056
      dyz     :     0.009649
      dx2y2   :     0.001033
      dxy     :     0.002967
  1 H s       :     0.774917  s :     0.774917
      pz      :     0.087478  p :     0.195578
      px      :     0.045899
      py      :     0.062201
  2 H s       :     0.755901  s :     0.755901
      pz      :     0.051647  p :     0.173236
      px      :     0.062035
      py      :     0.059554
  3 O s       :     3.449889  s :     3.449889
      pz      :     1.754265  p :     4.627249
      px      :     1.336005
      py      :     1.536979
      dz2     :     0.002925  d :     0.018664
      dxz     :     0.000383
      dyz     :     0.003028
      dx2y2   :     0.009991
      dxy     :     0.002337
  4 H s       :     0.737501  s :     0.737501
      pz      :     0.055997  p :     0.171235
      px      :     0.033315
      py      :     0.081922
  5 H s       :     0.736937  s :     0.736937
      pz      :     0.048122  p :     0.171382
      px      :     0.086553
      py      :     0.036708


                      *****************************
                      * MAYER POPULATION ANALYSIS *
                      *****************************

  NA   - Mulliken gross atomic population
  ZA   - Total nuclear charge
  QA   - Mulliken gross atomic charge
  VA   - Mayer's total valence
  BVA  - Mayer's bonded valence
  FA   - Mayer's free valence

  ATOM       NA         ZA         QA         VA         BVA        FA
  0 O      8.3376     8.0000    -0.3376     1.9760     1.9760     0.0000
  1 H      0.9030     1.0000     0.0970     1.1259     1.1259     0.0000
  2 H      0.8538     1.0000     0.1462     1.0113     1.0113     0.0000
  3 O      8.2533     8.0000    -0.2533     2.1667     2.1667    -0.0000
  4 H      0.8268     1.0000     0.1732     1.0046     1.0046    -0.0000
  5 H      0.8256     1.0000     0.1744     1.0050     1.0050     0.0000

  Mayer bond orders larger than 0.1
B(  0-O ,  1-H ) :   0.9443 B(  0-O ,  2-H ) :   1.0077 B(  1-H ,  3-O ) :   0.1762 
B(  3-O ,  4-H ) :   0.9897 B(  3-O ,  5-H ) :   0.9907 

-------
TIMINGS
-------

Total SCF time: 0 days 0 hours 0 min 0 sec 

Total time                  ....       0.515 sec
Sum of individual times     ....       0.512 sec  ( 99.5%)

Fock matrix formation       ....       0.357 sec  ( 69.4%)
  Coulomb formation         ....       0.331 sec  ( 92.6% of F)
  Split-RI-J                ....       0.329 sec  ( 92.0% of F)
  XC integration            ....       0.025 sec  (  7.0% of F)
    Basis function eval.    ....       0.006 sec  ( 23.0% of XC)
    Density eval.           ....       0.003 sec  ( 10.8% of XC)
    XC-Functional eval.     ....       0.003 sec  ( 13.9% of XC)
    XC-Potential eval.      ....       0.003 sec  ( 13.3% of XC)
Diagonalization             ....       0.000 sec  (  0.1%)
Density matrix formation    ....       0.013 sec  (  2.5%)
Population analysis         ....       0.001 sec  (  0.2%)
Initial guess               ....       0.001 sec  (  0.2%)
Orbital Transformation      ....       0.000 sec  (  0.0%)
Orbital Orthonormalization  ....       0.001 sec  (  0.1%)
DIIS solution               ....       0.000 sec  (  0.0%)
SOSCF solution              ....       0.035 sec  (  6.9%)
Grid generation             ....       0.104 sec  ( 20.2%)
           ************************************************************
           *              Shut down parallel processing               *
           ************************************************************

Entering the calculation of the dispersion correction...

Checking the input atom types...

Done


-------------------------------------------------------------------------------
                          DFT DISPERSION CORRECTION                            
                                                                               
                                DFTD3 V2.1  Rev 6                               
                          USING Becke-Johnson damping                          
-------------------------------------------------------------------------------
The BP86 functional is recognized
Active option DFTDOPT                   ...         4   

molecular C6(AA) [au] = 178.155156 


            DFT-D V3
 parameters
 s6 scaling factor         :     1.0000 
 a1 scaling factor         :     0.3946 
 s8 scaling factor         :     3.2822 
 a2 scaling factor         :     4.8516 
 ad hoc parameters k1-k3   :    16.0000     1.3333    -4.0000 

 Edisp/kcal,au: -1.230110569328  -0.001960305763 
 E6   /kcal   :  -0.548371674 
 E8   /kcal   :  -0.681738896 
 % E8         :  55.420944483 

-------------------------   ----------------
Dispersion correction           -0.001960306
-------------------------   ----------------


-------------------------   --------------------
FINAL SINGLE POINT ENERGY      -152.736567821495
-------------------------   --------------------

                                *** OPTIMIZATION RUN DONE ***

                            ***************************************
                            *     ORCA property calculations      *
                            ***************************************

                                    ---------------------
                                    Active property flags
                                    ---------------------
   (+) Dipole Moment


------------------------------------------------------------------------------
                       ORCA ELECTRIC PROPERTIES CALCULATION
------------------------------------------------------------------------------

Dipole Moment Calculation                       ... on
Quadrupole Moment Calculation                   ... off
Polarizability Calculation                      ... off
GBWName                                         ... 0_BP86_2_h2o.gbw
Electron density file                           ... 0_BP86_2_h2o.scfp.tmp

-------------
DIPOLE MOMENT
-------------
                                X             Y             Z
Electronic contribution:      0.01370       0.06512      -0.18548
Nuclear contribution   :      0.05946       0.09080      -0.46487
                        -----------------------------------------
Total Dipole Moment    :      0.07316       0.15592      -0.65034
                        -----------------------------------------
Magnitude (a.u.)       :      0.67276
Magnitude (Debye)      :      1.71003

smp-n61.crc.pitt.edu.36826hfi_wait_for_device: The /dev/hfi1_0 device failed to appear after 15.0 seconds: Connection timed out
smp-n61.crc.pitt.edu.36828hfi_wait_for_device: The /dev/hfi1_0 device failed to appear after 15.0 seconds: Connection timed out
smp-n61.crc.pitt.edu.36825hfi_wait_for_device: The /dev/hfi1_0 device failed to appear after 15.0 seconds: Connection timed out
smp-n61.crc.pitt.edu.36829hfi_wait_for_device: The /dev/hfi1_0 device failed to appear after 15.0 seconds: Connection timed out
smp-n61.crc.pitt.edu.36830hfi_wait_for_device: The /dev/hfi1_0 device failed to appear after 15.0 seconds: Connection timed out
smp-n61.crc.pitt.edu.36832hfi_wait_for_device: The /dev/hfi1_0 device failed to appear after 15.0 seconds: Connection timed out
smp-n61.crc.pitt.edu.36834hfi_wait_for_device: The /dev/hfi1_0 device failed to appear after 15.0 seconds: Connection timed out
smp-n61.crc.pitt.edu.36836hfi_wait_for_device: The /dev/hfi1_0 device failed to appear after 15.0 seconds: Connection timed out
smp-n61.crc.pitt.edu.36839hfi_wait_for_device: The /dev/hfi1_0 device failed to appear after 15.0 seconds: Connection timed out
smp-n61.crc.pitt.edu.36840hfi_wait_for_device: The /dev/hfi1_0 device failed to appear after 15.0 seconds: Connection timed out
smp-n61.crc.pitt.edu.36843hfi_wait_for_device: The /dev/hfi1_0 device failed to appear after 15.0 seconds: Connection timed out
smp-n61.crc.pitt.edu.36827hfi_wait_for_device: The /dev/hfi1_0 device failed to appear after 15.0 seconds: Connection timed out

Timings for individual modules:

Sum of individual times         ...      741.436 sec (=  12.357 min)
GTO integral calculation        ...      247.614 sec (=   4.127 min)  33.4 %
SCF iterations                  ...      259.829 sec (=   4.330 min)  35.0 %
SCF Gradient evaluation         ...      233.682 sec (=   3.895 min)  31.5 %
Geometry relaxation             ...        0.311 sec (=   0.005 min)   0.0 %
                             ****ORCA TERMINATED NORMALLY****
TOTAL RUN TIME: 0 days 0 hours 12 minutes 37 seconds 500 msec
cp: cannot stat ‘/scratch/slurm-1318605/*.{prop}’: No such file or directory
