28
Energy:   -378.78963834
Na  -0.32755280   0.15033535  -1.25959285
O   -0.20588241   0.16559887  -3.55579326
H    0.45381679   0.71345590  -3.98109491
H   -0.74559732  -0.16223631  -4.27514280
C    3.35971775   3.35936763   0.08171704
H    3.82873385   2.91513314   0.93469992
H    2.87772178   4.26912290   0.37313484
H    4.09906159   3.56999058  -0.66253275
C    2.31429473   2.38622437  -0.49420216
N    1.53592978   1.66167498  -0.92300018
C   -4.27360649   1.34249572   0.80882500
H   -4.59275145   0.32254819   0.86130095
H   -5.08640565   1.95389503   0.47648858
H   -3.95601400   1.66713660   1.77766058
C   -3.10154683   1.46325975  -0.18278591
N   -2.22889514   1.55317407  -0.92108531
C    3.20404448  -3.24587323  -0.36332907
H    2.89666489  -3.96879011   0.36317568
H    4.08297261  -2.74351691  -0.01688634
H    3.41636642  -3.73860059  -1.28909266
C    2.07585494  -2.21926997  -0.57516422
N    1.23586655  -1.45491719  -0.73288512
C   -1.90050276  -1.83208784   3.36867545
H   -2.88474565  -2.25139605   3.38729640
H   -1.86778927  -0.97058058   4.00242158
H   -1.19667524  -2.55853274   3.71767933
C   -1.54399660  -1.42298556   1.92744726
N   -1.27856156  -1.11839033   0.85438737
