28
Energy:   -378.83197833
Na  -0.31594845  -0.08741725  -0.79330565
O   -1.42160087  -1.27408716  -2.57134880
H   -1.41861553  -0.95149026  -3.47254477
H   -1.73822390  -2.17479784  -2.63991984
C   -4.82665963   0.77164394   1.61423161
H   -4.85697836   0.32683975   2.58692384
H   -5.42739349   0.19715616   0.94044995
H   -5.20597658   1.77076287   1.66694893
C   -3.37248021   0.80067809   1.10814937
N   -2.28977753   0.82229533   0.73134814
C    2.72174066   2.22301711   2.56315860
H    3.16870551   1.38669388   3.05882587
H    2.12045459   2.77026142   3.25877187
H    3.48929997   2.86042441   2.17655321
C    1.83913464   1.72168375   1.40502584
N    1.18199435   1.34841828   0.54274336
C    3.25900940   2.57244554  -3.09675163
H    3.39924872   3.13729712  -2.19887869
H    2.94280594   3.22544186  -3.88320587
H    4.18107677   2.10404187  -3.37113977
C    2.18517656   1.49380418  -2.86219704
N    1.38565921   0.69070665  -2.68756049
C    0.09121137  -4.51520724   1.70773185
H   -0.22119318  -4.33525613   2.71516482
H    1.08958469  -4.90010929   1.70726113
H   -0.56554833  -5.22667125   1.25233668
C    0.04917206  -3.19625245   0.91388618
N    0.01787188  -2.21423066   0.32283199
