28
Energy:   -378.76084863
Na   1.14971987  -0.44123084  -0.34243073
O    2.76964010  -1.12295163  -1.84996336
H    2.31898329  -1.46968355  -2.61997458
H    3.67376315  -0.99650459  -2.13772108
C   -2.84819947   3.25839197  -0.47994185
H   -3.68926921   2.86128847   0.04902951
H   -3.09669176   3.36695988  -1.51500884
H   -2.58960954   4.21365503  -0.07312146
C   -1.65221870   2.29880111  -0.33705944
N   -0.76175666   1.58434210  -0.23067699
C    2.38312711   3.10004523   2.84510237
H    3.31366884   3.00823987   3.36526009
H    1.58336055   3.16246809   3.55318142
H    2.39663247   3.98472874   2.24339498
C    2.17547064   1.86904896   1.94336684
N    2.02086096   0.95251629   1.27198375
C   -2.39491166  -0.96124258  -3.61298625
H   -2.13252736  -0.31581429  -4.42506814
H   -3.18821444  -0.51864330  -3.04758756
H   -2.71571938  -1.90660349  -3.99805019
C   -1.16906045  -1.16657626  -2.70374102
N   -0.25635851  -1.31945653  -2.02676661
C   -0.18000157  -4.13036431   2.96614474
H   -1.21916530  -4.02447228   3.19814866
H    0.38407412  -4.18706259   3.87361540
H   -0.03087880  -5.02412510   2.39706377
C    0.28914555  -2.91481695   2.14520284
N    0.63844691  -2.00978669   1.53397428
