28
Energy:   -383.26906589
Na  -0.45751075   0.25029374   0.71572652
O   -1.10768815   1.95163510   2.22451544
H   -0.53438949   2.51776084   2.74129600
H   -1.97766008   2.08260172   2.60164730
C    2.21236243   3.84390425  -1.86984778
H    2.76150994   3.51400990  -2.72688157
H    2.88607851   4.27366086  -1.15828964
H    1.49281628   4.57756195  -2.16800681
C    1.48796027   2.64425644  -1.23134433
N    0.94860993   1.75106412  -0.75594949
C    3.54666406  -1.87971819   3.07375277
H    3.40850812  -2.93122421   2.93180836
H    3.43871319  -1.64269064   4.11156954
H    4.52572727  -1.60092757   2.74419230
C    2.49175285  -1.10872677   2.25868555
N    1.70632351  -0.53468861   1.65183095
C   -1.34236590   0.36893356  -4.06410515
H   -1.44528184  -0.52745990  -4.63924623
H   -0.38315894   0.80460505  -4.25121859
H   -2.10907108   1.06139340  -4.34260405
C   -1.47130280   0.03540366  -2.56619558
N   -1.56730217  -0.21292450  -1.45093382
C   -3.14328918  -3.96757196   0.44465396
H   -3.17785600  -3.90149971  -0.62274464
H   -4.13998965  -4.00218733   0.83232525
H   -2.61848110  -4.85521524   0.73024980
C   -2.41436519  -2.73530137   1.01190966
N   -1.87164815  -1.81781991   1.43425731
