28
Energy:   -378.59253107
Na  -0.05865745   0.45096203   0.07851751
O    0.87818900   0.86849633   2.37237895
H    0.88291838   1.42607688   3.15039786
H    0.67690777  -0.00613114   2.70516192
C    3.71634024   3.57345264   0.39015736
H    4.57800720   3.21319189  -0.13199435
H    3.85892017   3.44765646   1.44312715
H    3.57440773   4.61108586   0.17090509
C    2.47524994   2.77959372  -0.05826528
N    1.55120180   2.18852966  -0.39213632
C   -4.63809809   2.05593116  -1.21427825
H   -5.30928835   1.62145098  -0.50320105
H   -4.95261092   1.79971898  -2.20439748
H   -4.64088175   3.12016071  -1.10334214
C   -3.21541353   1.51831590  -0.97233095
N   -2.15616022   1.11803690  -0.79219018
C   -0.65278927  -3.81036939   2.69735391
H   -0.80314169  -4.62635537   2.02173478
H   -1.42930698  -3.80910955   3.43350454
H    0.29613651  -3.91720729   3.18008015
C   -0.68453296  -2.48400370   1.91546748
N   -0.70816759  -1.49646415   1.33331749
C    1.01225655  -2.71668938  -3.76696162
H    1.23912683  -3.72087744  -3.47535161
H    1.78054323  -2.35156424  -4.41605198
H    0.07330013  -2.69767518  -4.27969779
C    0.93136965  -1.82428113  -2.51449811
N    0.87114567  -1.15984263  -1.58198210
