28
Energy:   -378.86514725
Na   0.05118635   0.09731608  -0.94626012
O   -0.12233498  -0.12804427  -3.42615112
H    0.23986788  -0.77183906  -4.03489508
H   -0.51992822   0.53676624  -3.98844859
C   -1.66367241   4.86420242   0.39081768
H   -2.03801382   4.83266560   1.39270296
H   -2.41376000   5.26631013  -0.25770147
H   -0.79194306   5.48364736   0.35511058
C   -1.29997316   3.43931716  -0.06637469
N   -1.02918254   2.37842532  -0.40677518
C    2.79941161   1.51598023   2.80898682
H    2.08132607   1.24366100   3.55403419
H    3.13330841   2.51727395   2.98455131
H    3.63400055   0.84810914   2.85703475
C    2.15117086   1.42803683   1.41483838
N    1.66852616   1.36255897   0.37683149
C   -4.24667316  -2.40070288   0.52048852
H   -4.03082131  -3.44245197   0.63479942
H   -5.02452644  -2.27496899  -0.20341366
H   -4.56440407  -1.99719576   1.45917279
C   -2.98051399  -1.66307303   0.04683976
N   -2.03780092  -1.11387408  -0.30581326
C    3.17460463  -4.05632608  -0.16778578
H    3.24314313  -4.21383686   0.88833590
H    4.14744829  -3.84701286  -0.56105703
H    2.78269592  -4.93562230  -0.63484554
C    2.23984669  -2.86535149  -0.44957850
N    1.54387691  -1.97861678  -0.65938598
