28
Energy:   -381.07820003
Na  -0.69737407   0.44451312   0.07103553
O   -2.11122277   2.01516952   1.26483529
H   -2.91805890   1.74771363   1.70496555
H   -1.79116307   2.75588455   1.77974778
C    0.62636119  -1.41847923   4.75368899
H    1.66557836  -1.45041162   4.50088832
H    0.28141125  -2.40792439   4.97026905
H    0.48727350  -0.79620170   5.61294703
C   -0.17268375  -0.84407255   3.56912825
N   -0.76760903  -0.41640067   2.68716894
C   -3.06343453  -2.19455156  -3.54719639
H   -3.72893046  -2.91118503  -3.11308602
H   -2.31095478  -2.70335747  -4.11269605
H   -3.61369963  -1.54162228  -4.19201477
C   -2.39665461  -1.37056354  -2.43003558
N   -1.90020664  -0.75706700  -1.59825858
C    3.49576482  -2.42996139   0.39445493
H    3.56131996  -2.89143945  -0.56868613
H    3.37138687  -3.18389238   1.14346580
H    4.39265304  -1.87947149   0.58797877
C    2.28957496  -1.47297318   0.42411272
N    1.39151178  -0.76045196   0.44619429
C    1.18017374   4.10932634  -2.94915343
H    1.89505898   3.70046461  -3.63228692
H    1.63617426   4.89473112  -2.38337790
H    0.34770013   4.50054160  -3.49581366
C    0.69311236   3.00432636  -1.99346193
N    0.33047303   2.18160364  -1.28190617
