28
Energy:   -381.08964120
Na  -0.12512997   0.84939499  -0.81682529
O    0.20491618   3.20874506  -0.83720692
H    0.83269157   3.71636931  -0.32296232
H   -0.39059229   3.86296052  -1.20272525
C   -0.89428509  -0.84200681   3.80124508
H   -0.23198680  -0.36112641   4.49045854
H   -0.56136788  -1.84378155   3.62656654
H   -1.88272541  -0.86090520   4.21054653
C   -0.90403632  -0.06510741   2.47160895
N   -0.91129655   0.51332951   1.48163442
C    2.41192632  -2.13393872  -4.00690917
H    3.00415241  -2.81924233  -3.43723610
H    3.05113254  -1.53741595  -4.62373580
H    1.72911978  -2.67993359  -4.62380781
C    1.62231394  -1.22033461  -3.05116872
N    1.03441163  -0.54011482  -2.33957651
C    3.52864249  -0.45790357   2.58088145
H    3.82039685  -1.48462422   2.50588627
H    2.89338167  -0.32889954   3.43217502
H    4.39998695   0.15341824   2.69016804
C    2.76894897  -0.04570839   1.30629882
N    2.20332261   0.26118965   0.35731411
C   -5.15520586   0.14742225  -1.10181420
H   -5.35840455  -0.86581260  -0.82438744
H   -5.62389565   0.36128910  -2.03962546
H   -5.54032019   0.80658223  -0.35208481
C   -3.63390927   0.34921735  -1.23040431
N   -2.50123481   0.49946298  -1.32614548
