
                                 *****************
                                 * O   R   C   A *
                                 *****************

           --- An Ab Initio, DFT and Semiempirical electronic structure package ---

                  #######################################################
                  #                        -***-                        #
                  #  Department of molecular theory and spectroscopy    #
                  #              Directorship: Frank Neese              #
                  # Max Planck Institute for Chemical Energy Conversion #
                  #                  D-45470 Muelheim/Ruhr              #
                  #                       Germany                       #
                  #                                                     #
                  #                  All rights reserved                #
                  #                        -***-                        #
                  #######################################################


                         Program Version 3.0.3 - RELEASE   -


 With contributions from (in alphabetic order):
   Ute Becker             : Parallelization
   Dmytro Bykov           : SCF Hessian
   Dmitry Ganyushin       : Spin-Orbit,Spin-Spin,Magnetic field MRCI
   Andreas Hansen         : Spin unrestricted coupled pair/coupled cluster methods
   Dimitrios Liakos       : Extrapolation schemes; parallel MDCI
   Robert Izsak           : Overlap fitted RIJCOSX, COSX-SCS-MP3
   Christian Kollmar      : KDIIS, OOCD, Brueckner-CCSD(T), CCSD density
   Simone Kossmann        : Meta GGA functionals, TD-DFT gradient, OOMP2, MP2 Hessian
   Taras Petrenko         : DFT Hessian,TD-DFT gradient, ASA and ECA modules, normal mode analysis, Resonance Raman, ABS, FL, XAS/XES, NRVS
   Christoph Reimann      : Effective Core Potentials
   Michael Roemelt        : Restricted open shell CIS
   Christoph Riplinger    : Improved optimizer, TS searches, QM/MM, DLPNO-CCSD
   Barbara Sandhoefer     : DKH picture change effects
   Igor Schapiro          : Molecular dynamics
   Kantharuban Sivalingam : CASSCF convergence, NEVPT2
   Boris Wezisla          : Elementary symmetry handling
   Frank Wennmohs         : Technical directorship


 We gratefully acknowledge several colleagues who have allowed us to
 interface, adapt or use parts of their codes:
   Stefan Grimme, W. Hujo, H. Kruse, T. Risthaus : VdW corrections, initial TS optimization,
                                                   DFT functionals, gCP
   Ed Valeev                                     : LibInt (2-el integral package), F12 methods
   Garnet Chan, S. Sharma, R. Olivares           : DMRG
   Ulf Ekstrom                                   : XCFun DFT Library
   Mihaly Kallay                                 : mrcc  (arbitrary order and MRCC methods)
   Andreas Klamt, Michael Diedenhofen            : otool_cosmo (COSMO solvation model)
   Frank Weinhold                                : gennbo (NPA and NBO analysis)
   Christopher J. Cramer and Donald G. Truhlar   : smd solvation model


 Your calculation uses the libint2 library for the computation of 2-el integrals
 For citations please refer to: http://libint.valeyev.net

 This ORCA versions uses:
   CBLAS   interface :  Fast vector & matrix operations
   LAPACKE interface :  Fast linear algebra routines
   SCALAPACK package :  Parallel linear algebra routines


Your calculation utilizes the basis: ma-def2-TZVP
Cite in your paper:
        def2-TZVP: F. Weigend, R. Ahlrichs, Phys. Chem. Chem. Phys. 2005, 7, 3297.
        Minimal augmentation of diffuse functions: J. Zheng, X. Xu, D. G. Truhlar, Theor. Chem. Acc. 2011, 128, 295.

Your calculation utilizes the atom-pairwise dispersion correction
with the zero-damping scheme (D30)
Cite in your paper:
S.Grimme, J.Antony, S.Ehrlich and H.Krieg, J.Chem.Phys., 132, (2010), 154104 
   

XCFun DFT library Copyright 2009-2010 Ulf Ekstrom and contributors.
See http://admol.org/xcfun for more information. This is free soft-
ware; see the source code for copying conditions. There is ABSOLUTELY
NO WARRANTY; not even for MERCHANTABILITY or FITNESS FOR A PARTICULAR
PURPOSE. For details see the documentation. Scientific users of this 
library should cite U. Ekstrom, L. Visscher, R. Bast, A. J. Thorvald-
sen and K. Ruud; J.Chem.Theor.Comp. 2010, DOI: 10.1021/ct100117s
XCFun Version 0.99 
================================================================================
                                        WARNINGS
                       Please study these warnings very carefully!
================================================================================
Now building the actual basis set


INFO   : the flag for use of LIBINT has been found!

================================================================================
                                       INPUT FILE
================================================================================
NAME = 0_wb98x-ma-def2-TZVP-SMD_onBP86_SMD_4_waters.inp
|  1> ! wB97X-D3 MA-Def2-TZVP def2-TZVP/J RIJCOSX TightSCF Grid4 
|  2> 
|  3> %pal nprocs 1 end
|  4> 
|  5> %scf
|  6>         maxiter 400
|  7> end
|  8> 
|  9> %cosmo
| 10>         SMD true
| 11>         solvent "WATER"
| 12> end
| 13> 
| 14> * xyz  0  1
| 15> O  1.819450	0.392881	0.241960
| 16> H  1.307851	0.087169	-0.582301
| 17> H  2.307522	-0.412736	0.505385
| 18> O  0.330052	-0.424224	-1.795388
| 19> H  -0.538339	-0.429893	-1.266386
| 20> H  0.239226	0.376650	-2.349727
| 21> O  -0.324902	0.386330	1.797639
| 22> H  0.544560	0.402354	1.269760
| 23> H  -0.519217	1.336343	1.926055
| 24> O  -1.827900	-0.356662	-0.254596
| 25> H  -2.027356	-1.294883	-0.063627
| 26> H  -1.310948	-0.063330	0.571226
| 27> **                         ****END OF INPUT****
================================================================================

                       ****************************
                       * Single Point Calculation *
                       ****************************

---------------------------------
CARTESIAN COORDINATES (ANGSTROEM)
---------------------------------
  O      1.819450    0.392881    0.241960
  H      1.307851    0.087169   -0.582301
  H      2.307522   -0.412736    0.505385
  O      0.330052   -0.424224   -1.795388
  H     -0.538339   -0.429893   -1.266386
  H      0.239226    0.376650   -2.349727
  O     -0.324902    0.386330    1.797639
  H      0.544560    0.402354    1.269760
  H     -0.519217    1.336343    1.926055
  O     -1.827900   -0.356662   -0.254596
  H     -2.027356   -1.294883   -0.063627
  H     -1.310948   -0.063330    0.571226

----------------------------
CARTESIAN COORDINATES (A.U.)
----------------------------
  NO LB      ZA    FRAG    MASS        X           Y           Z
   0 O     8.0000    0    15.999          3.438262214363021          0.742437493221115          0.457238135363586
   1 H     1.0000    0     1.008          2.471480213975043          0.164725537367782         -1.100389417508479
   2 H     1.0000    0     1.008          4.360584627998235         -0.779958005610122          0.955039242191792
   3 O     8.0000    0    15.999          0.623707889952977         -0.801667179436609         -3.392791624128608
   4 H     1.0000    0     1.008         -1.017313277209033         -0.812380036889809         -2.393122719831998
   5 H     1.0000    0     1.008          0.452071624113445          0.711765348341439         -4.440340519480381
   6 O     8.0000    0    15.999         -0.613975800363283          0.730057897317797          3.397045397656065
   7 H     1.0000    0     1.008          1.029069263488157          0.760338868887751          2.399498655807848
   8 H     1.0000    0     1.008         -0.981177934076191          2.525322290982727          3.639716468869696
   9 O     8.0000    0    15.999         -3.454230400194656         -0.673993502376621         -0.481116714791815
  10 H     1.0000    0     1.008         -3.831147615962053         -2.446974245470352         -0.120237604723007
  11 H     1.0000    0     1.008         -2.477332695811797         -0.119676356061233          1.079460700575301

--------------------------------
INTERNAL COORDINATES (ANGSTROEM)
--------------------------------
 O      0   0   0   0.000000     0.000     0.000
 H      1   0   0   1.017153     0.000     0.000
 H      1   2   0   0.978072   102.808     0.000
 O      2   1   3   1.639876   173.261    99.947
 H      4   2   1   1.016847    97.245     6.753
 H      4   2   1   0.978233   102.665   111.583
 O      1   2   3   2.649231    93.899   254.573
 H      7   1   2   1.017289     4.758   171.675
 H      7   1   2   0.978148   103.620   253.069
 O      5   4   2   1.640747   172.647     4.795
 H     10   5   4   0.978014   103.762   248.694
 H     10   5   4   1.017480    96.549   353.637

---------------------------
INTERNAL COORDINATES (A.U.)
---------------------------
 O      0   0   0   0.000000     0.000     0.000
 H      1   0   0   1.922140     0.000     0.000
 H      1   2   0   1.848289   102.808     0.000
 O      2   1   3   3.098917   173.261    99.947
 H      4   2   1   1.921563    97.245     6.753
 H      4   2   1   1.848593   102.665   111.583
 O      1   2   3   5.006321    93.899   254.573
 H      7   1   2   1.922398     4.758   171.675
 H      7   1   2   1.848432   103.620   253.069
 O      5   4   2   3.100562   172.647     4.795
 H     10   5   4   1.848178   103.762   248.694
 H     10   5   4   1.922758    96.549   353.637

---------------------
BASIS SET INFORMATION
---------------------
There are 2 groups of distinct atoms

 Group   1 Type O   : 12s7p2d1f contracted to 6s4p2d1f pattern {621111/4111/11/1}
 Group   2 Type H   : 5s1p contracted to 3s1p pattern {311/1}

Atom   0O    basis set group =>   1
Atom   1H    basis set group =>   2
Atom   2H    basis set group =>   2
Atom   3O    basis set group =>   1
Atom   4H    basis set group =>   2
Atom   5H    basis set group =>   2
Atom   6O    basis set group =>   1
Atom   7H    basis set group =>   2
Atom   8H    basis set group =>   2
Atom   9O    basis set group =>   1
Atom  10H    basis set group =>   2
Atom  11H    basis set group =>   2
-------------------------------
AUXILIARY BASIS SET INFORMATION
-------------------------------
There are 2 groups of distinct atoms

 Group   1 Type O   : 12s5p4d2f1g contracted to 6s4p3d1f1g pattern {711111/2111/211/2/1}
 Group   2 Type H   : 5s2p1d contracted to 3s1p1d pattern {311/2/1}

Atom   0O    basis set group =>   1
Atom   1H    basis set group =>   2
Atom   2H    basis set group =>   2
Atom   3O    basis set group =>   1
Atom   4H    basis set group =>   2
Atom   5H    basis set group =>   2
Atom   6O    basis set group =>   1
Atom   7H    basis set group =>   2
Atom   8H    basis set group =>   2
Atom   9O    basis set group =>   1
Atom  10H    basis set group =>   2
Atom  11H    basis set group =>   2
------------------------------------------------------------------------------
                           ORCA GTO INTEGRAL CALCULATION
                           -- RI-GTO INTEGRALS CHOSEN --
------------------------------------------------------------------------------

                         BASIS SET STATISTICS AND STARTUP INFO

Gaussian basis set:
 # of primitive gaussian shells          ...  136
 # of primitive gaussian functions       ...  264
 # of contracted shells                  ...   84
 # of contracted basis functions         ...  188
 Highest angular momentum                ...    3
 Maximum contraction depth               ...    6
Auxiliary gaussian basis set:
 # of primitive gaussian shells          ...  160
 # of primitive gaussian functions       ...  408
 # of contracted shells                  ...  100
 # of contracted aux-basis functions     ...  284
 Highest angular momentum                ...    4
 Maximum contraction depth               ...    7
Ratio of auxiliary to basis functions    ...  1.51
Integral package used                  ... LIBINT
 One Electron integrals                  ... done
 Ordering auxiliary basis shells         ... done
 Integral threshhold             Thresh  ...  2.500e-11
 Primitive cut-off               TCut    ...  2.500e-12
 Pre-screening matrix                    ... done
 Shell pair data                         ... 
 Ordering of the shell pairs             ... done (   0.000 sec) 3349 of 3570 pairs
 Determination of significant pairs      ... done (   0.000 sec)
 Creation of shell pair data             ... done (   0.001 sec)
 Storage of shell pair data              ... done (   0.001 sec)
 Shell pair data done in (   0.002 sec)
 Computing two index integrals           ... done
 Cholesky decomposition of the V-matrix  ... done


Timings:
 Total evaluation time                   ...   0.144 sec (  0.002 min)
 One electron matrix time                ...   0.016 sec (  0.000 min) = 11.2%
 Schwartz matrix evaluation time         ...   0.108 sec (  0.002 min) = 75.0%
 Two index repulsion integral time       ...   0.002 sec (  0.000 min) =  1.3%
 Cholesky decomposition of V             ...   0.001 sec (  0.000 min) =  1.0%
 Three index repulsion integral time     ...   0.000 sec (  0.000 min) =  0.0%

-------------------------------------------------------------------------------
                                 ORCA SCF
-------------------------------------------------------------------------------

------------
SCF SETTINGS
------------
Hamiltonian:
 Density Functional     Method          .... DFT(GTOs)
 Exchange Functional    Exchange        .... WB97X-D3
 Correlation Functional Correlation     .... WB97X-D3
 Gradients option       PostSCFGGA      .... off
 Hybrid DFT is turned on
   Fraction HF Exchange ScalHFX         ....  0.195728
   Scaling of DF-GGA-X  ScalDFX         ....  0.000000
   Scaling of DF-GGA-C  ScalDFC         ....  1.000000
   Scaling of DF-LDA-C  ScalLDAC        ....  1.000000
   Perturbative correction              ....  0.000000
 Long-range corrected/Screened/Range-Separated Hybrid DFT is turned on
   Amount of maximum screened exact exchange              ....  0.804272
   Range separation parameter mu (erf(mu*r12)/r12)        ....  0.250000
 RI-approximation to the Coulomb term is turned on
   Number of auxiliary basis functions  .... 284
   RIJ-COSX (HFX calculated with COS-X)).... on


General Settings:
 Integral files         IntName         .... 0_wb98x-ma-def2-TZVP-SMD_onBP86_SMD_4_waters
 Hartree-Fock type      HFTyp           .... RHF
 Total Charge           Charge          ....    0
 Multiplicity           Mult            ....    1
 Number of Electrons    NEL             ....   40
 Basis Dimension        Dim             ....  188
 Nuclear Repulsion      ENuc            ....    145.5912869865 Eh

Convergence Acceleration:
 DIIS                   CNVDIIS         .... on
   Start iteration      DIISMaxIt       ....    12
   Startup error        DIISStart       ....  0.200000
   # of expansion vecs  DIISMaxEq       ....     5
   Bias factor          DIISBfac        ....   1.050
   Max. coefficient     DIISMaxC        ....  10.000
 Newton-Raphson         CNVNR           .... off
 SOSCF                  CNVSOSCF        .... on
   Start iteration      SOSCFMaxIt      ....   150
   Startup grad/error   SOSCFStart      ....  0.003300
 Level Shifting         CNVShift        .... on
   Level shift para.    LevelShift      ....    0.2500
   Turn off err/grad.   ShiftErr        ....    0.0010
 Zerner damping         CNVZerner       .... off
 Static damping         CNVDamp         .... on
   Fraction old density DampFac         ....    0.7000
   Max. Damping (<1)    DampMax         ....    0.9800
   Min. Damping (>=0)   DampMin         ....    0.0000
   Turn off err/grad.   DampErr         ....    0.1000
 Fernandez-Rico         CNVRico         .... off

SCF Procedure:
 Maximum # iterations   MaxIter         ....   400
 SCF integral mode      SCFMode         .... Direct
   Integral package                     .... LIBINT
 Reset frequeny         DirectResetFreq ....    20
 Integral Threshold     Thresh          ....  2.500e-11 Eh
 Primitive CutOff       TCut            ....  2.500e-12 Eh

Convergence Tolerance:
 Convergence Check Mode ConvCheckMode   .... Total+1el-Energy
 Energy Change          TolE            ....  1.000e-08 Eh
 1-El. energy change                    ....  1.000e-05 Eh
 Orbital Gradient       TolG            ....  1.000e-05
 Orbital Rotation angle TolX            ....  1.000e-05
 DIIS Error             TolErr          ....  5.000e-07


Diagonalization of the overlap matrix:
Smallest eigenvalue                        ... 1.149e-03
Time for diagonalization                   ...    0.006 sec
Threshold for overlap eigenvalues          ... 1.000e-08
Number of eigenvalues below threshold      ... 0
Time for construction of square roots      ...    0.002 sec
Total time needed                          ...    0.008 sec

-------------------
DFT GRID GENERATION
-------------------

General Integration Accuracy     IntAcc      ...  4.670
Radial Grid Type                 RadialGrid  ... Gauss-Chebyshev
Angular Grid (max. acc.)         AngularGrid ... Lebedev-302
Angular grid pruning method      GridPruning ... 3 (G Style)
Weight generation scheme         WeightScheme... Becke
Basis function cutoff            BFCut       ...    1.0000e-11
Integration weight cutoff        WCut        ...    1.0000e-14
Grids for H and He will be reduced by one unit

# of grid points (after initial pruning)     ...  52000 (   0.0 sec)
# of grid points (after weights+screening)   ...  48931 (   0.1 sec)
nearest neighbour list constructed           ...    0.0 sec
Grid point re-assignment to atoms done       ...    0.0 sec
Grid point division into batches done        ...    0.1 sec
Reduced shell lists constructed in    0.8 sec

Total number of grid points                  ...    48931
Total number of batches                      ...      771
Average number of points per batch           ...       63
Average number of grid points per atom       ...     4078
Average number of shells per batch           ...    55.62 (66.22%)
Average number of basis functions per batch  ...   117.90 (62.71%)
Average number of large shells per batch     ...    44.45 (79.91%)
Average number of large basis fcns per batch ...    90.94 (77.13%)
Maximum spatial batch extension              ...  15.87, 15.95, 16.11 au
Average spatial batch extension              ...   2.48,  2.48,  2.55 au

Time for grid setup =    0.921 sec

------------------------------
INITIAL GUESS: MODEL POTENTIAL
------------------------------
Loading Hartree-Fock densities                     ... done
Calculating cut-offs                               ... done
Setting up the integral package                    ... done
Initializing the effective Hamiltonian             ... done
Starting the Coulomb interaction                   ... done (   0.1 sec)
Reading the grid                                   ... done
Mapping shells                                     ... done
Starting the XC term evaluation                    ... done (   1.0 sec)
  promolecular density results
     # of electrons  =     39.996168243
     EX              =    -34.947039249
     EC              =     -1.299415106
     EX+EC           =    -36.246454355
Transforming the Hamiltonian                       ... done (   0.0 sec)
Diagonalizing the Hamiltonian                      ... done (   0.0 sec)
Back transforming the eigenvectors                 ... done (   0.0 sec)
Now organizing SCF variables                       ... done
                      ------------------
                      INITIAL GUESS DONE (   2.1 sec)
                      ------------------
--------------------
COSX GRID GENERATION
--------------------

General Integration Accuracy     IntAcc      ...  3.340
Radial Grid Type                 RadialGrid  ... Gauss-Chebyshev
Angular Grid (max. acc.)         AngularGrid ... Lebedev-50
Angular grid pruning method      GridPruning ... 3 (G Style)
Weight generation scheme         WeightScheme... Becke
Basis function cutoff            BFCut       ...    1.0000e-11
Integration weight cutoff        WCut        ...    1.0000e-14
Grids for H and He will be reduced by one unit

# of grid points (after initial pruning)     ...   4880 (   0.0 sec)
# of grid points (after weights+screening)   ...   4636 (   0.0 sec)
nearest neighbour list constructed           ...    0.0 sec
Grid point re-assignment to atoms done       ...    0.0 sec
Grid point division into batches done        ...    0.0 sec
Reduced shell lists constructed in    0.1 sec

Total number of grid points                  ...     4636
Total number of batches                      ...       76
Average number of points per batch           ...       61
Average number of grid points per atom       ...      386
Average number of shells per batch           ...    63.60 (75.71%)
Average number of basis functions per batch  ...   138.79 (73.83%)
Average number of large shells per batch     ...    51.12 (80.38%)
Average number of large basis fcns per batch ...   105.82 (76.24%)
Maximum spatial batch extension              ...  18.82, 15.45, 17.97 au
Average spatial batch extension              ...   5.73,  5.32,  5.82 au

Overlap Fitting                  UseSFitting ... on
Constructing numerical overlap ... done (      0.1 sec)
Inverting numerical overlap    ... done (      0.0 sec)
Obtaining analytic overlap     ... done (      0.0 sec)
Final contraction and storage  ... done (      0.0 sec)


General Integration Accuracy     IntAcc      ...  3.670
Radial Grid Type                 RadialGrid  ... Gauss-Chebyshev
Angular Grid (max. acc.)         AngularGrid ... Lebedev-50
Angular grid pruning method      GridPruning ... 3 (G Style)
Weight generation scheme         WeightScheme... Becke
Basis function cutoff            BFCut       ...    1.0000e-11
Integration weight cutoff        WCut        ...    1.0000e-14
Grids for H and He will be reduced by one unit

# of grid points (after initial pruning)     ...   6408 (   0.0 sec)
# of grid points (after weights+screening)   ...   6078 (   0.0 sec)
nearest neighbour list constructed           ...    0.0 sec
Grid point re-assignment to atoms done       ...    0.0 sec
Grid point division into batches done        ...    0.0 sec
Reduced shell lists constructed in    0.1 sec

Total number of grid points                  ...     6078
Total number of batches                      ...      100
Average number of points per batch           ...       60
Average number of grid points per atom       ...      506
Average number of shells per batch           ...    62.80 (74.76%)
Average number of basis functions per batch  ...   136.64 (72.68%)
Average number of large shells per batch     ...    50.44 (80.31%)
Average number of large basis fcns per batch ...   104.00 (76.11%)
Maximum spatial batch extension              ...  18.51, 17.33, 20.05 au
Average spatial batch extension              ...   4.95,  4.55,  5.20 au

Overlap Fitting                  UseSFitting ... on
Constructing numerical overlap ... done (      0.1 sec)
Inverting numerical overlap    ... done (      0.0 sec)
Obtaining analytic overlap     ... done (      0.0 sec)
Final contraction and storage  ... done (      0.0 sec)


General Integration Accuracy     IntAcc      ...  4.010
Radial Grid Type                 RadialGrid  ... Gauss-Chebyshev
Angular Grid (max. acc.)         AngularGrid ... Lebedev-110
Angular grid pruning method      GridPruning ... 3 (G Style)
Weight generation scheme         WeightScheme... Becke
Basis function cutoff            BFCut       ...    1.0000e-11
Integration weight cutoff        WCut        ...    1.0000e-14
Grids for H and He will be reduced by one unit

# of grid points (after initial pruning)     ...  11032 (   0.0 sec)
# of grid points (after weights+screening)   ...  10508 (   0.0 sec)
nearest neighbour list constructed           ...    0.0 sec
Grid point re-assignment to atoms done       ...    0.0 sec
Grid point division into batches done        ...    0.0 sec
Reduced shell lists constructed in    0.2 sec

Total number of grid points                  ...    10508
Total number of batches                      ...      169
Average number of points per batch           ...       62
Average number of grid points per atom       ...      876
Average number of shells per batch           ...    60.64 (72.19%)
Average number of basis functions per batch  ...   130.81 (69.58%)
Average number of large shells per batch     ...    49.14 (81.03%)
Average number of large basis fcns per batch ...   101.61 (77.68%)
Maximum spatial batch extension              ...  16.21, 16.63, 18.89 au
Average spatial batch extension              ...   4.15,  3.81,  4.31 au

Overlap Fitting                  UseSFitting ... on
Constructing numerical overlap ... done (      0.1 sec)
Inverting numerical overlap    ... done (      0.0 sec)
Obtaining analytic overlap     ... done (      0.0 sec)
Final contraction and storage  ... done (      0.0 sec)

Time for X-Grid setup             =    0.700 sec

--------------------
COSMO INITIALIZATION
--------------------

Epsilon                                      ...   78.3550
Refractive Index                             ...    1.0000
Potential Evaluation                         ...  ANALYTIC
Technical COSMO parameters:
  rsolv                                      ...    1.3000
  routf                                      ...    0.8500
  disex                                      ...   10.0000
  nppa                                       ... 1082   
  nspa                                       ...   92   
Solvent:                                     ... WATER
Solvent:                                     ... WATER
SMD-CDS solvent descriptors:
  Soln                                       ...    1.3328
  Soln25                                     ...    1.3323
  Sola                                       ...    0.0000
  Solb                                       ...    0.0000
  Solg                                       ...    0.0000
  Solc                                       ...    0.0000
  Solh                                       ...    0.0000
Radii:
 Radius for O  used is    2.8724 Bohr (=   1.5200 Ang.)
 Radius for H  used is    2.2677 Bohr (=   1.2000 Ang.)
Initializing COSMO package            ... done
Setting COSMO radii                   ... done
Setting atoms and making cavity       ...  USING 1082 GRID
done
Cholesky decomposition of A           ... done
--------------
SCF ITERATIONS
--------------
ITER       Energy         Delta-E        Max-DP      RMS-DP      [F,P]     Damp
               ***  Starting incremental Fock matrix formation  ***
  0   -305.5649319773   0.000000000000 0.03874526  0.00122585  0.2834252 0.7000
  1   -305.6847371018  -0.119805124498 0.02300530  0.00078832  0.1437103 0.7000
                               ***Turning on DIIS***
  2   -305.7354766685  -0.050739566653 0.03338578  0.00125933  0.0575565 0.0000
  3   -305.8144055499  -0.078928881425 0.01607508  0.00055545  0.0685972 0.0000
  4   -305.8300132928  -0.015607742866 0.00556962  0.00017765  0.0099636 0.0000
                      *** Initiating the SOSCF procedure ***
                           *** Shutting down DIIS ***
                      *** Re-Reading the Fockian *** 
                      *** Removing any level shift *** 
ITER      Energy       Delta-E        Grad      Rot      Max-DP    RMS-DP
  5   -305.83039427  -0.0003809777  0.000872  0.000872  0.003353  0.000091
               *** Restarting incremental Fock matrix formation ***
  6   -305.83042069  -0.0000264219  0.000425  0.000765  0.001978  0.000051
  7   -305.83042455  -0.0000038579  0.000170  0.000525  0.001207  0.000030
  8   -305.83042589  -0.0000013397  0.000040  0.000061  0.000248  0.000006
  9   -305.83042597  -0.0000000780  0.000006  0.000014  0.000016  0.000001
                  ***Gradient check signals convergence***
              ***Rediagonalizing the Fockian in SOSCF/NRSCF***

               *****************************************************
               *                     SUCCESS                       *
               *           SCF CONVERGED AFTER  10 CYCLES          *
               *****************************************************

Setting up the final grid:

General Integration Accuracy     IntAcc      ...  5.010
Radial Grid Type                 RadialGrid  ... Gauss-Chebyshev
Angular Grid (max. acc.)         AngularGrid ... Lebedev-434
Angular grid pruning method      GridPruning ... 3 (G Style)
Weight generation scheme         WeightScheme... Becke
Basis function cutoff            BFCut       ...    1.0000e-11
Integration weight cutoff        WCut        ...    1.0000e-14
Grids for H and He will be reduced by one unit

# of grid points (after initial pruning)     ...  96904 (   0.0 sec)
# of grid points (after weights+screening)   ...  91038 (   0.1 sec)
nearest neighbour list constructed           ...    0.0 sec
Grid point re-assignment to atoms done       ...    0.0 sec
Grid point division into batches done        ...    0.5 sec
Reduced shell lists constructed in    1.8 sec

Total number of grid points                  ...    91038
Total number of batches                      ...     1428
Average number of points per batch           ...       63
Average number of grid points per atom       ...     7586
Average number of shells per batch           ...    54.25 (64.58%)
Average number of basis functions per batch  ...   114.38 (60.84%)
Average number of large shells per batch     ...    43.32 (79.86%)
Average number of large basis fcns per batch ...    88.43 (77.32%)
Maximum spatial batch extension              ...  16.51, 17.80, 16.83 au
Average spatial batch extension              ...   2.02,  2.01,  2.04 au

Final grid set up in    1.9 sec
Final integration                            ... done (   2.1 sec)
Change in XC energy                          ...    -0.000432990
Integrated number of electrons               ...    40.000019315
Previous integrated no of electrons          ...    40.000094605
Old exchange energy                            =    -11.311161784 Eh
New exchange energy                            =    -11.310883002 Eh
Exchange energy change after final integration =      0.000278782 Eh
Total energy after final integration           =   -305.830580180 Eh
Final COS-X integration done in                =     8.407 sec
   1.09607823677822        1.68720321013101      -9.248478893052425E-002
  2.653184372923276E-003  0.214664271108431       1.235969245940838E-002
Total Energy after outlying charge correction =   -305.834694138 Eh

SMD CDS free energy correction energy :                 3.57900     Kcal/mol
Total Energy after SMD CDS correction =              -305.824876681 Eh

----------------
TOTAL SCF ENERGY
----------------

Total Energy       :         -305.82487668 Eh           -8321.91797 eV
Total Energy       :         -305.82487668 Eh           -8321.91797 eV
COSMO(ediel)       :           -0.03676728 Eh              -1.00049 eV
SMD CDS (Gcds)     :            0.00570350 Eh               0.15520 eV

Components:
Nuclear Repulsion  :          145.59128699 Eh            3961.74033 eV
Electronic Energy  :         -451.41616367 Eh          -12283.65830 eV

One Electron Energy:         -709.98327541 Eh          -19319.62711 eV
Two Electron Energy:          258.56711174 Eh            7035.96881 eV

Virial components:
Potential Energy   :         -610.18480091 Eh          -16603.97256 eV
Kinetic Energy     :          304.35992423 Eh            8282.05459 eV
Virial Ratio       :            2.00481322


DFT components:
N(Alpha)           :       20.000009657533 electrons
N(Beta)            :       20.000009657533 electrons
N(Total)           :       40.000019315067 electrons
E(XC)              :      -25.945119183599 Eh       

---------------
SCF CONVERGENCE
---------------

  Last Energy change         ...   -3.5723e-09  Tolerance :   1.0000e-08
  Last MAX-Density change    ...    1.8714e-14  Tolerance :   1.0000e-07
  Last RMS-Density change    ...    6.4443e-16  Tolerance :   5.0000e-09
  Last Orbital Gradient      ...    1.7942e-06  Tolerance :   1.0000e-05
  Last Orbital Rotation      ...    4.9911e-06  Tolerance :   1.0000e-05

             **** THE GBW FILE WAS UPDATED (0_wb98x-ma-def2-TZVP-SMD_onBP86_SMD_4_waters.gbw) ****
             **** DENSITY FILE WAS UPDATED (0_wb98x-ma-def2-TZVP-SMD_onBP86_SMD_4_waters.scfp.tmp) ****
             **** ENERGY FILE WAS UPDATED (0_wb98x-ma-def2-TZVP-SMD_onBP86_SMD_4_waters.en.tmp) ****
----------------
ORBITAL ENERGIES
----------------

  NO   OCC          E(Eh)            E(eV) 
   0   2.0000     -19.235492      -523.4243 
   1   2.0000     -19.235349      -523.4204 
   2   2.0000     -19.235189      -523.4161 
   3   2.0000     -19.234980      -523.4104 
   4   2.0000      -1.139295       -31.0018 
   5   2.0000      -1.118848       -30.4454 
   6   2.0000      -1.118725       -30.4421 
   7   2.0000      -1.098727       -29.8979 
   8   2.0000      -0.630651       -17.1609 
   9   2.0000      -0.620954       -16.8970 
  10   2.0000      -0.620405       -16.8821 
  11   2.0000      -0.620043       -16.8722 
  12   2.0000      -0.542410       -14.7597 
  13   2.0000      -0.507829       -13.8187 
  14   2.0000      -0.507370       -13.8063 
  15   2.0000      -0.482288       -13.1237 
  16   2.0000      -0.420856       -11.4521 
  17   2.0000      -0.420534       -11.4433 
  18   2.0000      -0.416737       -11.3400 
  19   2.0000      -0.415084       -11.2950 
  20   0.0000       0.073517         2.0005 
  21   0.0000       0.113224         3.0810 
  22   0.0000       0.113366         3.0849 
  23   0.0000       0.128052         3.4845 
  24   0.0000       0.145104         3.9485 
  25   0.0000       0.157906         4.2969 
  26   0.0000       0.163810         4.4575 
  27   0.0000       0.163955         4.4615 
  28   0.0000       0.169954         4.6247 
  29   0.0000       0.203860         5.5473 
  30   0.0000       0.204128         5.5546 
  31   0.0000       0.207209         5.6384 
  32   0.0000       0.228403         6.2152 
  33   0.0000       0.228716         6.2237 
  34   0.0000       0.268795         7.3143 
  35   0.0000       0.269053         7.3213 
  36   0.0000       0.287972         7.8361 
  37   0.0000       0.335272         9.1232 
  38   0.0000       0.348258         9.4766 
  39   0.0000       0.348717         9.4891 
  40   0.0000       0.361262         9.8304 
  41   0.0000       0.366344         9.9687 
  42   0.0000       0.366936         9.9848 
  43   0.0000       0.384123        10.4525 
  44   0.0000       0.523531        14.2460 
  45   0.0000       0.540936        14.7196 
  46   0.0000       0.552500        15.0343 
  47   0.0000       0.560242        15.2450 
  48   0.0000       0.560615        15.2551 
  49   0.0000       0.615114        16.7381 
  50   0.0000       0.615485        16.7482 
  51   0.0000       0.647342        17.6151 
  52   0.0000       0.684979        18.6392 
  53   0.0000       0.700804        19.0699 
  54   0.0000       0.701393        19.0859 
  55   0.0000       0.727338        19.7919 
  56   0.0000       0.727976        19.8092 
  57   0.0000       0.733214        19.9518 
  58   0.0000       0.740882        20.1604 
  59   0.0000       0.789032        21.4706 
  60   0.0000       0.834100        22.6970 
  61   0.0000       0.839519        22.8445 
  62   0.0000       0.855024        23.2664 
  63   0.0000       0.856347        23.3024 
  64   0.0000       0.971983        26.4490 
  65   0.0000       0.977816        26.6077 
  66   0.0000       1.040464        28.3125 
  67   0.0000       1.107701        30.1421 
  68   0.0000       1.171037        31.8655 
  69   0.0000       1.224497        33.3203 
  70   0.0000       1.278093        34.7787 
  71   0.0000       1.278980        34.8028 
  72   0.0000       1.320315        35.9276 
  73   0.0000       1.324333        36.0369 
  74   0.0000       1.325855        36.0783 
  75   0.0000       1.457773        39.6680 
  76   0.0000       1.480491        40.2862 
  77   0.0000       1.482777        40.3484 
  78   0.0000       1.490461        40.5575 
  79   0.0000       1.501634        40.8615 
  80   0.0000       1.715224        46.6736 
  81   0.0000       1.759070        47.8667 
  82   0.0000       1.779017        48.4095 
  83   0.0000       1.780268        48.4436 
  84   0.0000       1.807615        49.1877 
  85   0.0000       1.871259        50.9196 
  86   0.0000       1.871748        50.9328 
  87   0.0000       1.877180        51.0807 
  88   0.0000       1.941714        52.8367 
  89   0.0000       1.973824        53.7105 
  90   0.0000       2.060700        56.0745 
  91   0.0000       2.065531        56.2059 
  92   0.0000       2.152914        58.5838 
  93   0.0000       2.154367        58.6233 
  94   0.0000       2.179935        59.3191 
  95   0.0000       2.207994        60.0826 
  96   0.0000       2.229220        60.6602 
  97   0.0000       2.305254        62.7292 
  98   0.0000       2.311164        62.8900 
  99   0.0000       2.314004        62.9672 
 100   0.0000       2.407493        65.5112 
 101   0.0000       2.449770        66.6616 
 102   0.0000       2.451704        66.7143 
 103   0.0000       2.493073        67.8400 
 104   0.0000       2.500737        68.0485 
 105   0.0000       2.504233        68.1436 
 106   0.0000       2.521067        68.6017 
 107   0.0000       2.530533        68.8593 
 108   0.0000       2.565188        69.8023 
 109   0.0000       2.567210        69.8573 
 110   0.0000       2.597596        70.6842 
 111   0.0000       2.630275        71.5734 
 112   0.0000       2.703400        73.5632 
 113   0.0000       2.715952        73.9048 
 114   0.0000       2.716334        73.9152 
 115   0.0000       2.720110        74.0180 
 116   0.0000       2.730526        74.3014 
 117   0.0000       2.780124        75.6510 
 118   0.0000       2.781635        75.6921 
 119   0.0000       2.873744        78.1986 
 120   0.0000       3.053667        83.0945 
 121   0.0000       3.056292        83.1659 
 122   0.0000       3.077919        83.7544 
 123   0.0000       3.149930        85.7140 
 124   0.0000       3.186205        86.7011 
 125   0.0000       3.249491        88.4231 
 126   0.0000       3.254092        88.5484 
 127   0.0000       3.334362        90.7326 
 128   0.0000       3.872944       105.3882 
 129   0.0000       3.889865       105.8486 
 130   0.0000       3.893027       105.9347 
 131   0.0000       3.958420       107.7141 
 132   0.0000       4.003084       108.9294 
 133   0.0000       4.081128       111.0531 
 134   0.0000       4.100466       111.5793 
 135   0.0000       4.104615       111.6922 
 136   0.0000       5.186641       141.1357 
 137   0.0000       5.187989       141.1724 
 138   0.0000       5.188340       141.1819 
 139   0.0000       5.191599       141.2706 
 140   0.0000       5.310005       144.4926 
 141   0.0000       5.328352       144.9918 
 142   0.0000       5.329951       145.0353 
 143   0.0000       5.336100       145.2027 
 144   0.0000       5.435833       147.9165 
 145   0.0000       5.442996       148.1115 
 146   0.0000       5.443764       148.1324 
 147   0.0000       5.475623       148.9993 
 148   0.0000       5.484863       149.2507 
 149   0.0000       5.488279       149.3437 
 150   0.0000       5.488413       149.3473 
 151   0.0000       5.503843       149.7672 
 152   0.0000       5.521855       150.2573 
 153   0.0000       5.522622       150.2782 
 154   0.0000       5.523729       150.3083 
 155   0.0000       5.525552       150.3579 
 156   0.0000       6.065024       165.0377 
 157   0.0000       6.067801       165.1133 
 158   0.0000       6.068466       165.1313 
 159   0.0000       6.071328       165.2092 
 160   0.0000       6.246946       169.9880 
 161   0.0000       6.331223       172.2813 
 162   0.0000       6.332966       172.3288 
 163   0.0000       6.347011       172.7110 
 164   0.0000       6.426994       174.8874 
 165   0.0000       6.480023       176.3304 
 166   0.0000       6.483297       176.4195 
 167   0.0000       6.485859       176.4892 
 168   0.0000       6.500106       176.8769 
 169   0.0000       6.501592       176.9173 
 170   0.0000       6.507943       177.0901 
 171   0.0000       6.592163       179.3819 
 172   0.0000       6.617875       180.0815 
 173   0.0000       6.656234       181.1253 
 174   0.0000       6.657705       181.1653 
 175   0.0000       6.779272       184.4734 
 176   0.0000       6.974988       189.7991 
 177   0.0000       7.117821       193.6858 
 178   0.0000       7.119351       193.7274 
 179   0.0000       7.152436       194.6277 
 180   0.0000       7.171367       195.1428 
 181   0.0000       7.215770       196.3511 
 182   0.0000       7.217719       196.4041 
 183   0.0000       7.256568       197.4613 
 184   0.0000      43.690471      1188.8782 
 185   0.0000      43.695530      1189.0158 
 186   0.0000      43.724193      1189.7958 
 187   0.0000      43.778524      1191.2742 

                    ********************************
                    * MULLIKEN POPULATION ANALYSIS *
                    ********************************

-----------------------
MULLIKEN ATOMIC CHARGES
-----------------------
   0 O :   -0.804696
   1 H :    0.392935
   2 H :    0.411677
   3 O :   -0.805221
   4 H :    0.394087
   5 H :    0.411619
   6 O :   -0.806421
   7 H :    0.394773
   8 H :    0.411266
   9 O :   -0.804661
  10 H :    0.411069
  11 H :    0.393573
Sum of atomic charges:   -0.0000000

--------------------------------
MULLIKEN REDUCED ORBITAL CHARGES
--------------------------------
  0 O s       :     3.792997  s :     3.792997
      pz      :     1.612838  p :     4.990826
      px      :     1.717428
      py      :     1.660560
      dz2     :     0.003258  d :     0.019872
      dxz     :     0.003303
      dyz     :     0.004137
      dx2y2   :     0.003627
      dxy     :     0.005547
      f0      :     0.000073  f :     0.001001
      f+1     :     0.000295
      f-1     :     0.000085
      f+2     :     0.000049
      f-2     :     0.000206
      f+3     :     0.000279
      f-3     :     0.000015
  1 H s       :     0.549293  s :     0.549293
      pz      :     0.027115  p :     0.057772
      px      :     0.019054
      py      :     0.011603
  2 H s       :     0.545784  s :     0.545784
      pz      :     0.012068  p :     0.042539
      px      :     0.013894
      py      :     0.016577
  3 O s       :     3.793503  s :     3.793503
      pz      :     1.672965  p :     4.990834
      px      :     1.628810
      py      :     1.689059
      dz2     :     0.000807  d :     0.019885
      dxz     :     0.004645
      dyz     :     0.005234
      dx2y2   :     0.007386
      dxy     :     0.001813
      f0      :     0.000196  f :     0.000999
      f+1     :     0.000034
      f-1     :     0.000108
      f+2     :     0.000517
      f-2     :     0.000036
      f+3     :     0.000066
      f-3     :     0.000042
  4 H s       :     0.548159  s :     0.548159
      pz      :     0.019387  p :     0.057754
      px      :     0.028662
      py      :     0.009704
  5 H s       :     0.545845  s :     0.545845
      pz      :     0.014257  p :     0.042536
      px      :     0.011059
      py      :     0.017219
  6 O s       :     3.794203  s :     3.794203
      pz      :     1.855848  p :     4.991449
      px      :     1.600856
      py      :     1.534745
      dz2     :     0.003017  d :     0.019764
      dxz     :     0.005078
      dyz     :     0.001099
      dx2y2   :     0.009407
      dxy     :     0.001164
      f0      :     0.000181  f :     0.001004
      f+1     :     0.000062
      f-1     :     0.000204
      f+2     :     0.000244
      f-2     :     0.000041
      f+3     :     0.000126
      f-3     :     0.000147
  7 H s       :     0.547377  s :     0.547377
      pz      :     0.020156  p :     0.057850
      px      :     0.028916
      py      :     0.008779
  8 H s       :     0.546219  s :     0.546219
      pz      :     0.012598  p :     0.042516
      px      :     0.011561
      py      :     0.018356
  9 O s       :     3.793483  s :     3.793483
      pz      :     1.648058  p :     4.990362
      px      :     1.838926
      py      :     1.503378
      dz2     :     0.004467  d :     0.019815
      dxz     :     0.005306
      dyz     :     0.002910
      dx2y2   :     0.006302
      dxy     :     0.000830
      f0      :     0.000019  f :     0.001001
      f+1     :     0.000235
      f-1     :     0.000110
      f+2     :     0.000081
      f-2     :     0.000121
      f+3     :     0.000183
      f-3     :     0.000253
 10 H s       :     0.546375  s :     0.546375
      pz      :     0.011335  p :     0.042555
      px      :     0.012750
      py      :     0.018470
 11 H s       :     0.548475  s :     0.548475
      pz      :     0.026927  p :     0.057952
      px      :     0.019687
      py      :     0.011338


                     *******************************
                     * LOEWDIN POPULATION ANALYSIS *
                     *******************************

----------------------
LOEWDIN ATOMIC CHARGES
----------------------
   0 O :   -0.409651
   1 H :    0.193486
   2 H :    0.216629
   3 O :   -0.409891
   4 H :    0.193484
   5 H :    0.216784
   6 O :   -0.409754
   7 H :    0.193386
   8 H :    0.216685
   9 O :   -0.410881
  10 H :    0.216436
  11 H :    0.193286

-------------------------------
LOEWDIN REDUCED ORBITAL CHARGES
-------------------------------
  0 O s       :     3.495962  s :     3.495962
      pz      :     1.588050  p :     4.883461
      px      :     1.660404
      py      :     1.635007
      dz2     :     0.004933  d :     0.028289
      dxz     :     0.007106
      dyz     :     0.004842
      dx2y2   :     0.003936
      dxy     :     0.007472
      f0      :     0.000145  f :     0.001939
      f+1     :     0.000458
      f-1     :     0.000291
      f+2     :     0.000129
      f-2     :     0.000330
      f+3     :     0.000566
      f-3     :     0.000020
  1 H s       :     0.610607  s :     0.610607
      pz      :     0.098371  p :     0.195906
      px      :     0.060963
      py      :     0.036571
  2 H s       :     0.626782  s :     0.626782
      pz      :     0.035630  p :     0.156588
      px      :     0.049327
      py      :     0.071631
  3 O s       :     3.496155  s :     3.496155
      pz      :     1.623301  p :     4.883529
      px      :     1.616994
      py      :     1.643234
      dz2     :     0.000706  d :     0.028269
      dxz     :     0.008487
      dyz     :     0.007708
      dx2y2   :     0.010252
      dxy     :     0.001116
      f0      :     0.000365  f :     0.001938
      f+1     :     0.000066
      f-1     :     0.000117
      f+2     :     0.000914
      f-2     :     0.000059
      f+3     :     0.000243
      f-3     :     0.000174
  4 H s       :     0.610706  s :     0.610706
      pz      :     0.062060  p :     0.195810
      px      :     0.106332
      py      :     0.027417
  5 H s       :     0.626697  s :     0.626697
      pz      :     0.052098  p :     0.156519
      px      :     0.032943
      py      :     0.071478
  6 O s       :     3.495485  s :     3.495485
      pz      :     1.777333  p :     4.884115
      px      :     1.581256
      py      :     1.525527
      dz2     :     0.003411  d :     0.028209
      dxz     :     0.008471
      dyz     :     0.001052
      dx2y2   :     0.013840
      dxy     :     0.001434
      f0      :     0.000229  f :     0.001945
      f+1     :     0.000071
      f-1     :     0.000344
      f+2     :     0.000495
      f-2     :     0.000041
      f+3     :     0.000334
      f-3     :     0.000432
  7 H s       :     0.610344  s :     0.610344
      pz      :     0.066186  p :     0.196270
      px      :     0.106146
      py      :     0.023938
  8 H s       :     0.626780  s :     0.626780
      pz      :     0.039582  p :     0.156535
      px      :     0.033421
      py      :     0.083532
  9 O s       :     3.496098  s :     3.496098
      pz      :     1.635968  p :     4.884636
      px      :     1.762875
      py      :     1.485792
      dz2     :     0.005883  d :     0.028210
      dxz     :     0.008453
      dyz     :     0.003653
      dx2y2   :     0.008927
      dxy     :     0.001294
      f0      :     0.000106  f :     0.001938
      f+1     :     0.000449
      f-1     :     0.000309
      f+2     :     0.000259
      f-2     :     0.000190
      f+3     :     0.000240
      f-3     :     0.000385
 10 H s       :     0.626940  s :     0.626940
      pz      :     0.035405  p :     0.156623
      px      :     0.040666
      py      :     0.080553
 11 H s       :     0.610364  s :     0.610364
      pz      :     0.099470  p :     0.196350
      px      :     0.064163
      py      :     0.032717


                      *****************************
                      * MAYER POPULATION ANALYSIS *
                      *****************************

  NA   - Mulliken gross atomic population
  ZA   - Total nuclear charge
  QA   - Mulliken gross atomic charge
  VA   - Mayer's total valence
  BVA  - Mayer's bonded valence
  FA   - Mayer's free valence

  ATOM       NA         ZA         QA         VA         BVA        FA
  0 O      8.8047     8.0000    -0.8047     1.6663     1.6663    -0.0000
  1 H      0.6071     1.0000     0.3929     0.8927     0.8927    -0.0000
  2 H      0.5883     1.0000     0.4117     0.8537     0.8537    -0.0000
  3 O      8.8052     8.0000    -0.8052     1.6687     1.6687     0.0000
  4 H      0.6059     1.0000     0.3941     0.8907     0.8907     0.0000
  5 H      0.5884     1.0000     0.4116     0.8538     0.8538     0.0000
  6 O      8.8064     8.0000    -0.8064     1.6640     1.6640     0.0000
  7 H      0.6052     1.0000     0.3948     0.8901     0.8901     0.0000
  8 H      0.5887     1.0000     0.4113     0.8538     0.8538    -0.0000
  9 O      8.8047     8.0000    -0.8047     1.6617     1.6617    -0.0000
 10 H      0.5889     1.0000     0.4111     0.8542     0.8542     0.0000
 11 H      0.6064     1.0000     0.3936     0.8913     0.8913     0.0000

  Mayer bond orders larger than 0.1
B(  0-O ,  1-H ) :   0.7679 B(  0-O ,  2-H ) :   0.8494 B(  0-O ,  7-H ) :   0.1161 
B(  1-H ,  3-O ) :   0.1174 B(  3-O ,  4-H ) :   0.7687 B(  3-O ,  5-H ) :   0.8496 
B(  4-H ,  9-O ) :   0.1144 B(  6-O ,  7-H ) :   0.7667 B(  6-O ,  8-H ) :   0.8488 
B(  6-O , 11-H ) :   0.1156 B(  9-O , 10-H ) :   0.8492 B(  9-O , 11-H ) :   0.7674 


-------
TIMINGS
-------

Total SCF time: 0 days 0 hours 1 min 18 sec 

Total time                  ....      78.257 sec
Sum of individual times     ....      74.587 sec  ( 95.3%)

Fock matrix formation       ....      64.277 sec  ( 82.1%)
  Coulomb formation         ....      50.446 sec  ( 78.5% of F)
  Split-RI-J                ....       2.656 sec  (  4.1% of F)
  Chain of spheres X        ....      52.207 sec  ( 81.2% of F)
  COS-X 1 center corr.      ....       0.000 sec  (  0.0% of F)
  XC integration            ....      13.823 sec  ( 21.5% of F)
    Basis function eval.    ....       6.116 sec  ( 44.2% of XC)
    Density eval.           ....       1.638 sec  ( 11.8% of XC)
    XC-Functional eval.     ....       2.359 sec  ( 17.1% of XC)
    XC-Potential eval.      ....       3.512 sec  ( 25.4% of XC)
Diagonalization             ....       0.050 sec  (  0.1%)
Density matrix formation    ....       0.005 sec  (  0.0%)
Population analysis         ....       0.022 sec  (  0.0%)
Initial guess               ....       2.136 sec  (  2.7%)
Orbital Transformation      ....       0.000 sec  (  0.0%)
Orbital Orthonormalization  ....       0.000 sec  (  0.0%)
DIIS solution               ....       0.011 sec  (  0.0%)
SOSCF solution              ....       0.222 sec  (  0.3%)
Grid generation             ....       3.528 sec  (  4.5%)
COSMO(total)                ....       4.336 sec  (  5.5%)
   Initialization           ....       0.361 sec  (  8.3% of COSMO)
   Potential evaluation     ....       2.222 sec  ( 51.2% of COSMO)
   Charge calculation       ....       0.213 sec  (  4.9% of COSMO)
   Fock-Matrix contrib.     ....       1.691 sec  ( 39.0% of COSMO)
   Outer-lying charge       ....       0.180 sec  (  4.1% of COSMO)

Entering the calculation of the dispersion correction...

Checking the input atom types...

Done


-------------------------------------------------------------------------------
                          DFT DISPERSION CORRECTION                            
                                                                               
                                DFTD3 V2.1  Rev 6                               
                              USING zero damping                               
-------------------------------------------------------------------------------
The omegaB97X-D3 functional is recognized. Fit by Chai et al.
Active option DFTDOPT                   ...         3   

molecular C6(AA) [au] = 712.082252 


            DFT-D V3
 parameters
 s6 scaling factor         :     1.0000 
 rs6 scaling factor        :     1.2810 
 s8 scaling factor         :     1.0000 
 rs8 scaling factor        :     1.0940 
 Damping factor alpha6     :    14.0000 
 Damping factor alpha8     :    16.0000 
 ad hoc parameters k1-k3   :    16.0000     1.3333    -4.0000 

 Edisp/kcal,au: -1.964087761277  -0.003129972746 
 E6   /kcal   :  -0.937936292 
 E8   /kcal   :  -1.026151470 
 % E8         :  52.245703576 

-------------------------   ----------------
Dispersion correction           -0.003129973
-------------------------   ----------------


-------------------------   --------------------
FINAL SINGLE POINT ENERGY      -305.828006654125
-------------------------   --------------------


                            ***************************************
                            *     ORCA property calculations      *
                            ***************************************

                                    ---------------------
                                    Active property flags
                                    ---------------------
   (+) Dipole Moment


------------------------------------------------------------------------------
                       ORCA ELECTRIC PROPERTIES CALCULATION
------------------------------------------------------------------------------

Dipole Moment Calculation                       ... on
Quadrupole Moment Calculation                   ... off
Polarizability Calculation                      ... off
GBWName                                         ... 0_wb98x-ma-def2-TZVP-SMD_onBP86_SMD_4_waters.gbw
Electron density file                           ... 0_wb98x-ma-def2-TZVP-SMD_onBP86_SMD_4_waters.scfp.tmp

-------------
DIPOLE MOMENT
-------------
                                X             Y             Z
Electronic contribution:      0.00386       0.00088       0.00049
Nuclear contribution   :      0.00824       0.00418       0.02593
                        -----------------------------------------
Total Dipole Moment    :      0.01210       0.00507       0.02642
                        -----------------------------------------
Magnitude (a.u.)       :      0.02950
Magnitude (Debye)      :      0.07498


Timings for individual modules:

Sum of individual times         ...       78.811 sec (=   1.314 min)
GTO integral calculation        ...        0.173 sec (=   0.003 min)   0.2 %
SCF iterations                  ...       78.638 sec (=   1.311 min)  99.8 %
                             ****ORCA TERMINATED NORMALLY****
TOTAL RUN TIME: 0 days 0 hours 1 minutes 18 seconds 969 msec
cp: cannot stat /scratch/slurm-2202746/*.{prop}: No such file or directory
