36
Energy:   -476.87528495
O    2.42481262   0.83450583   0.50153485
H    2.38700090  -0.08739724   0.75628347
H    2.47847799   0.81743632  -0.45400714
O   -0.82697954  -1.86949338  -2.53326333
H    0.07161489  -2.02383915  -2.24182334
H   -0.99357316  -2.56085809  -3.17396081
O    0.45025818   2.36108730   1.48671048
H    0.79996903   3.25204021   1.49841915
H    1.17844902   1.82147729   1.17882901
O   -0.27854709   0.85118443  -2.80957814
H   -0.59097769  -0.05327747  -2.83340366
H   -0.75906970   1.25207337  -2.08527300
O    1.72286084  -2.05259612  -1.68439469
H    2.06884395  -1.19751863  -1.94007033
H    1.85286581  -2.09051573  -0.73682271
O    2.04436963  -1.84405619   1.05614321
H    2.50301063  -2.47299188   1.61320710
H    1.17105060  -1.77416017   1.44170808
O   -3.35225668   0.97232861   1.39652412
H   -2.72592143   0.94240965   2.11973975
H   -3.33040559   0.09107022   1.02351200
O   -1.92608782  -1.01279986  -0.15653288
H   -1.67103538  -1.45013093  -0.96888849
H   -1.67505948  -0.09839308  -0.28721131
O   -1.18219675   0.90541162   3.14849334
H   -0.58080385   1.45434161   2.64526945
H   -1.12614052   1.24450187   4.04186188
O   -0.42976223  -1.53182258   2.06068189
H   -0.67261683  -0.76197676   2.57506591
H   -0.99304263  -1.49150437   1.28781613
O   -1.42718748   1.67694062  -0.41359532
H   -2.22814050   1.68659428   0.11043991
H   -0.74441785   1.97769903   0.18607280
O    2.33717604   0.58580004  -2.24909881
H    2.84164190   0.95998619  -2.97140814
H    1.42402039   0.75388700  -2.48174746
