43
Energy:   -269.46719624
C    0.28999930   3.42697904  -0.49693030
H    1.04201211   4.01947184  -0.97476834
H    0.75542811   2.72017824   0.15782748
H   -0.35935562   4.06265840   0.06800246
C   -0.52762233   2.67659268  -1.56464523
N   -1.13637880   2.11789592  -2.35960753
C   -0.73118002  -1.36442217  -2.20266067
H   -1.68830586  -1.04110486  -2.55518900
H   -0.01625142  -1.29288279  -2.99554042
H   -0.42300969  -0.74364509  -1.38745151
C   -0.82613211  -2.82617816  -1.72742019
N   -0.89682826  -3.91452194  -1.37358205
C   -2.63330153   0.87421280   0.64565775
H   -1.57949697   0.70158711   0.57786026
H   -2.92330946   0.91034588   1.67497252
H   -2.87337000   1.80446539   0.17459902
C   -3.38707992  -0.26821028  -0.06023718
N   -3.94830220  -1.11879618  -0.58580804
C   -0.23888334   1.76069157   3.63498046
H   -0.34858542   1.77349634   4.69926505
H    0.79647738   1.85513269   3.38198215
H   -0.61773998   0.83767351   3.24845183
C   -1.02587086   2.93479579   3.02364591
N   -1.61181883   3.80896975   2.56847954
C    2.62268131   0.79104737  -2.32816528
H    2.94377636   0.14694801  -3.11995702
H    1.57915399   0.63978739  -2.14631300
H    3.17563535   0.56724235  -1.43987916
C    2.86660369   2.25788480  -2.72877711
N    3.04821499   3.35001194  -3.02705083
C    2.60037081  -3.05502438  -0.38977851
H    1.58111067  -2.98239476  -0.07239249
H    3.18252523  -2.30660618   0.10606979
H    2.98203188  -4.02414808  -0.14476186
C    2.68016982  -2.84190540  -1.91287156
N    2.73958380  -2.68322864  -3.04688356
C   -1.10416456  -2.51600641   1.93399819
H   -0.10089699  -2.60774070   2.29446897
H   -1.10368675  -1.97262853   1.01223936
H   -1.51594367  -3.49044873   1.77337688
C   -1.95615499  -1.76356569   2.97300987
N   -2.59050059  -1.20333937   3.74660130
Cl   1.27839535  -0.02127051   0.94518204
