43
Energy:   -267.07862331
C   -0.69738112   2.85537859  -1.69697958
H    0.26280294   3.29168346  -1.51646694
H   -0.92190310   2.90709880  -2.74187862
H   -0.68866991   1.83213225  -1.38426547
C   -1.76872413   3.62569851  -0.90298249
N   -2.56638769   4.19923671  -0.31181557
C   -0.02482430  -1.16812728  -2.41179835
H   -0.77965464  -0.83053602  -3.09088853
H    0.81062965  -1.54343306  -2.96502649
H    0.29230690  -0.35208864  -1.79664971
C   -0.59729488  -2.28833417  -1.52353377
N   -1.02352525  -3.12237912  -0.86218042
C   -2.79443818  -0.22298840   0.46528491
H   -2.85338904  -1.28548437   0.57721028
H   -3.53942408   0.24193269   1.07663054
H   -1.82462488   0.11411832   0.76648304
C   -3.03317683   0.15189173  -1.00918746
N   -3.21092861   0.43100702  -2.10699915
C   -1.17691778   2.39935176   3.08620327
H   -1.51522619   3.34158140   3.46389482
H   -1.22873971   2.40411240   2.01746994
H   -0.16536858   2.23433359   3.39350820
C   -2.07129798   1.27389448   3.63849845
N   -2.73720470   0.43594038   4.04970731
C    3.10558363   1.35906998  -2.04558488
H    4.13335996   1.50675297  -2.30397551
H    2.98087182   0.38458797  -1.62163812
H    2.80717249   2.09904904  -1.33264667
C    2.23533319   1.48402606  -3.30996226
N    1.58739219   1.57706154  -4.25134869
C    2.65186019  -2.49679886   0.33178426
H    2.78948690  -3.45339965   0.79099444
H    1.62111937  -2.21638806   0.39377009
H    3.25063053  -1.76870231   0.83799429
C    3.07549592  -2.57150561  -1.14691506
N    3.39091199  -2.62712819  -2.24787391
C   -0.41044884  -2.04148198   2.69699168
H   -1.41092635  -2.12119269   3.06792449
H   -0.43361565  -1.89255008   1.63766091
H    0.07774405  -1.21133858   3.16328420
C    0.36020229  -3.33589700   3.01665805
N    0.93398709  -4.29964782   3.25466420
Cl   1.10720131   0.69946224   0.85398029
