43
Energy:   -266.57417924
C   -0.18784226   3.76750732  -0.61916203
H   -0.04895149   3.98259658  -1.65807788
H    0.51169451   3.01775081  -0.31352730
H   -0.02981881   4.65741580  -0.04645742
C   -1.62198934   3.25622457  -0.38805147
N   -2.68977704   2.87555132  -0.21597915
C   -1.28205355   0.24811398  -2.38241662
H   -2.28916862   0.55116049  -2.18548459
H   -0.75822816   0.12832868  -1.45712881
H   -1.28645186  -0.68123751  -2.91268595
C   -0.58014614   1.32192816  -3.23438440
N   -0.05754416   2.12143163  -3.86871314
C   -2.48889339  -0.47386529   1.36898499
H   -2.10483856   0.45045401   0.99078412
H   -1.68751487  -1.05149480   1.78012452
H   -3.21237636  -0.27410616   2.13159090
C   -3.15375779  -1.26034464   0.22399348
N   -3.64877956  -1.84591427  -0.62850474
C   -0.58400141   2.72274509   3.16403173
H   -1.02142272   2.47805894   4.10938430
H    0.43508901   2.39704127   3.14757493
H   -1.12730418   2.23402111   2.38244996
C   -0.63922037   4.24708014   2.95200934
N   -0.68033339   5.38201688   2.79414903
C    2.69919567  -0.52284919  -2.14200975
H    3.67484037  -0.39312780  -2.56175963
H    2.77974491  -1.02579924  -1.20102508
H    2.24316956   0.43418535  -1.99701261
C    1.83540109  -1.36309472  -3.10088741
N    1.19226677  -1.98869572  -3.81481542
C    2.62929670  -2.45418958   2.16645447
H    2.97802112  -3.02125378   3.00414752
H    1.56243646  -2.38150396   2.20420516
H    3.05497242  -1.47301042   2.19786684
C    3.05022138  -3.15481975   0.86125725
N    3.36361893  -3.67647076  -0.11052141
C   -0.18751787  -3.04011198  -0.71188861
H   -1.05926584  -3.02383784  -1.33212308
H    0.59192293  -3.58134234  -1.20629818
H    0.13684522  -2.03751678  -0.52617232
C   -0.52150551  -3.72755628   0.62507533
N   -0.77017449  -4.23938981   1.62050576
Cl   0.98014068   0.41792048   0.89049735
