37
Energy:  -1646.70284305
O    2.60789521  -0.95475168   0.44215597
H    3.15027318  -1.15448430   1.20515326
H    3.21321206  -0.56091606  -0.18610899
O   -3.36237701   2.45618605   2.05232283
H   -4.03882647   2.11382324   2.63664781
H   -3.55255247   3.39205259   1.98736934
O    0.55959168  -3.00293118  -0.05176314
H   -0.26559999  -3.45404134  -0.23006117
H    1.21618362  -3.69934022  -0.04021643
O    1.16334946  -0.90307482  -2.05406380
H    2.02256216  -0.54298357  -2.27388116
H    0.76133347  -1.09846363  -2.90049053
O   -2.99206727   1.15125867  -0.37512081
H   -3.22355946   1.61519859   0.42949274
H   -3.63012469   1.45636913  -1.02011863
O    3.59930909   0.33265949  -1.78229094
H    3.39667768   1.26753433  -1.74791961
H    4.43661811   0.28539014  -2.24371381
O   -2.03894244  -3.71669110  -0.67117261
H   -2.24935319  -4.15669740  -1.49479487
H   -2.62731530  -4.11447481  -0.02944266
O    2.37805237   2.81471087  -1.37376136
H    2.08512555   3.28777691  -2.15262864
H    2.88586657   3.45791423  -0.87914432
O   -1.38106464  -0.98086724  -0.59909861
H   -2.00712875  -0.25736115  -0.57055885
H   -1.92251768  -1.76258314  -0.70855501
O    0.61808046   1.13406452  -0.02407558
H    0.15437256   1.62535427   0.65404036
H    1.14160122   1.79201750  -0.48152037
O    0.06910673  -0.89126338   1.94170597
H   -0.25415505  -0.06293319   2.29611078
H   -0.02869907  -1.51469334   2.66142881
O   -0.70768119   1.71409526   2.35501251
H   -0.35916366   2.24322587   3.07249991
H   -1.62670652   1.97366411   2.28983347
Ca   0.59599234  -0.92772921  -0.06400517
