37
Energy:  -1650.55050224
O   -2.53293378  -0.49305549  -2.50065878
H   -3.26573051  -0.84540711  -3.00572229
H   -2.26718898   0.29218127  -2.97921366
O   -2.08928992   0.03973825   0.16807415
H   -2.53455317  -0.11890979  -0.66427391
H   -2.76678290   0.40557949   0.73675270
O    0.15253281   0.84540179   1.92788099
H   -0.06592443   0.50053355   2.79366052
H    0.94056355   1.36977358   2.07026648
O    2.04784244   3.38629569  -0.62425072
H    1.73180660   4.26220248  -0.40257419
H    2.73248167   3.53606301  -1.27622521
O   -0.46283376  -0.84281721   4.06385682
H    0.20267137  -1.04728747   4.72076373
H   -1.28043484  -0.79025011   4.55882857
O   -0.26637291  -1.59104888  -1.36098864
H   -0.95211418  -1.44542913  -2.01274445
H   -0.24554599  -2.54067306  -1.24261633
O    2.01167772  -0.54809388   0.21841335
H    2.65676585  -1.12618312  -0.18890222
H    2.53439262   0.11785934   0.66507573
O   -0.30049858  -4.15694019  -0.26272233
H   -1.08085948  -4.70470305  -0.34771972
H    0.43155798  -4.76976973  -0.33175139
O    2.72769724   1.76875833   1.53079074
H    3.44519070   2.02088297   2.11205501
H    2.68880013   2.46934897   0.87972113
O   -0.29430113  -1.92766622   1.46553558
H   -0.38892321  -1.93045618   2.41804318
H   -0.34105110  -2.85085918   1.21701787
O    0.20501674   1.34285447  -1.02092133
H    0.82667569   2.06404500  -0.92265528
H   -0.27526677   1.54764324  -1.82318137
O   -1.25200459   1.82635332  -3.33874769
H   -0.81028229   1.77367209  -4.18629588
H   -1.79363340   2.61327813  -3.39890938
Ca  -0.04506469  -0.29517092   0.22440982
