37
Energy:  -1653.91456506
O   -0.82712556   1.45115764  -2.98919206
H   -0.85545153   1.57532880  -3.93788116
H   -1.48205732   2.06004871  -2.64780093
O    1.52323995   0.81366603   1.67061468
H    2.35703803   0.45704712   1.97694056
H    1.38337112   1.59291568   2.20860961
O   -2.55834681   2.93130029  -1.37226316
H   -2.50595373   3.88322465  -1.45785998
H   -3.49374167   2.73633481  -1.42933116
O    1.61423508  -1.54009988   0.06694348
H    1.29890218  -2.44290280   0.10870343
H    2.45702620  -1.55905180   0.52034816
O    1.30070458   1.10463597  -1.25878429
H    0.77912502   1.38697667  -2.01009670
H    2.19812083   1.35007910  -1.48380339
O   -0.95007494   1.65969157   0.50315591
H   -1.57538235   2.10952753  -0.06506069
H   -0.76280300   2.28907487   1.19960242
O   -1.74936801  -3.32422973  -1.75754055
H   -1.43080429  -3.79141158  -2.52986828
H   -2.67594024  -3.55769639  -1.70106862
O   -0.77705435  -1.07986846   1.58492557
H   -0.73962286  -2.02976053   1.47296227
H   -1.39395944  -0.94718246   2.30468552
O   -0.22024320  -3.57758471   0.55479312
H   -0.77131116  -3.71673278  -0.21539761
H   -0.13335718  -4.44605310   0.94778844
O    0.17920863   3.10239979   2.60778913
H    0.55495733   3.97251256   2.47381697
H   -0.22604138   3.14674191   3.47383650
O    3.73487372  -0.92575038   1.78752718
H    4.60609431  -0.69917422   1.46215082
H    3.90025938  -1.45834000   2.56549101
O   -0.90289489  -0.72296725  -1.29176144
H   -1.25290227  -1.58594246  -1.51312194
H   -1.06510288  -0.19113031  -2.07090834
Ca   0.29541958   0.03609435   0.20649350
