37
Energy:  -1649.59135018
O   -1.73012015  -0.80420515   0.58114448
H   -2.45925073  -0.20129838   0.72641624
H   -2.14713156  -1.63178271   0.34145985
O    0.82199015  -0.95836829   2.12637197
H    0.99703333  -0.32615103   2.82343228
H    0.90409800  -1.81239547   2.55078652
O   -0.31767992   0.67789987  -1.50828245
H    0.34241769   1.15873729  -2.00758033
H   -1.15284921   1.04236186  -1.80135507
O    1.07658351   1.28471660   3.73245947
H    0.58458685   1.36108539   4.54997947
H    1.92472615   1.68471070   3.92452880
O    3.35479948  -2.23654096  -0.80853788
H    3.76000625  -2.38466397  -1.66299613
H    3.92281150  -2.69665453  -0.19056564
O   -2.87905517   1.74084507   0.69279140
H   -3.60808663   2.16107670   1.14902638
H   -3.02553034   1.94327226  -0.23122165
O   -0.15363587   1.55404059   1.23147081
H   -1.03438512   1.92796099   1.20508649
H    0.18506373   1.79826097   2.09279005
O    2.17440510   0.22494523  -0.19888579
H    2.40360213   0.90260923  -0.83486698
H    2.81334547  -0.47165293  -0.34967722
O    0.53400472  -2.09138136  -0.55535744
H   -0.11724867  -2.77945062  -0.69196473
H    1.36732199  -2.49963335  -0.79018609
O   -1.94506941  -3.42354510  -0.47175411
H   -2.11936956  -4.16488684   0.10812840
H   -2.41217519  -3.63591770  -1.27980233
O    1.99500827   1.99435017  -2.34539840
H    2.40146328   1.80934721  -3.19203887
H    2.12190329   2.93459154  -2.21860853
O   -2.74448797   1.91190793  -2.09469874
H   -3.42745102   1.47773760  -2.60586352
H   -2.70924448   2.80099665  -2.44755989
Ca   0.22066977  -0.23066113   0.27422342
