
                                 *****************
                                 * O   R   C   A *
                                 *****************

           --- An Ab Initio, DFT and Semiempirical electronic structure package ---

                  #######################################################
                  #                        -***-                        #
                  #          Department of theory and spectroscopy      #
                  #               Directorship: Frank Neese             #
                  #        Max Planck Institute fuer Kohlenforschung    #
                  #                Kaiser Wilhelm Platz 1               #
                  #                 D-45470 Muelheim/Ruhr               #
                  #                      Germany                        #
                  #                                                     #
                  #                  All rights reserved                #
                  #                        -***-                        #
                  #######################################################


                         Program Version 4.2.0 -  RELEASE  -


 With contributions from (in alphabetic order):
   Daniel Aravena         : Magnetic Suceptibility
   Michael Atanasov       : Ab Initio Ligand Field Theory (pilot matlab implementation)
   Alexander A. Auer      : GIAO ZORA, VPT2
   Ute Becker             : Parallelization
   Giovanni Bistoni       : ED, misc. LED, open-shell LED, HFLED
   Martin Brehm           : Molecular dynamics
   Dmytro Bykov           : SCF Hessian
   Vijay G. Chilkuri      : MRCI spin determinant printing, contributions to CSF-ICE
   Dipayan Datta          : RHF DLPNO-CCSD density
   Achintya Kumar Dutta   : EOM-CC, STEOM-CC
   Dmitry Ganyushin       : Spin-Orbit,Spin-Spin,Magnetic field MRCI
   Miquel Garcia          : C-PCM Hessian, Gaussian charge scheme
   Yang Guo               : DLPNO-NEVPT2, CIM, IAO-localization
   Andreas Hansen         : Spin unrestricted coupled pair/coupled cluster methods
   Benjamin Helmich-Paris : CASSCF linear response (MC-RPA)
   Lee Huntington         : MR-EOM, pCC
   Robert Izsak           : Overlap fitted RIJCOSX, COSX-SCS-MP3, EOM
   Christian Kollmar      : KDIIS, OOCD, Brueckner-CCSD(T), CCSD density
   Simone Kossmann        : Meta GGA functionals, TD-DFT gradient, OOMP2, MP2 Hessian
   Martin Krupicka        : AUTO-CI
   Lucas Lang             : DCDCAS
   Dagmar Lenk            : GEPOL surface, SMD
   Dimitrios Liakos       : Extrapolation schemes; Compound Job, initial MDCI parallelization
   Dimitrios Manganas     : Further ROCIS development; embedding schemes
   Dimitrios Pantazis     : SARC Basis sets
   Taras Petrenko         : DFT Hessian,TD-DFT gradient, ASA, ECA, R-Raman, ABS, FL, XAS/XES, NRVS
   Peter Pinski           : DLPNO-MP2, DLPNO-MP2 Gradient
   Christoph Reimann      : Effective Core Potentials
   Marius Retegan         : Local ZFS, SOC
   Christoph Riplinger    : Optimizer, TS searches, QM/MM, DLPNO-CCSD(T), (RO)-DLPNO pert. Triples
   Tobias Risthaus        : Range-separated hybrids, TD-DFT gradient, RPA, STAB
   Michael Roemelt        : Original ROCIS implementation
   Masaaki Saitow         : Open-shell DLPNO-CCSD energy and density
   Barbara Sandhoefer     : DKH picture change effects
   Avijit Sen             : IP-ROCIS
   Kantharuban Sivalingam : CASSCF convergence, NEVPT2, FIC-MRCI
   Bernardo de Souza      : ESD, SOC TD-DFT
   Georgi Stoychev        : AutoAux, RI-MP2 NMR
   Willem Van den Heuvel  : Paramagnetic NMR
   Boris Wezisla          : Elementary symmetry handling
   Frank Wennmohs         : Technical directorship


 We gratefully acknowledge several colleagues who have allowed us to
 interface, adapt or use parts of their codes:
   Stefan Grimme, W. Hujo, H. Kruse,             : VdW corrections, initial TS optimization,
                  C. Bannwarth                     DFT functionals, gCP, sTDA/sTD-DF
   Ed Valeev, F. Pavosevic, A. Kumar             : LibInt (2-el integral package), F12 methods
   Garnet Chan, S. Sharma, J. Yang, R. Olivares  : DMRG
   Ulf Ekstrom                                   : XCFun DFT Library
   Mihaly Kallay                                 : mrcc  (arbitrary order and MRCC methods)
   Andreas Klamt, Michael Diedenhofen            : otool_cosmo (COSMO solvation model)
   Jiri Pittner, Ondrej Demel                    : Mk-CCSD
   Frank Weinhold                                : gennbo (NPA and NBO analysis)
   Christopher J. Cramer and Donald G. Truhlar   : smd solvation model
   Lars Goerigk                                  : TD-DFT with DH, B97 family of functionals
   V. Asgeirsson, H. Jonsson                     : NEB implementation
   FAccTs GmbH                                   : IRC, NEB, NEB-TS, Multilevel, MM, QM/MM, CI optimization
   S Lehtola, MJT Oliveira, MAL Marques          : LibXC Library


 Your calculation uses the libint2 library for the computation of 2-el integrals
 For citations please refer to: http://libint.valeyev.net

 Your ORCA version has been built with support for libXC version: 4.2.3
 For citations please refer to: https://tddft.org/programs/libxc/

 This ORCA versions uses:
   CBLAS   interface :  Fast vector & matrix operations
   LAPACKE interface :  Fast linear algebra routines
   SCALAPACK package :  Parallel linear algebra routines


----- Orbital basis set information -----
Your calculation utilizes the basis: def2-TZVP
   F. Weigend and R. Ahlrichs, Phys. Chem. Chem. Phys. 7, 3297 (2005).

================================================================================
                                        WARNINGS
                       Please study these warnings very carefully!
================================================================================


WARNING: The frozen-core approximation for MP2-gradient calculations is turned on by default.

INFO   : the flag for use of LIBINT has been found!

================================================================================
                                       INPUT FILE
================================================================================
NAME = 12h2o.su.etal.mol1,2,3,4,5,6,8-orca.engrad-mp2.def2tzvp.frozencore.inp
|  1> # 12h2o.su.etal.mol1,2,3,4,5,6,8
|  2> ! MP2 def2-TZVP EnGrad TightSCF
|  3> 
|  4> %pal
|  5>     nprocs 6
|  6> end
|  7> 
|  8> %maxcore 8000
|  9> 
| 10> %scf
| 11>     ConvForced true
| 12> end
| 13> 
| 14> *xyz 0 1
| 15> O  -1.794470000  -0.923410000   2.768350000
| 16> H  -2.338250000  -1.359750000   3.430940000
| 17> H  -0.879480000  -1.303000000   2.865760000
| 18> O   0.923410000  -1.794470000  -2.768350000
| 19> H   1.359750000  -2.338250000  -3.430940000
| 20> H   1.303000000  -0.879480000  -2.865760000
| 21> O  -1.752130000  -0.741530000  -2.896280000
| 22> H  -2.036450000  -0.920500000  -1.984040000
| 23> H  -0.921210000  -1.242140000  -2.984230000
| 24> O  -0.885520000   1.737840000   0.052730000
| 25> H  -1.032320000   2.090180000  -0.841890000
| 26> H  -1.284090000   0.839590000   0.017130000
| 27> O   0.885520000  -1.737840000   0.052730000
| 28> H   1.284090000  -0.839590000   0.017130000
| 29> H   1.032320000  -2.090180000  -0.841890000
| 30> O   1.737840000   0.885520000  -0.052730000
| 31> H   2.090180000   1.032320000   0.841890000
| 32> H   0.839590000   1.284090000  -0.017130000
| 33> O   1.752130000   0.741530000  -2.896280000
| 34> H   2.036450000   0.920500000  -1.984040000
| 35> H   0.921210000   1.242140000  -2.984230000
| 36> *
| 37> 
| 38>                          ****END OF INPUT****
================================================================================

                     *******************************
                     * Energy+Gradient Calculation *
                     *******************************

---------------------------------
CARTESIAN COORDINATES (ANGSTROEM)
---------------------------------
  O     -1.794470   -0.923410    2.768350
  H     -2.338250   -1.359750    3.430940
  H     -0.879480   -1.303000    2.865760
  O      0.923410   -1.794470   -2.768350
  H      1.359750   -2.338250   -3.430940
  H      1.303000   -0.879480   -2.865760
  O     -1.752130   -0.741530   -2.896280
  H     -2.036450   -0.920500   -1.984040
  H     -0.921210   -1.242140   -2.984230
  O     -0.885520    1.737840    0.052730
  H     -1.032320    2.090180   -0.841890
  H     -1.284090    0.839590    0.017130
  O      0.885520   -1.737840    0.052730
  H      1.284090   -0.839590    0.017130
  H      1.032320   -2.090180   -0.841890
  O      1.737840    0.885520   -0.052730
  H      2.090180    1.032320    0.841890
  H      0.839590    1.284090   -0.017130
  O      1.752130    0.741530   -2.896280
  H      2.036450    0.920500   -1.984040
  H      0.921210    1.242140   -2.984230

----------------------------
CARTESIAN COORDINATES (A.U.)
----------------------------
  NO LB      ZA    FRAG     MASS         X           Y           Z
   0 O     8.0000    0    15.999   -3.391057   -1.744992    5.231423
   1 H     1.0000    0     1.008   -4.418652   -2.569555    6.483537
   2 H     1.0000    0     1.008   -1.661976   -2.462313    5.415502
   3 O     8.0000    0    15.999    1.744992   -3.391057   -5.231423
   4 H     1.0000    0     1.008    2.569555   -4.418652   -6.483537
   5 H     1.0000    0     1.008    2.462313   -1.661976   -5.415502
   6 O     8.0000    0    15.999   -3.311046   -1.401289   -5.473176
   7 H     1.0000    0     1.008   -3.848333   -1.739493   -3.749292
   8 H     1.0000    0     1.008   -1.740835   -2.347304   -5.639377
   9 O     8.0000    0    15.999   -1.673390    3.284042    0.099645
  10 H     1.0000    0     1.008   -1.950802    3.949868   -1.590942
  11 H     1.0000    0     1.008   -2.426578    1.586595    0.032371
  12 O     8.0000    0    15.999    1.673390   -3.284042    0.099645
  13 H     1.0000    0     1.008    2.426578   -1.586595    0.032371
  14 H     1.0000    0     1.008    1.950802   -3.949868   -1.590942
  15 O     8.0000    0    15.999    3.284042    1.673390   -0.099645
  16 H     1.0000    0     1.008    3.949868    1.950802    1.590942
  17 H     1.0000    0     1.008    1.586595    2.426578   -0.032371
  18 O     8.0000    0    15.999    3.311046    1.401289   -5.473176
  19 H     1.0000    0     1.008    3.848333    1.739493   -3.749292
  20 H     1.0000    0     1.008    1.740835    2.347304   -5.639377

--------------------------------
INTERNAL COORDINATES (ANGSTROEM)
--------------------------------
 O      0   0   0     0.000000000000     0.00000000     0.00000000
 H      1   0   0     0.961828878803     0.00000000     0.00000000
 H      1   2   0     0.995381322057   106.21731035     0.00000000
 O      3   1   2     5.935920367146   102.58474291   140.89009172
 H      4   3   1     0.961828878803   146.97742434   224.01286022
 H      4   3   1     0.995381322057    97.62005672    87.72090689
 O      4   3   1     2.878117964938    74.30903121   359.04191204
 H      7   4   3     0.972136791249    99.37069922   345.64431536
 H      7   4   3     0.974050112161    12.30570018   233.12878636
 O      8   7   4     3.541164138161   107.84672602    83.70571148
 H     10   8   7     0.972645187106    72.17296994    29.09453504
 H     10   8   7     0.983350632989    33.04029707   190.88793319
 O      4   3   1     2.821902722526    17.32744736   169.52589616
 H     13   4   3     0.983350632989    88.66470709   258.45499027
 H     13   4   3     0.972645187106    21.75017499   124.29821266
 O     14  13   4     1.785153773264   170.81379649    89.95043540
 H     16  14  13     0.972645187106   101.65007623   109.44492584
 H     16  14  13     0.983350632989    99.09581498     3.33484705
 O      6   4   3     1.682356278379   171.61043709   321.17145860
 H     19   6   4     0.972136791249   103.79460456    70.64587838
 H     19   6   4     0.974050112161   105.61118924   321.69395179

---------------------------
INTERNAL COORDINATES (A.U.)
---------------------------
 O      0   0   0     0.000000000000     0.00000000     0.00000000
 H      1   0   0     1.817593168635     0.00000000     0.00000000
 H      1   2   0     1.880998097508   106.21731035     0.00000000
 O      3   1   2    11.217263846671   102.58474291   140.89009172
 H      4   3   1     1.817593168635   146.97742434   224.01286022
 H      4   3   1     1.880998097508    97.62005672    87.72090689
 O      4   3   1     5.438854734852    74.30903121   359.04191204
 H      7   4   3     1.837072300170    99.37069922   345.64431536
 H      7   4   3     1.840687952699    12.30570018   233.12878636
 O      8   7   4     6.691830416388   107.84672602    83.70571148
 H     10   8   7     1.838033029106    72.17296994    29.09453504
 H     10   8   7     1.858263389967    33.04029707   190.88793319
 O      4   3   1     5.332623322141    17.32744736   169.52589616
 H     13   4   3     1.858263389967    88.66470709   258.45499027
 H     13   4   3     1.838033029106    21.75017499   124.29821266
 O     14  13   4     3.373451738406   170.81379649    89.95043540
 H     16  14  13     1.838033029106   101.65007623   109.44492584
 H     16  14  13     1.858263389967    99.09581498     3.33484705
 O      6   4   3     3.179192625819   171.61043709   321.17145860
 H     19   6   4     1.837072300170   103.79460456    70.64587838
 H     19   6   4     1.840687952699   105.61118924   321.69395179

---------------------
BASIS SET INFORMATION
---------------------
There are 2 groups of distinct atoms

 Group   1 Type O   : 11s6p2d1f contracted to 5s3p2d1f pattern {62111/411/11/1}
 Group   2 Type H   : 5s1p contracted to 3s1p pattern {311/1}

Atom   0O    basis set group =>   1
Atom   1H    basis set group =>   2
Atom   2H    basis set group =>   2
Atom   3O    basis set group =>   1
Atom   4H    basis set group =>   2
Atom   5H    basis set group =>   2
Atom   6O    basis set group =>   1
Atom   7H    basis set group =>   2
Atom   8H    basis set group =>   2
Atom   9O    basis set group =>   1
Atom  10H    basis set group =>   2
Atom  11H    basis set group =>   2
Atom  12O    basis set group =>   1
Atom  13H    basis set group =>   2
Atom  14H    basis set group =>   2
Atom  15O    basis set group =>   1
Atom  16H    basis set group =>   2
Atom  17H    basis set group =>   2
Atom  18O    basis set group =>   1
Atom  19H    basis set group =>   2
Atom  20H    basis set group =>   2


           ************************************************************
           *        Program running with 6 parallel MPI-processes     *
           *              working on a common directory               *
           ************************************************************
------------------------------------------------------------------------------
                           ORCA GTO INTEGRAL CALCULATION
------------------------------------------------------------------------------

                         BASIS SET STATISTICS AND STARTUP INFO

 # of primitive gaussian shells          ...  224
 # of primitive gaussian functions       ...  434
 # of contracted shells                  ...  133
 # of contracted basis functions         ...  301
 Highest angular momentum                ...    3
 Maximum contraction depth               ...    6
 Integral package used                   ... LIBINT
 Integral threshhold            Thresh   ...  2.500e-11
 Primitive cut-off              TCut     ...  2.500e-12


------------------------------ INTEGRAL EVALUATION ----------------------------


 * One electron integrals 
 Pre-screening matrix                    ... done
 Shell pair data                         ... done (   0.002 sec)



           ************************************************************
           *        Program running with 6 parallel MPI-processes     *
           *              working on a common directory               *
           ************************************************************
-------------------------------------------------------------------------------
                                 ORCA SCF
-------------------------------------------------------------------------------

------------
SCF SETTINGS
------------
Hamiltonian:
 Ab initio Hamiltonian  Method          .... Hartree-Fock(GTOs)


General Settings:
 Integral files         IntName         .... 12h2o.su.etal.mol1,2,3,4,5,6,8-orca.engrad-mp2.def2tzvp.frozencore
 Hartree-Fock type      HFTyp           .... RHF
 Total Charge           Charge          ....    0
 Multiplicity           Mult            ....    1
 Number of Electrons    NEL             ....   70
 Basis Dimension        Dim             ....  301
 Nuclear Repulsion      ENuc            ....    358.5595768671 Eh

Convergence Acceleration:
 DIIS                   CNVDIIS         .... on
   Start iteration      DIISMaxIt       ....    12
   Startup error        DIISStart       ....  0.200000
   # of expansion vecs  DIISMaxEq       ....     5
   Bias factor          DIISBfac        ....   1.050
   Max. coefficient     DIISMaxC        ....  10.000
 Newton-Raphson         CNVNR           .... off
 SOSCF                  CNVSOSCF        .... on
   Start iteration      SOSCFMaxIt      ....   150
   Startup grad/error   SOSCFStart      ....  0.003300
 Level Shifting         CNVShift        .... on
   Level shift para.    LevelShift      ....    0.2500
   Turn off err/grad.   ShiftErr        ....    0.0010
 Zerner damping         CNVZerner       .... off
 Static damping         CNVDamp         .... on
   Fraction old density DampFac         ....    0.7000
   Max. Damping (<1)    DampMax         ....    0.9800
   Min. Damping (>=0)   DampMin         ....    0.0000
   Turn off err/grad.   DampErr         ....    0.1000
 Fernandez-Rico         CNVRico         .... off

SCF Procedure:
 Maximum # iterations   MaxIter         ....   125
 SCF integral mode      SCFMode         .... Direct
   Integral package                     .... LIBINT
 Reset frequency        DirectResetFreq ....    20
 Integral Threshold     Thresh          ....  2.500e-11 Eh
 Primitive CutOff       TCut            ....  2.500e-12 Eh

Convergence Tolerance:
 Convergence Check Mode ConvCheckMode   .... Total+1el-Energy
 Convergence forced     ConvForced      .... 1
 Energy Change          TolE            ....  1.000e-08 Eh
 1-El. energy change                    ....  1.000e-05 Eh
 Orbital Gradient       TolG            ....  1.000e-05
 Orbital Rotation angle TolX            ....  1.000e-05
 DIIS Error             TolErr          ....  5.000e-07


Diagonalization of the overlap matrix:
Smallest eigenvalue                        ... 3.489e-03
Time for diagonalization                   ...    0.020 sec
Threshold for overlap eigenvalues          ... 1.000e-08
Number of eigenvalues below threshold      ... 0
Time for construction of square roots      ...    0.014 sec
Total time needed                          ...    0.034 sec

-------------------
DFT GRID GENERATION
-------------------

General Integration Accuracy     IntAcc      ...  4.340
Radial Grid Type                 RadialGrid  ... Gauss-Chebyshev
Angular Grid (max. acc.)         AngularGrid ... Lebedev-110
Angular grid pruning method      GridPruning ... 3 (G Style)
Weight generation scheme         WeightScheme... Becke
Basis function cutoff            BFCut       ...    1.0000e-11
Integration weight cutoff        WCut        ...    1.0000e-14
Grids for H and He will be reduced by one unit

# of grid points (after initial pruning)     ...  23128 (   0.0 sec)
# of grid points (after weights+screening)   ...  21665 (   0.0 sec)
nearest neighbour list constructed           ...    0.0 sec
Grid point re-assignment to atoms done       ...    0.0 sec
Grid point division into batches done        ...    0.0 sec
Reduced shell lists constructed in    0.0 sec

Total number of grid points                  ...    21665
Total number of batches                      ...      349
Average number of points per batch           ...       62
Average number of grid points per atom       ...     1032
Average number of shells per batch           ...    51.58 (38.78%)
Average number of basis functions per batch  ...    99.25 (32.97%)
Average number of large shells per batch     ...    33.15 (64.26%)
Average number of large basis fcns per batch ...    65.25 (65.74%)
Maximum spatial batch extension              ...  14.53, 20.63, 16.21 au
Average spatial batch extension              ...   0.61,  0.70,  0.64 au

Time for grid setup =    0.072 sec

------------------------------
INITIAL GUESS: MODEL POTENTIAL
------------------------------
Loading Hartree-Fock densities                     ... done
Calculating cut-offs                               ... done
Setting up the integral package                    ... done
Initializing the effective Hamiltonian             ... done
Starting the Coulomb interaction                   ... done (   0.0 sec)
Reading the grid                                   ... done
Mapping shells                                     ... done
Starting the XC term evaluation                    ... done (   0.0 sec)
Transforming the Hamiltonian                       ... done (   0.0 sec)
Diagonalizing the Hamiltonian                      ... done (   0.0 sec)
Back transforming the eigenvectors                 ... done (   0.0 sec)
Now organizing SCF variables                       ... done
                      ------------------
                      INITIAL GUESS DONE (   0.2 sec)
                      ------------------
--------------
SCF ITERATIONS
--------------
ITER       Energy         Delta-E        Max-DP      RMS-DP      [F,P]     Damp
               ***  Starting incremental Fock matrix formation  ***
  0   -531.8207705659   0.000000000000 0.04452811  0.00089663  0.3465309 0.7000
  1   -532.0638653167  -0.243094750774 0.02949414  0.00062074  0.2167083 0.7000
                               ***Turning on DIIS***
  2   -532.1924358155  -0.128570498797 0.01649937  0.00034626  0.1637854 0.7000
  3   -533.3516606678  -1.159224852276 0.00740038  0.00015808  0.1218446 0.7000
  4   -533.1166322153   0.235028452443 0.01636825  0.00036565  0.0861827 0.0000
  5   -532.4868688954   0.629763319918 0.00234589  0.00005887  0.0055851 0.0000
                      *** Initiating the SOSCF procedure ***
                           *** Shutting down DIIS ***
                      *** Re-Reading the Fockian *** 
                      *** Removing any level shift *** 
ITER      Energy       Delta-E        Grad      Rot      Max-DP    RMS-DP
  6   -532.45062368   0.0362452111  0.000798  0.000798  0.001442  0.000036
               *** Restarting incremental Fock matrix formation ***
  7   -532.44042371   0.0101999719  0.000317  0.000453  0.000688  0.000016
  8   -532.44043421  -0.0000104967  0.000155  0.000366  0.000614  0.000014
  9   -532.44043680  -0.0000025883  0.000084  0.000051  0.000116  0.000003
 10   -532.44043701  -0.0000002139  0.000009  0.000007  0.000023  0.000000
 11   -532.44043702  -0.0000000042  0.000003  0.000004  0.000006  0.000000
                  ***Gradient check signals convergence***
              ***Rediagonalizing the Fockian in SOSCF/NRSCF***

               *****************************************************
               *                     SUCCESS                       *
               *           SCF CONVERGED AFTER  12 CYCLES          *
               *****************************************************


----------------
TOTAL SCF ENERGY
----------------

Total Energy       :         -532.44043702 Eh          -14488.44087 eV

Components:
Nuclear Repulsion  :          358.55957687 Eh            9756.90212 eV
Electronic Energy  :         -891.00001388 Eh          -24245.34299 eV
One Electron Energy:        -1449.83154164 Eh          -39451.92194 eV
Two Electron Energy:          558.83152776 Eh           15206.57896 eV

Virial components:
Potential Energy   :        -1064.15279110 Eh          -28957.06959 eV
Kinetic Energy     :          531.71235409 Eh           14468.62873 eV
Virial Ratio       :            2.00136932


---------------
SCF CONVERGENCE
---------------

  Last Energy change         ...    1.2301e-10  Tolerance :   1.0000e-08
  Last MAX-Density change    ...    1.3856e-06  Tolerance :   1.0000e-07
  Last RMS-Density change    ...    3.7821e-08  Tolerance :   5.0000e-09
  Last Orbital Gradient      ...    1.5831e-06  Tolerance :   1.0000e-05
  Last Orbital Rotation      ...    9.9135e-07  Tolerance :   1.0000e-05

             **** THE GBW FILE WAS UPDATED (12h2o.su.etal.mol1,2,3,4,5,6,8-orca.engrad-mp2.def2tzvp.frozencore.gbw) ****
             **** DENSITY FILE WAS UPDATED (12h2o.su.etal.mol1,2,3,4,5,6,8-orca.engrad-mp2.def2tzvp.frozencore.scfp) ****
             **** ENERGY FILE WAS UPDATED (12h2o.su.etal.mol1,2,3,4,5,6,8-orca.engrad-mp2.def2tzvp.frozencore.en.tmp) ****
             **** THE GBW FILE WAS UPDATED (12h2o.su.etal.mol1,2,3,4,5,6,8-orca.engrad-mp2.def2tzvp.frozencore.gbw) ****
             **** DENSITY FILE WAS UPDATED (12h2o.su.etal.mol1,2,3,4,5,6,8-orca.engrad-mp2.def2tzvp.frozencore.scfp) ****
----------------
ORBITAL ENERGIES
----------------

  NO   OCC          E(Eh)            E(eV) 
   0   2.0000     -20.602758      -560.6295 
   1   2.0000     -20.587947      -560.2265 
   2   2.0000     -20.586755      -560.1941 
   3   2.0000     -20.561179      -559.4981 
   4   2.0000     -20.558759      -559.4323 
   5   2.0000     -20.540538      -558.9364 
   6   2.0000     -20.509437      -558.0901 
   7   2.0000      -1.388750       -37.7898 
   8   2.0000      -1.378408       -37.5084 
   9   2.0000      -1.368625       -37.2422 
  10   2.0000      -1.346768       -36.6474 
  11   2.0000      -1.334111       -36.3030 
  12   2.0000      -1.321979       -35.9729 
  13   2.0000      -1.293680       -35.2028 
  14   2.0000      -0.747065       -20.3287 
  15   2.0000      -0.739967       -20.1355 
  16   2.0000      -0.733169       -19.9505 
  17   2.0000      -0.728516       -19.8239 
  18   2.0000      -0.702302       -19.1106 
  19   2.0000      -0.690904       -18.8004 
  20   2.0000      -0.678249       -18.4561 
  21   2.0000      -0.644875       -17.5479 
  22   2.0000      -0.618760       -16.8373 
  23   2.0000      -0.604524       -16.4499 
  24   2.0000      -0.591158       -16.0862 
  25   2.0000      -0.571453       -15.5500 
  26   2.0000      -0.568941       -15.4817 
  27   2.0000      -0.551801       -15.0153 
  28   2.0000      -0.539361       -14.6767 
  29   2.0000      -0.524054       -14.2602 
  30   2.0000      -0.517689       -14.0870 
  31   2.0000      -0.502739       -13.6802 
  32   2.0000      -0.500806       -13.6276 
  33   2.0000      -0.487875       -13.2758 
  34   2.0000      -0.460292       -12.5252 
  35   0.0000       0.086044         2.3414 
  36   0.0000       0.128156         3.4873 
  37   0.0000       0.141692         3.8556 
  38   0.0000       0.145345         3.9550 
  39   0.0000       0.157559         4.2874 
  40   0.0000       0.195883         5.3302 
  41   0.0000       0.209347         5.6966 
  42   0.0000       0.237308         6.4575 
  43   0.0000       0.255689         6.9576 
  44   0.0000       0.269302         7.3281 
  45   0.0000       0.301907         8.2153 
  46   0.0000       0.312345         8.4994 
  47   0.0000       0.337102         9.1730 
  48   0.0000       0.343113         9.3366 
  49   0.0000       0.418777        11.3955 
  50   0.0000       0.459620        12.5069 
  51   0.0000       0.479482        13.0474 
  52   0.0000       0.501106        13.6358 
  53   0.0000       0.521542        14.1919 
  54   0.0000       0.527165        14.3449 
  55   0.0000       0.532309        14.4849 
  56   0.0000       0.538443        14.6518 
  57   0.0000       0.551666        15.0116 
  58   0.0000       0.559320        15.2199 
  59   0.0000       0.567042        15.4300 
  60   0.0000       0.576873        15.6975 
  61   0.0000       0.590293        16.0627 
  62   0.0000       0.600107        16.3297 
  63   0.0000       0.603097        16.4111 
  64   0.0000       0.624369        16.9900 
  65   0.0000       0.629458        17.1284 
  66   0.0000       0.647865        17.6293 
  67   0.0000       0.657912        17.9027 
  68   0.0000       0.660858        17.9829 
  69   0.0000       0.699586        19.0367 
  70   0.0000       0.713065        19.4035 
  71   0.0000       0.721951        19.6453 
  72   0.0000       0.737013        20.0552 
  73   0.0000       0.744840        20.2681 
  74   0.0000       0.770905        20.9774 
  75   0.0000       0.778055        21.1720 
  76   0.0000       0.782731        21.2992 
  77   0.0000       0.792499        21.5650 
  78   0.0000       0.805359        21.9149 
  79   0.0000       0.807878        21.9835 
  80   0.0000       0.835577        22.7372 
  81   0.0000       0.848535        23.0898 
  82   0.0000       0.854955        23.2645 
  83   0.0000       0.886494        24.1227 
  84   0.0000       0.905078        24.6284 
  85   0.0000       0.937669        25.5153 
  86   0.0000       0.969493        26.3812 
  87   0.0000       1.001216        27.2445 
  88   0.0000       1.072518        29.1847 
  89   0.0000       1.097430        29.8626 
  90   0.0000       1.114090        30.3159 
  91   0.0000       1.342713        36.5371 
  92   0.0000       1.356655        36.9165 
  93   0.0000       1.384397        37.6714 
  94   0.0000       1.405262        38.2391 
  95   0.0000       1.413800        38.4715 
  96   0.0000       1.422639        38.7120 
  97   0.0000       1.433590        39.0100 
  98   0.0000       1.437385        39.1132 
  99   0.0000       1.442491        39.2522 
 100   0.0000       1.448384        39.4125 
 101   0.0000       1.461156        39.7601 
 102   0.0000       1.504237        40.9324 
 103   0.0000       1.522855        41.4390 
 104   0.0000       1.533998        41.7422 
 105   0.0000       1.552436        42.2439 
 106   0.0000       1.558741        42.4155 
 107   0.0000       1.572044        42.7775 
 108   0.0000       1.590046        43.2674 
 109   0.0000       1.603691        43.6386 
 110   0.0000       1.623955        44.1901 
 111   0.0000       1.670286        45.4508 
 112   0.0000       1.785304        48.5806 
 113   0.0000       1.805391        49.1272 
 114   0.0000       1.816920        49.4409 
 115   0.0000       1.837698        50.0063 
 116   0.0000       1.861562        50.6557 
 117   0.0000       1.868482        50.8440 
 118   0.0000       1.891774        51.4778 
 119   0.0000       1.900320        51.7103 
 120   0.0000       1.921921        52.2981 
 121   0.0000       1.948097        53.0104 
 122   0.0000       1.971531        53.6481 
 123   0.0000       1.992266        54.2123 
 124   0.0000       2.013634        54.7938 
 125   0.0000       2.014652        54.8215 
 126   0.0000       2.041296        55.5465 
 127   0.0000       2.055648        55.9370 
 128   0.0000       2.078427        56.5569 
 129   0.0000       2.104956        57.2788 
 130   0.0000       2.152306        58.5672 
 131   0.0000       2.183066        59.4043 
 132   0.0000       2.187700        59.5304 
 133   0.0000       2.240919        60.9785 
 134   0.0000       2.268526        61.7297 
 135   0.0000       2.288016        62.2601 
 136   0.0000       2.302430        62.6523 
 137   0.0000       2.305486        62.7355 
 138   0.0000       2.320699        63.1494 
 139   0.0000       2.329326        63.3842 
 140   0.0000       2.344594        63.7996 
 141   0.0000       2.353415        64.0397 
 142   0.0000       2.372692        64.5642 
 143   0.0000       2.379941        64.7615 
 144   0.0000       2.394062        65.1457 
 145   0.0000       2.398300        65.2611 
 146   0.0000       2.416806        65.7646 
 147   0.0000       2.449605        66.6571 
 148   0.0000       2.459790        66.9343 
 149   0.0000       2.476143        67.3793 
 150   0.0000       2.514972        68.4359 
 151   0.0000       2.539099        69.0924 
 152   0.0000       2.558780        69.6279 
 153   0.0000       2.576876        70.1204 
 154   0.0000       2.584158        70.3185 
 155   0.0000       2.596310        70.6492 
 156   0.0000       2.610514        71.0357 
 157   0.0000       2.629341        71.5480 
 158   0.0000       2.641606        71.8818 
 159   0.0000       2.650454        72.1225 
 160   0.0000       2.652220        72.1706 
 161   0.0000       2.682551        72.9959 
 162   0.0000       2.689786        73.1928 
 163   0.0000       2.714993        73.8787 
 164   0.0000       2.720056        74.0165 
 165   0.0000       2.752848        74.9088 
 166   0.0000       2.778417        75.6046 
 167   0.0000       2.813194        76.5509 
 168   0.0000       2.886720        78.5516 
 169   0.0000       2.913873        79.2905 
 170   0.0000       2.922783        79.5330 
 171   0.0000       2.930773        79.7504 
 172   0.0000       2.947777        80.2131 
 173   0.0000       2.961358        80.5827 
 174   0.0000       2.970884        80.8419 
 175   0.0000       2.993282        81.4514 
 176   0.0000       2.999992        81.6339 
 177   0.0000       3.006156        81.8017 
 178   0.0000       3.013698        82.0069 
 179   0.0000       3.032729        82.5248 
 180   0.0000       3.056126        83.1614 
 181   0.0000       3.086770        83.9953 
 182   0.0000       3.105881        84.5153 
 183   0.0000       3.128578        85.1329 
 184   0.0000       3.162451        86.0547 
 185   0.0000       3.171087        86.2897 
 186   0.0000       3.201911        87.1284 
 187   0.0000       3.205796        87.2341 
 188   0.0000       3.231603        87.9364 
 189   0.0000       3.281119        89.2838 
 190   0.0000       3.298987        89.7700 
 191   0.0000       3.330929        90.6392 
 192   0.0000       3.365128        91.5698 
 193   0.0000       3.400380        92.5291 
 194   0.0000       3.477686        94.6326 
 195   0.0000       3.529349        96.0385 
 196   0.0000       3.988859       108.5424 
 197   0.0000       4.009180       109.0953 
 198   0.0000       4.046980       110.1239 
 199   0.0000       4.065012       110.6146 
 200   0.0000       4.080537       111.0371 
 201   0.0000       4.132120       112.4407 
 202   0.0000       4.162258       113.2608 
 203   0.0000       4.267215       116.1168 
 204   0.0000       4.295455       116.8853 
 205   0.0000       4.315563       117.4324 
 206   0.0000       4.320020       117.5537 
 207   0.0000       4.336856       118.0119 
 208   0.0000       4.378024       119.1321 
 209   0.0000       4.393633       119.5568 
 210   0.0000       5.504871       149.7952 
 211   0.0000       5.513368       150.0264 
 212   0.0000       5.518651       150.1701 
 213   0.0000       5.544590       150.8760 
 214   0.0000       5.554643       151.1495 
 215   0.0000       5.565662       151.4494 
 216   0.0000       5.593075       152.1953 
 217   0.0000       5.630372       153.2102 
 218   0.0000       5.638811       153.4399 
 219   0.0000       5.644675       153.5994 
 220   0.0000       5.645562       153.6235 
 221   0.0000       5.665978       154.1791 
 222   0.0000       5.672472       154.3558 
 223   0.0000       5.704065       155.2155 
 224   0.0000       5.776570       157.1885 
 225   0.0000       5.796461       157.7297 
 226   0.0000       5.797492       157.7578 
 227   0.0000       5.804056       157.9364 
 228   0.0000       5.817678       158.3071 
 229   0.0000       5.817807       158.3106 
 230   0.0000       5.829713       158.6345 
 231   0.0000       5.836900       158.8301 
 232   0.0000       5.847897       159.1294 
 233   0.0000       5.849192       159.1646 
 234   0.0000       5.853262       159.2754 
 235   0.0000       5.857686       159.3957 
 236   0.0000       5.865067       159.5966 
 237   0.0000       5.871734       159.7780 
 238   0.0000       5.881872       160.0539 
 239   0.0000       5.893019       160.3572 
 240   0.0000       5.914898       160.9526 
 241   0.0000       5.920289       161.0992 
 242   0.0000       5.922587       161.1618 
 243   0.0000       5.928488       161.3224 
 244   0.0000       5.951646       161.9525 
 245   0.0000       6.429069       174.9439 
 246   0.0000       6.435981       175.1319 
 247   0.0000       6.444131       175.3537 
 248   0.0000       6.463879       175.8911 
 249   0.0000       6.474314       176.1750 
 250   0.0000       6.507436       177.0763 
 251   0.0000       6.517691       177.3554 
 252   0.0000       6.644549       180.8074 
 253   0.0000       6.678099       181.7203 
 254   0.0000       6.703242       182.4045 
 255   0.0000       6.705752       182.4728 
 256   0.0000       6.717973       182.8053 
 257   0.0000       6.740269       183.4120 
 258   0.0000       6.775581       184.3729 
 259   0.0000       6.825950       185.7435 
 260   0.0000       6.831171       185.8856 
 261   0.0000       6.836481       186.0301 
 262   0.0000       6.849335       186.3799 
 263   0.0000       6.861304       186.7056 
 264   0.0000       6.871100       186.9721 
 265   0.0000       6.879316       187.1957 
 266   0.0000       6.892291       187.5488 
 267   0.0000       6.893545       187.5829 
 268   0.0000       6.901731       187.8056 
 269   0.0000       6.909366       188.0134 
 270   0.0000       6.928141       188.5243 
 271   0.0000       6.938841       188.8155 
 272   0.0000       6.948042       189.0658 
 273   0.0000       6.953527       189.2151 
 274   0.0000       6.977889       189.8780 
 275   0.0000       6.979534       189.9228 
 276   0.0000       7.003873       190.5851 
 277   0.0000       7.034565       191.4202 
 278   0.0000       7.045134       191.7079 
 279   0.0000       7.088757       192.8949 
 280   0.0000       7.345515       199.8816 
 281   0.0000       7.376784       200.7325 
 282   0.0000       7.379143       200.7967 
 283   0.0000       7.413961       201.7441 
 284   0.0000       7.425773       202.0656 
 285   0.0000       7.478794       203.5083 
 286   0.0000       7.484895       203.6743 
 287   0.0000       7.496272       203.9839 
 288   0.0000       7.506438       204.2605 
 289   0.0000       7.522792       204.7056 
 290   0.0000       7.553559       205.5428 
 291   0.0000       7.568389       205.9463 
 292   0.0000       7.571318       206.0260 
 293   0.0000       7.648000       208.1127 
 294   0.0000      44.830579      1219.9021 
 295   0.0000      44.935561      1222.7588 
 296   0.0000      44.945906      1223.0403 
 297   0.0000      44.976000      1223.8592 
 298   0.0000      45.015849      1224.9435 
 299   0.0000      45.044725      1225.7293 
 300   0.0000      45.105265      1227.3767 

                    ********************************
                    * MULLIKEN POPULATION ANALYSIS *
                    ********************************

-----------------------
MULLIKEN ATOMIC CHARGES
-----------------------
   0 O :   -0.711664
   1 H :    0.346812
   2 H :    0.364719
   3 O :   -0.786015
   4 H :    0.356970
   5 H :    0.411733
   6 O :   -0.740344
   7 H :    0.338042
   8 H :    0.388340
   9 O :   -0.717023
  10 H :    0.360994
  11 H :    0.388545
  12 O :   -0.771004
  13 H :    0.362355
  14 H :    0.380642
  15 O :   -0.776088
  16 H :    0.374190
  17 H :    0.395503
  18 O :   -0.731835
  19 H :    0.407978
  20 H :    0.357147
Sum of atomic charges:   -0.0000000

--------------------------------
MULLIKEN REDUCED ORBITAL CHARGES
--------------------------------
  0 O s       :     3.812685  s :     3.812685
      pz      :     1.721526  p :     4.872233
      px      :     1.355169
      py      :     1.795538
      dz2     :     0.004358  d :     0.025192
      dxz     :     0.004833
      dyz     :     0.005800
      dx2y2   :     0.002527
      dxy     :     0.007674
      f0      :     0.000092  f :     0.001553
      f+1     :     0.000344
      f-1     :     0.000195
      f+2     :     0.000071
      f-2     :     0.000361
      f+3     :     0.000099
      f-3     :     0.000392
  1 H s       :     0.607287  s :     0.607287
      pz      :     0.017189  p :     0.045901
      px      :     0.013559
      py      :     0.015153
  2 H s       :     0.593319  s :     0.593319
      pz      :     0.011171  p :     0.041962
      px      :     0.017818
      py      :     0.012972
  3 O s       :     3.808284  s :     3.808284
      pz      :     1.724954  p :     4.954073
      px      :     1.792355
      py      :     1.436763
      dz2     :     0.003735  d :     0.022269
      dxz     :     0.005107
      dyz     :     0.004461
      dx2y2   :     0.002237
      dxy     :     0.006729
      f0      :     0.000081  f :     0.001389
      f+1     :     0.000170
      f-1     :     0.000317
      f+2     :     0.000061
      f-2     :     0.000346
      f+3     :     0.000332
      f-3     :     0.000082
  4 H s       :     0.597625  s :     0.597625
      pz      :     0.016900  p :     0.045405
      px      :     0.014732
      py      :     0.013772
  5 H s       :     0.532625  s :     0.532625
      pz      :     0.010038  p :     0.055642
      px      :     0.013140
      py      :     0.032465
  6 O s       :     3.810280  s :     3.810280
      pz      :     1.495361  p :     4.903459
      px      :     1.584747
      py      :     1.823351
      dz2     :     0.012002  d :     0.025132
      dxz     :     0.001277
      dyz     :     0.002862
      dx2y2   :     0.002000
      dxy     :     0.006991
      f0      :     0.000271  f :     0.001473
      f+1     :     0.000380
      f-1     :     0.000166
      f+2     :     0.000056
      f-2     :     0.000056
      f+3     :     0.000062
      f-3     :     0.000482
  7 H s       :     0.617101  s :     0.617101
      pz      :     0.018686  p :     0.044857
      px      :     0.012308
      py      :     0.013862
  8 H s       :     0.561671  s :     0.561671
      pz      :     0.009641  p :     0.049988
      px      :     0.024167
      py      :     0.016180
  9 O s       :     3.808054  s :     3.808054
      pz      :     1.548899  p :     4.881346
      px      :     1.842100
      py      :     1.490347
      dz2     :     0.012326  d :     0.026211
      dxz     :     0.002339
      dyz     :     0.003089
      dx2y2   :     0.003632
      dxy     :     0.004824
      f0      :     0.000165  f :     0.001411
      f+1     :     0.000116
      f-1     :     0.000471
      f+2     :     0.000067
      f-2     :     0.000041
      f+3     :     0.000448
      f-3     :     0.000104
 10 H s       :     0.595059  s :     0.595059
      pz      :     0.019068  p :     0.043947
      px      :     0.013421
      py      :     0.011458
 11 H s       :     0.569427  s :     0.569427
      pz      :     0.009500  p :     0.042028
      px      :     0.013564
      py      :     0.018964
 12 O s       :     3.805757  s :     3.805757
      pz      :     1.584100  p :     4.939854
      px      :     1.870569
      py      :     1.485185
      dz2     :     0.010785  d :     0.023994
      dxz     :     0.002436
      dyz     :     0.002764
      dx2y2   :     0.003003
      dxy     :     0.005006
      f0      :     0.000167  f :     0.001399
      f+1     :     0.000118
      f-1     :     0.000438
      f+2     :     0.000077
      f-2     :     0.000039
      f+3     :     0.000444
      f-3     :     0.000116
 13 H s       :     0.583310  s :     0.583310
      pz      :     0.010025  p :     0.054335
      px      :     0.016093
      py      :     0.028217
 14 H s       :     0.570245  s :     0.570245
      pz      :     0.024294  p :     0.049113
      px      :     0.013378
      py      :     0.011441
 15 O s       :     3.800759  s :     3.800759
      pz      :     1.565137  p :     4.951223
      px      :     1.528024
      py      :     1.858061
      dz2     :     0.010417  d :     0.022727
      dxz     :     0.002498
      dyz     :     0.001984
      dx2y2   :     0.003120
      dxy     :     0.004708
      f0      :     0.000194  f :     0.001379
      f+1     :     0.000444
      f-1     :     0.000114
      f+2     :     0.000070
      f-2     :     0.000038
      f+3     :     0.000100
      f-3     :     0.000419
 16 H s       :     0.581913  s :     0.581913
      pz      :     0.018938  p :     0.043897
      px      :     0.011763
      py      :     0.013196
 17 H s       :     0.552050  s :     0.552050
      pz      :     0.008655  p :     0.052447
      px      :     0.029378
      py      :     0.014413
 18 O s       :     3.797568  s :     3.797568
      pz      :     1.577631  p :     4.907829
      px      :     1.547047
      py      :     1.783151
      dz2     :     0.011977  d :     0.025044
      dxz     :     0.001197
      dyz     :     0.002345
      dx2y2   :     0.002469
      dxy     :     0.007056
      f0      :     0.000226  f :     0.001394
      f+1     :     0.000382
      f-1     :     0.000155
      f+2     :     0.000050
      f-2     :     0.000055
      f+3     :     0.000051
      f-3     :     0.000475
 19 H s       :     0.544234  s :     0.544234
      pz      :     0.025001  p :     0.047788
      px      :     0.011003
      py      :     0.011783
 20 H s       :     0.599088  s :     0.599088
      pz      :     0.010596  p :     0.043765
      px      :     0.018370
      py      :     0.014799


                     *******************************
                     * LOEWDIN POPULATION ANALYSIS *
                     *******************************

----------------------
LOEWDIN ATOMIC CHARGES
----------------------
   0 O :   -0.342629
   1 H :    0.157204
   2 H :    0.185285
   3 O :   -0.324128
   4 H :    0.157350
   5 H :    0.156728
   6 O :   -0.351029
   7 H :    0.157597
   8 H :    0.155844
   9 O :   -0.294035
  10 H :    0.169522
  11 H :    0.186524
  12 O :   -0.375813
  13 H :    0.140945
  14 H :    0.150144
  15 O :   -0.310704
  16 H :    0.174483
  17 H :    0.155948
  18 O :   -0.283849
  19 H :    0.165294
  20 H :    0.169317

-------------------------------
LOEWDIN REDUCED ORBITAL CHARGES
-------------------------------
  0 O s       :     3.474680  s :     3.474680
      pz      :     1.706641  p :     4.833612
      px      :     1.353294
      py      :     1.773677
      dz2     :     0.004931  d :     0.032209
      dxz     :     0.007288
      dyz     :     0.005888
      dx2y2   :     0.003921
      dxy     :     0.010181
      f0      :     0.000078  f :     0.002128
      f+1     :     0.000460
      f-1     :     0.000279
      f+2     :     0.000036
      f-2     :     0.000627
      f+3     :     0.000094
      f-3     :     0.000554
  1 H s       :     0.680006  s :     0.680006
      pz      :     0.066046  p :     0.162790
      px      :     0.043917
      py      :     0.052827
  2 H s       :     0.667044  s :     0.667044
      pz      :     0.033249  p :     0.147671
      px      :     0.070933
      py      :     0.043488
  3 O s       :     3.455803  s :     3.455803
      pz      :     1.683672  p :     4.837406
      px      :     1.750055
      py      :     1.403679
      dz2     :     0.004832  d :     0.028956
      dxz     :     0.005263
      dyz     :     0.006744
      dx2y2   :     0.003619
      dxy     :     0.008499
      f0      :     0.000088  f :     0.001963
      f+1     :     0.000260
      f-1     :     0.000431
      f+2     :     0.000032
      f-2     :     0.000610
      f+3     :     0.000460
      f-3     :     0.000083
  4 H s       :     0.677152  s :     0.677152
      pz      :     0.066245  p :     0.165498
      px      :     0.053125
      py      :     0.046128
  5 H s       :     0.646173  s :     0.646173
      pz      :     0.033410  p :     0.197099
      px      :     0.047514
      py      :     0.116175
  6 O s       :     3.466017  s :     3.466017
      pz      :     1.504761  p :     4.851707
      px      :     1.552830
      py      :     1.794116
      dz2     :     0.016248  d :     0.031204
      dxz     :     0.002220
      dyz     :     0.002336
      dx2y2   :     0.002007
      dxy     :     0.008393
      f0      :     0.000505  f :     0.002101
      f+1     :     0.000577
      f-1     :     0.000311
      f+2     :     0.000025
      f-2     :     0.000050
      f+3     :     0.000002
      f-3     :     0.000631
  7 H s       :     0.683865  s :     0.683865
      pz      :     0.079378  p :     0.158537
      px      :     0.036537
      py      :     0.042622
  8 H s       :     0.669894  s :     0.669894
      pz      :     0.029399  p :     0.174262
      px      :     0.086892
      py      :     0.057970
  9 O s       :     3.467087  s :     3.467087
      pz      :     1.545629  p :     4.792037
      px      :     1.782419
      py      :     1.463989
      dz2     :     0.015794  d :     0.032839
      dxz     :     0.001447
      dyz     :     0.004307
      dx2y2   :     0.005221
      dxy     :     0.006070
      f0      :     0.000366  f :     0.002072
      f+1     :     0.000208
      f-1     :     0.000751
      f+2     :     0.000042
      f-2     :     0.000045
      f+3     :     0.000590
      f-3     :     0.000070
 10 H s       :     0.671711  s :     0.671711
      pz      :     0.080194  p :     0.158767
      px      :     0.042894
      py      :     0.035679
 11 H s       :     0.659117  s :     0.659117
      pz      :     0.028776  p :     0.154359
      px      :     0.048977
      py      :     0.076606
 12 O s       :     3.464112  s :     3.464112
      pz      :     1.569807  p :     4.880657
      px      :     1.834972
      py      :     1.475878
      dz2     :     0.013481  d :     0.029086
      dxz     :     0.001546
      dyz     :     0.003806
      dx2y2   :     0.004015
      dxy     :     0.006238
      f0      :     0.000348  f :     0.001958
      f+1     :     0.000187
      f-1     :     0.000702
      f+2     :     0.000043
      f-2     :     0.000042
      f+3     :     0.000569
      f-3     :     0.000068
 13 H s       :     0.674758  s :     0.674758
      pz      :     0.030920  p :     0.184297
      px      :     0.052858
      py      :     0.100519
 14 H s       :     0.676869  s :     0.676869
      pz      :     0.092568  p :     0.172987
      px      :     0.043188
      py      :     0.037231
 15 O s       :     3.455344  s :     3.455344
      pz      :     1.535444  p :     4.823739
      px      :     1.492533
      py      :     1.795761
      dz2     :     0.014258  d :     0.029632
      dxz     :     0.003880
      dyz     :     0.001286
      dx2y2   :     0.004543
      dxy     :     0.005663
      f0      :     0.000381  f :     0.001989
      f+1     :     0.000726
      f-1     :     0.000197
      f+2     :     0.000039
      f-2     :     0.000046
      f+3     :     0.000065
      f-3     :     0.000535
 16 H s       :     0.665634  s :     0.665634
      pz      :     0.079874  p :     0.159882
      px      :     0.036931
      py      :     0.043077
 17 H s       :     0.656304  s :     0.656304
      pz      :     0.029033  p :     0.187748
      px      :     0.105985
      py      :     0.052730
 18 O s       :     3.452124  s :     3.452124
      pz      :     1.545352  p :     4.797790
      px      :     1.528850
      py      :     1.723589
      dz2     :     0.015351  d :     0.031832
      dxz     :     0.001712
      dyz     :     0.001774
      dx2y2   :     0.003727
      dxy     :     0.009269
      f0      :     0.000404  f :     0.002103
      f+1     :     0.000557
      f-1     :     0.000331
      f+2     :     0.000020
      f-2     :     0.000046
      f+3     :     0.000026
      f-3     :     0.000718
 19 H s       :     0.662775  s :     0.662775
      pz      :     0.094807  p :     0.171931
      px      :     0.035929
      py      :     0.041196
 20 H s       :     0.672379  s :     0.672379
      pz      :     0.031297  p :     0.158304
      px      :     0.072226
      py      :     0.054782


                      *****************************
                      * MAYER POPULATION ANALYSIS *
                      *****************************

  NA   - Mulliken gross atomic population
  ZA   - Total nuclear charge
  QA   - Mulliken gross atomic charge
  VA   - Mayer's total valence
  BVA  - Mayer's bonded valence
  FA   - Mayer's free valence

  ATOM       NA         ZA         QA         VA         BVA        FA
  0 O      8.7117     8.0000    -0.7117     1.7646     1.7646    -0.0000
  1 H      0.6532     1.0000     0.3468     0.8947     0.8947     0.0000
  2 H      0.6353     1.0000     0.3647     0.8810     0.8810    -0.0000
  3 O      8.7860     8.0000    -0.7860     1.6844     1.6844    -0.0000
  4 H      0.6430     1.0000     0.3570     0.8897     0.8897    -0.0000
  5 H      0.5883     1.0000     0.4117     0.8651     0.8651     0.0000
  6 O      8.7403     8.0000    -0.7403     1.7390     1.7390    -0.0000
  7 H      0.6620     1.0000     0.3380     0.9020     0.9020    -0.0000
  8 H      0.6117     1.0000     0.3883     0.8842     0.8842     0.0000
  9 O      8.7170     8.0000    -0.7170     1.7803     1.7803    -0.0000
 10 H      0.6390     1.0000     0.3610     0.8848     0.8848    -0.0000
 11 H      0.6115     1.0000     0.3885     0.8700     0.8700    -0.0000
 12 O      8.7710     8.0000    -0.7710     1.7020     1.7020     0.0000
 13 H      0.6376     1.0000     0.3624     0.9051     0.9051     0.0000
 14 H      0.6194     1.0000     0.3806     0.8852     0.8852     0.0000
 15 O      8.7761     8.0000    -0.7761     1.6924     1.6924    -0.0000
 16 H      0.6258     1.0000     0.3742     0.8768     0.8768    -0.0000
 17 H      0.6045     1.0000     0.3955     0.8846     0.8846    -0.0000
 18 O      8.7318     8.0000    -0.7318     1.7544     1.7544    -0.0000
 19 H      0.5920     1.0000     0.4080     0.8591     0.8591    -0.0000
 20 H      0.6429     1.0000     0.3571     0.8913     0.8913    -0.0000

  Mayer bond orders larger than 0.100000
B(  0-O ,  1-H ) :   0.8891 B(  0-O ,  2-H ) :   0.8727 B(  3-O ,  4-H ) :   0.8791 
B(  3-O ,  5-H ) :   0.7814 B(  6-O ,  7-H ) :   0.8941 B(  6-O ,  8-H ) :   0.8383 
B(  9-O , 10-H ) :   0.8760 B(  9-O , 11-H ) :   0.8507 B( 12-O , 13-H ) :   0.8523 
B( 12-O , 14-H ) :   0.8548 B( 15-O , 16-H ) :   0.8687 B( 15-O , 17-H ) :   0.7994 
B( 18-O , 19-H ) :   0.8283 B( 18-O , 20-H ) :   0.8777 

-------
TIMINGS
-------

Total SCF time: 0 days 0 hours 0 min 24 sec 

Total time                  ....      24.777 sec
Sum of individual times     ....      24.364 sec  ( 98.3%)

Fock matrix formation       ....      22.749 sec  ( 91.8%)
Diagonalization             ....       0.606 sec  (  2.4%)
Density matrix formation    ....       0.190 sec  (  0.8%)
Population analysis         ....       0.054 sec  (  0.2%)
Initial guess               ....       0.156 sec  (  0.6%)
Orbital Transformation      ....       0.000 sec  (  0.0%)
Orbital Orthonormalization  ....       0.000 sec  (  0.0%)
DIIS solution               ....       0.235 sec  (  1.0%)
SOSCF solution              ....       0.301 sec  (  1.2%)


           ************************************************************
           *        Program running with 6 parallel MPI-processes     *
           *              working on a common directory               *
           ************************************************************

------------------------------------------------------------------------------
                                ORCA  MP2 
------------------------------------------------------------------------------

Freezing NCore=14 chemical core electrons
MP2 will be done in the AO integral direct mode
The Q1-step will be done using symmetric double matrices
Dimension of the basis                    ...  301
Memory devoted for MP2                    ... 8000 MB   
Memory needed for all in one shot         ...  523 MB
Number of MOs that can be treated together...   75      
MP2 density construction                  ... relaxed
The MP2 gradient is requested => amplitudes will be stored on disk
Total number of MOs              ...   28
Number of MOs treated per batch  ...    5 
Number of batches necessary      ...    1 
OPERATORS   0/  0 PASS   0
-----------------------------------------------
 MP2 CORRELATION ENERGY   :     -1.809808450 Eh
-----------------------------------------------


---------------------
MP2 DENSITY FORMATION
---------------------

Completing the external part of the density      ... done
Storing the unrelaxed density                    ... done

Calculating G(D)                                 ... done
Completing the Lagrangian                        ... done
Solving the Z-vector equations                   ... 

------------------------------------------------------------------------------
                           ORCA CP-SCF CALCULATION
------------------------------------------------------------------------------

Input orbitals are from        ... 12h2o.su.etal.mol1,2,3,4,5,6,8-orca.engrad-mp2.def2tzvp.frozencore.gbw
Input Perturbation             ... 12h2o.su.etal.mol1,2,3,4,5,6,8-orca.engrad-mp2.def2tzvp.frozencore.pin.tmp
Wavefunction output            ... 12h2o.su.etal.mol1,2,3,4,5,6,8-orca.engrad-mp2.def2tzvp.frozencore.pout.tmp
Perturbation mode              ... Real perturbation (singlet)
Solver                         ... POPLE
Max. number of iterations      ... 128
Convergence tolerance          ... 1.000e-08
Integral handling              ... Direct
Number of perturbations        ... 1
Number of operators            ... 1
Orbital ranges used for CP-SCF:
 Operator 0:  Orbitals   0... 34  to  35...300
Variables per vector in CP-SCF ... 9310
Number of vectors sought       ... 1
     CP-SCF ITERATION   0: 
     CP-SCF ITERATION   1:      0.000919881603
     CP-SCF ITERATION   2:      0.000024250688
     CP-SCF ITERATION   3:      0.000001450044
     CP-SCF ITERATION   4:      0.000000114419
     CP-SCF ITERATION   5:      0.000000010226
     CP-SCF ITERATION   6:      0.000000000693
                                                 ... done
Finalizing the relaxed density                   ... done
Transforming P to the AO basis                   ... done
Storing the relaxed density                      ... done

------------------------------------
ENERGY WEIGHTED DENSITY FINALIZATION
------------------------------------

Gathering the parts of the W-matrix              ...                                                      done
Forming the Z-density                            ... done
Transforming Z to the AO basis                   ... done
Calculating G(Z)                                 ... done
Finalizing the W-matrix                          ...                                                      done
Transforming W to the AO basis and storing       ... done

                *********************************************
                * UNRELAXED MP2 DENSITY POPULATION ANALYSIS *
                *********************************************

------------------------------------------------------------------------------
                           ORCA POPULATION ANALYSIS
------------------------------------------------------------------------------
Input electron density              ... 12h2o.su.etal.mol1,2,3,4,5,6,8-orca.engrad-mp2.def2tzvp.frozencore.pmp2ur
BaseName (.gbw .S,...)              ... 12h2o.su.etal.mol1,2,3,4,5,6,8-orca.engrad-mp2.def2tzvp.frozencore

                    ********************************
                    * MULLIKEN POPULATION ANALYSIS *
                    ********************************

-----------------------
MULLIKEN ATOMIC CHARGES
-----------------------
   0 O :   -0.706876
   1 H :    0.344686
   2 H :    0.362053
   3 O :   -0.779467
   4 H :    0.354608
   5 H :    0.406896
   6 O :   -0.734803
   7 H :    0.335524
   8 H :    0.384847
   9 O :   -0.710475
  10 H :    0.358516
  11 H :    0.385642
  12 O :   -0.764678
  13 H :    0.358028
  14 H :    0.377491
  15 O :   -0.769240
  16 H :    0.371825
  17 H :    0.390905
  18 O :   -0.725012
  19 H :    0.405023
  20 H :    0.354506
Sum of atomic charges:   -0.0000000

--------------------------------
MULLIKEN REDUCED ORBITAL CHARGES
--------------------------------
  0 O s       :     3.807904  s :     3.807904
      pz      :     1.711103  p :     4.843282
      px      :     1.347758
      py      :     1.784421
      dz2     :     0.009718  d :     0.051599
      dxz     :     0.010082
      dyz     :     0.011088
      dx2y2   :     0.007845
      dxy     :     0.012866
      f0      :     0.000458  f :     0.004091
      f+1     :     0.000702
      f-1     :     0.000557
      f+2     :     0.000436
      f-2     :     0.000723
      f+3     :     0.000466
      f-3     :     0.000748
  1 H s       :     0.607779  s :     0.607779
      pz      :     0.017691  p :     0.047534
      px      :     0.013961
      py      :     0.015882
  2 H s       :     0.594421  s :     0.594421
      pz      :     0.012020  p :     0.043525
      px      :     0.017770
      py      :     0.013736
  3 O s       :     3.803326  s :     3.803326
      pz      :     1.713881  p :     4.921984
      px      :     1.780259
      py      :     1.427844
      dz2     :     0.009414  d :     0.050172
      dxz     :     0.010642
      dyz     :     0.009988
      dx2y2   :     0.007906
      dxy     :     0.012222
      f0      :     0.000455  f :     0.003986
      f+1     :     0.000538
      f-1     :     0.000685
      f+2     :     0.000433
      f-2     :     0.000714
      f+3     :     0.000701
      f-3     :     0.000460
  4 H s       :     0.598376  s :     0.598376
      pz      :     0.017377  p :     0.047017
      px      :     0.015428
      py      :     0.014212
  5 H s       :     0.535839  s :     0.535839
      pz      :     0.010845  p :     0.057265
      px      :     0.013842
      py      :     0.032577
  6 O s       :     3.805458  s :     3.805458
      pz      :     1.486476  p :     4.873441
      px      :     1.575274
      py      :     1.811691
      dz2     :     0.017014  d :     0.051870
      dxz     :     0.006682
      dyz     :     0.008316
      dx2y2   :     0.007554
      dxy     :     0.012304
      f0      :     0.000646  f :     0.004035
      f+1     :     0.000745
      f-1     :     0.000536
      f+2     :     0.000414
      f-2     :     0.000421
      f+3     :     0.000432
      f-3     :     0.000840
  7 H s       :     0.617919  s :     0.617919
      pz      :     0.018781  p :     0.046557
      px      :     0.013040
      py      :     0.014736
  8 H s       :     0.563624  s :     0.563624
      pz      :     0.010404  p :     0.051529
      px      :     0.024351
      py      :     0.016774
  9 O s       :     3.802925  s :     3.802925
      pz      :     1.539466  p :     4.850423
      px      :     1.829332
      py      :     1.481625
      dz2     :     0.017382  d :     0.053144
      dxz     :     0.007906
      dyz     :     0.008380
      dx2y2   :     0.009165
      dxy     :     0.010311
      f0      :     0.000547  f :     0.003983
      f+1     :     0.000489
      f-1     :     0.000834
      f+2     :     0.000430
      f-2     :     0.000405
      f+3     :     0.000804
      f-3     :     0.000474
 10 H s       :     0.595952  s :     0.595952
      pz      :     0.019205  p :     0.045532
      px      :     0.014262
      py      :     0.012065
 11 H s       :     0.570855  s :     0.570855
      pz      :     0.010290  p :     0.043503
      px      :     0.014248
      py      :     0.018964
 12 O s       :     3.800797  s :     3.800797
      pz      :     1.574255  p :     4.908671
      px      :     1.858466
      py      :     1.475951
      dz2     :     0.016035  d :     0.051232
      dxz     :     0.008025
      dyz     :     0.008200
      dx2y2   :     0.008530
      dxy     :     0.010442
      f0      :     0.000551  f :     0.003978
      f+1     :     0.000490
      f-1     :     0.000808
      f+2     :     0.000440
      f-2     :     0.000406
      f+3     :     0.000800
      f-3     :     0.000482
 13 H s       :     0.585860  s :     0.585860
      pz      :     0.010892  p :     0.056112
      px      :     0.016847
      py      :     0.028373
 14 H s       :     0.571815  s :     0.571815
      pz      :     0.024397  p :     0.050694
      px      :     0.014234
      py      :     0.012063
 15 O s       :     3.795500  s :     3.795500
      pz      :     1.555529  p :     4.919078
      px      :     1.518418
      py      :     1.845131
      dz2     :     0.015836  d :     0.050678
      dxz     :     0.007994
      dyz     :     0.007715
      dx2y2   :     0.008835
      dxy     :     0.010299
      f0      :     0.000579  f :     0.003983
      f+1     :     0.000813
      f-1     :     0.000490
      f+2     :     0.000437
      f-2     :     0.000407
      f+3     :     0.000474
      f-3     :     0.000782
 16 H s       :     0.582718  s :     0.582718
      pz      :     0.019070  p :     0.045457
      px      :     0.012361
      py      :     0.014026
 17 H s       :     0.555058  s :     0.555058
      pz      :     0.009425  p :     0.054037
      px      :     0.029524
      py      :     0.015089
 18 O s       :     3.792402  s :     3.792402
      pz      :     1.567873  p :     4.876224
      px      :     1.537650
      py      :     1.770701
      dz2     :     0.017199  d :     0.052394
      dxz     :     0.006653
      dyz     :     0.007971
      dx2y2   :     0.008111
      dxy     :     0.012460
      f0      :     0.000611  f :     0.003992
      f+1     :     0.000751
      f-1     :     0.000534
      f+2     :     0.000414
      f-2     :     0.000423
      f+3     :     0.000426
      f-3     :     0.000834
 19 H s       :     0.545750  s :     0.545750
      pz      :     0.025038  p :     0.049227
      px      :     0.011625
      py      :     0.012563
 20 H s       :     0.600143  s :     0.600143
      pz      :     0.011389  p :     0.045351
      px      :     0.018537
      py      :     0.015426


                     *******************************
                     * LOEWDIN POPULATION ANALYSIS *
                     *******************************

----------------------
LOEWDIN ATOMIC CHARGES
----------------------
   0 O :   -0.339860
   1 H :    0.156091
   2 H :    0.183620
   3 O :   -0.320031
   4 H :    0.155999
   5 H :    0.154040
   6 O :   -0.348122
   7 H :    0.156016
   8 H :    0.153655
   9 O :   -0.289396
  10 H :    0.168050
  11 H :    0.184782
  12 O :   -0.372824
  13 H :    0.138305
  14 H :    0.148039
  15 O :   -0.306384
  16 H :    0.173063
  17 H :    0.153265
  18 O :   -0.279395
  19 H :    0.163405
  20 H :    0.167682

-------------------------------
LOEWDIN REDUCED ORBITAL CHARGES
-------------------------------
  0 O s       :     3.470935  s :     3.470935
      pz      :     1.696229  p :     4.804420
      px      :     1.345405
      py      :     1.762786
      dz2     :     0.010370  d :     0.059648
      dxz     :     0.012750
      dyz     :     0.011458
      dx2y2   :     0.009351
      dxy     :     0.015719
      f0      :     0.000454  f :     0.004857
      f+1     :     0.000866
      f-1     :     0.000660
      f+2     :     0.000408
      f-2     :     0.001032
      f+3     :     0.000474
      f-3     :     0.000963
  1 H s       :     0.678003  s :     0.678003
      pz      :     0.067300  p :     0.165906
      px      :     0.044772
      py      :     0.053834
  2 H s       :     0.665629  s :     0.665629
      pz      :     0.034081  p :     0.150750
      px      :     0.072204
      py      :     0.044466
  3 O s       :     3.452161  s :     3.452161
      pz      :     1.672134  p :     4.805102
      px      :     1.737861
      py      :     1.395107
      dz2     :     0.010643  d :     0.058009
      dxz     :     0.011146
      dyz     :     0.012487
      dx2y2   :     0.009379
      dxy     :     0.014355
      f0      :     0.000473  f :     0.004759
      f+1     :     0.000648
      f-1     :     0.000848
      f+2     :     0.000411
      f-2     :     0.001022
      f+3     :     0.000882
      f-3     :     0.000475
  4 H s       :     0.675351  s :     0.675351
      pz      :     0.067487  p :     0.168650
      px      :     0.054109
      py      :     0.047055
  5 H s       :     0.646485  s :     0.646485
      pz      :     0.034247  p :     0.199474
      px      :     0.048362
      py      :     0.116865
  6 O s       :     3.462345  s :     3.462345
      pz      :     1.495490  p :     4.821860
      px      :     1.543427
      py      :     1.782943
      dz2     :     0.021999  d :     0.059059
      dxz     :     0.007561
      dyz     :     0.007731
      dx2y2   :     0.007535
      dxy     :     0.014233
      f0      :     0.000921  f :     0.004857
      f+1     :     0.000998
      f-1     :     0.000704
      f+2     :     0.000388
      f-2     :     0.000422
      f+3     :     0.000377
      f-3     :     0.001047
  7 H s       :     0.682113  s :     0.682113
      pz      :     0.081087  p :     0.161872
      px      :     0.037338
      py      :     0.043447
  8 H s       :     0.669293  s :     0.669293
      pz      :     0.030139  p :     0.177052
      px      :     0.088041
      py      :     0.058872
  9 O s       :     3.463177  s :     3.463177
      pz      :     1.535896  p :     4.760564
      px      :     1.769619
      py      :     1.455049
      dz2     :     0.021508  d :     0.060818
      dxz     :     0.006936
      dyz     :     0.009623
      dx2y2   :     0.010923
      dxy     :     0.011828
      f0      :     0.000779  f :     0.004838
      f+1     :     0.000596
      f-1     :     0.001183
      f+2     :     0.000412
      f-2     :     0.000416
      f+3     :     0.001001
      f-3     :     0.000450
 10 H s       :     0.670088  s :     0.670088
      pz      :     0.081760  p :     0.161862
      px      :     0.043669
      py      :     0.036433
 11 H s       :     0.658013  s :     0.658013
      pz      :     0.029546  p :     0.157205
      px      :     0.049840
      py      :     0.077819
 12 O s       :     3.460472  s :     3.460472
      pz      :     1.559932  p :     4.850112
      px      :     1.823432
      py      :     1.466748
      dz2     :     0.019364  d :     0.057506
      dxz     :     0.007065
      dyz     :     0.009282
      dx2y2   :     0.009756
      dxy     :     0.012038
      f0      :     0.000764  f :     0.004735
      f+1     :     0.000575
      f-1     :     0.001142
      f+2     :     0.000414
      f-2     :     0.000415
      f+3     :     0.000980
      f-3     :     0.000445
 13 H s       :     0.674401  s :     0.674401
      pz      :     0.031790  p :     0.187294
      px      :     0.053771
      py      :     0.101733
 14 H s       :     0.676014  s :     0.676014
      pz      :     0.093944  p :     0.175947
      px      :     0.043973
      py      :     0.038030
 15 O s       :     3.451600  s :     3.451600
      pz      :     1.525137  p :     4.791347
      px      :     1.483218
      py      :     1.782992
      dz2     :     0.020293  d :     0.058645
      dxz     :     0.009409
      dyz     :     0.006944
      dx2y2   :     0.010417
      dxy     :     0.011582
      f0      :     0.000798  f :     0.004792
      f+1     :     0.001165
      f-1     :     0.000589
      f+2     :     0.000414
      f-2     :     0.000421
      f+3     :     0.000450
      f-3     :     0.000955
 16 H s       :     0.664018  s :     0.664018
      pz      :     0.081342  p :     0.162919
      px      :     0.037721
      py      :     0.043856
 17 H s       :     0.656338  s :     0.656338
      pz      :     0.029834  p :     0.190397
      px      :     0.106989
      py      :     0.053574
 18 O s       :     3.448315  s :     3.448315
      pz      :     1.535628  p :     4.765950
      px      :     1.519256
      py      :     1.711065
      dz2     :     0.021245  d :     0.060232
      dxz     :     0.007122
      dyz     :     0.007330
      dx2y2   :     0.009354
      dxy     :     0.015181
      f0      :     0.000830  f :     0.004898
      f+1     :     0.000981
      f-1     :     0.000733
      f+2     :     0.000389
      f-2     :     0.000421
      f+3     :     0.000406
      f-3     :     0.001139
 19 H s       :     0.661967  s :     0.661967
      pz      :     0.096013  p :     0.174628
      px      :     0.036640
      py      :     0.041974
 20 H s       :     0.670871  s :     0.670871
      pz      :     0.032065  p :     0.161448
      px      :     0.073570
      py      :     0.055812


                      *****************************
                      * MAYER POPULATION ANALYSIS *
                      *****************************

  NA   - Mulliken gross atomic population
  ZA   - Total nuclear charge
  QA   - Mulliken gross atomic charge
  VA   - Mayer's total valence
  BVA  - Mayer's bonded valence
  FA   - Mayer's free valence

  ATOM       NA         ZA         QA         VA         BVA        FA
  0 O      8.7069     8.0000    -0.7069     2.0706     1.6832     0.3874
  1 H      0.6553     1.0000     0.3447     0.9004     0.8542     0.0462
  2 H      0.6379     1.0000     0.3621     0.8870     0.8394     0.0476
  3 O      8.7795     8.0000    -0.7795     2.0032     1.6069     0.3963
  4 H      0.6454     1.0000     0.3546     0.8955     0.8489     0.0465
  5 H      0.5931     1.0000     0.4069     0.8729     0.8272     0.0457
  6 O      8.7348     8.0000    -0.7348     2.0492     1.6593     0.3899
  7 H      0.6645     1.0000     0.3355     0.9083     0.8596     0.0487
  8 H      0.6152     1.0000     0.3848     0.8909     0.8461     0.0448
  9 O      8.7105     8.0000    -0.7105     2.0887     1.6992     0.3895
 10 H      0.6415     1.0000     0.3585     0.8907     0.8439     0.0468
 11 H      0.6144     1.0000     0.3856     0.8762     0.8306     0.0457
 12 O      8.7647     8.0000    -0.7647     2.0175     1.6232     0.3943
 13 H      0.6420     1.0000     0.3580     0.9130     0.8644     0.0486
 14 H      0.6225     1.0000     0.3775     0.8915     0.8463     0.0453
 15 O      8.7692     8.0000    -0.7692     2.0092     1.6152     0.3940
 16 H      0.6282     1.0000     0.3718     0.8823     0.8368     0.0455
 17 H      0.6091     1.0000     0.3909     0.8924     0.8461     0.0462
 18 O      8.7250     8.0000    -0.7250     2.0641     1.6755     0.3886
 19 H      0.5950     1.0000     0.4050     0.8649     0.8222     0.0427
 20 H      0.6455     1.0000     0.3545     0.8975     0.8501     0.0473

  Mayer bond orders larger than 0.100000
B(  0-O ,  1-H ) :   0.8490 B(  0-O ,  2-H ) :   0.8315 B(  3-O ,  4-H ) :   0.8391 
B(  3-O ,  5-H ) :   0.7459 B(  6-O ,  7-H ) :   0.8523 B(  6-O ,  8-H ) :   0.8015 
B(  9-O , 10-H ) :   0.8357 B(  9-O , 11-H ) :   0.8120 B( 12-O , 13-H ) :   0.8129 
B( 12-O , 14-H ) :   0.8168 B( 15-O , 16-H ) :   0.8294 B( 15-O , 17-H ) :   0.7635 
B( 18-O , 19-H ) :   0.7923 B( 18-O , 20-H ) :   0.8373 


                *******************************************
                * RELAXED MP2 DENSITY POPULATION ANALYSIS *
                *******************************************

------------------------------------------------------------------------------
                           ORCA POPULATION ANALYSIS
------------------------------------------------------------------------------
Input electron density              ... 12h2o.su.etal.mol1,2,3,4,5,6,8-orca.engrad-mp2.def2tzvp.frozencore.pmp2re
BaseName (.gbw .S,...)              ... 12h2o.su.etal.mol1,2,3,4,5,6,8-orca.engrad-mp2.def2tzvp.frozencore

                    ********************************
                    * MULLIKEN POPULATION ANALYSIS *
                    ********************************

-----------------------
MULLIKEN ATOMIC CHARGES
-----------------------
   0 O :   -0.693338
   1 H :    0.338393
   2 H :    0.354849
   3 O :   -0.749703
   4 H :    0.347310
   5 H :    0.383220
   6 O :   -0.715673
   7 H :    0.329089
   8 H :    0.366560
   9 O :   -0.684900
  10 H :    0.352501
  11 H :    0.375874
  12 O :   -0.739290
  13 H :    0.337197
  14 H :    0.362001
  15 O :   -0.738583
  16 H :    0.364525
  17 H :    0.367709
  18 O :   -0.696507
  19 H :    0.391491
  20 H :    0.347273
Sum of atomic charges:   -0.0000000

--------------------------------
MULLIKEN REDUCED ORBITAL CHARGES
--------------------------------
  0 O s       :     3.812501  s :     3.812501
      pz      :     1.704910  p :     4.827524
      px      :     1.344157
      py      :     1.778457
      dz2     :     0.009425  d :     0.049294
      dxz     :     0.009489
      dyz     :     0.010795
      dx2y2   :     0.007584
      dxy     :     0.012001
      f0      :     0.000456  f :     0.004018
      f+1     :     0.000683
      f-1     :     0.000549
      f+2     :     0.000436
      f-2     :     0.000702
      f+3     :     0.000464
      f-3     :     0.000727
  1 H s       :     0.613356  s :     0.613356
      pz      :     0.017809  p :     0.048250
      px      :     0.013912
      py      :     0.016530
  2 H s       :     0.601005  s :     0.601005
      pz      :     0.012912  p :     0.044146
      px      :     0.016794
      py      :     0.014440
  3 O s       :     3.805848  s :     3.805848
      pz      :     1.704100  p :     4.891536
      px      :     1.766358
      py      :     1.421078
      dz2     :     0.009289  d :     0.048401
      dxz     :     0.010341
      dyz     :     0.009414
      dx2y2   :     0.007786
      dxy     :     0.011571
      f0      :     0.000453  f :     0.003918
      f+1     :     0.000530
      f-1     :     0.000667
      f+2     :     0.000433
      f-2     :     0.000694
      f+3     :     0.000683
      f-3     :     0.000458
  4 H s       :     0.604891  s :     0.604891
      pz      :     0.017512  p :     0.047799
      px      :     0.016049
      py      :     0.014238
  5 H s       :     0.559385  s :     0.559385
      pz      :     0.011543  p :     0.057395
      px      :     0.014301
      py      :     0.031551
  6 O s       :     3.806246  s :     3.806246
      pz      :     1.479665  p :     4.855710
      px      :     1.572570
      py      :     1.803475
      dz2     :     0.015649  d :     0.049755
      dxz     :     0.006623
      dyz     :     0.008283
      dx2y2   :     0.007501
      dxy     :     0.011698
      f0      :     0.000628  f :     0.003962
      f+1     :     0.000724
      f-1     :     0.000527
      f+2     :     0.000415
      f-2     :     0.000419
      f+3     :     0.000432
      f-3     :     0.000817
  7 H s       :     0.623547  s :     0.623547
      pz      :     0.018005  p :     0.047364
      px      :     0.013659
      py      :     0.015701
  8 H s       :     0.581425  s :     0.581425
      pz      :     0.011024  p :     0.052014
      px      :     0.023809
      py      :     0.017182
  9 O s       :     3.805224  s :     3.805224
      pz      :     1.533910  p :     4.824795
      px      :     1.812706
      py      :     1.478179
      dz2     :     0.016133  d :     0.050973
      dxz     :     0.007972
      dyz     :     0.008122
      dx2y2   :     0.008864
      dxy     :     0.009883
      f0      :     0.000532  f :     0.003908
      f+1     :     0.000483
      f-1     :     0.000806
      f+2     :     0.000430
      f-2     :     0.000404
      f+3     :     0.000782
      f-3     :     0.000471
 10 H s       :     0.601309  s :     0.601309
      pz      :     0.018545  p :     0.046190
      px      :     0.015196
[...]
 11 H s       :     0.580119  s :     0.580119
      pz      :     0.010968  p :     0.044008
      px      :     0.014867
      py      :     0.018172
 12 O s       :     3.797784  s :     3.797784
      pz      :     1.568872  p :     4.888243
      px      :     1.850032
      py      :     1.469339
      dz2     :     0.015002  d :     0.049351
      dxz     :     0.008049
      dyz     :     0.007978
      dx2y2   :     0.008312
      dxy     :     0.010010
      f0      :     0.000539  f :     0.003911
      f+1     :     0.000484
      f-1     :     0.000781
      f+2     :     0.000440
      f-2     :     0.000405
      f+3     :     0.000781
      f-3     :     0.000481
 13 H s       :     0.606198  s :     0.606198
      pz      :     0.011659  p :     0.056606
      px      :     0.017512
      py      :     0.027435
 14 H s       :     0.586726  s :     0.586726
      pz      :     0.023717  p :     0.051273
      px      :     0.015120
      py      :     0.012436
 15 O s       :     3.796813  s :     3.796813
      pz      :     1.546658  p :     4.888995
      px      :     1.513856
      py      :     1.828481
      dz2     :     0.014746  d :     0.048861
      dxz     :     0.007726
      dyz     :     0.007754
      dx2y2   :     0.008688
      dxy     :     0.009946
      f0      :     0.000567  f :     0.003914
      f+1     :     0.000785
      f-1     :     0.000485
      f+2     :     0.000436
      f-2     :     0.000405
      f+3     :     0.000472
      f-3     :     0.000763
 16 H s       :     0.589385  s :     0.589385
      pz      :     0.018328  p :     0.046091
      px      :     0.012781
      py      :     0.014981
 17 H s       :     0.577900  s :     0.577900
      pz      :     0.010066  p :     0.054390
      px      :     0.028732
      py      :     0.015592
 18 O s       :     3.791766  s :     3.791766
      pz      :     1.565168  p :     4.850394
      px      :     1.531136
      py      :     1.754090
      dz2     :     0.016018  d :     0.050428
      dxz     :     0.006628
      dyz     :     0.007965
      dx2y2   :     0.008040
      dxy     :     0.011778
      f0      :     0.000594  f :     0.003918
      f+1     :     0.000730
      f-1     :     0.000525
      f+2     :     0.000414
      f-2     :     0.000421
      f+3     :     0.000425
      f-3     :     0.000809
 19 H s       :     0.558943  s :     0.558943
      pz      :     0.024227  p :     0.049565
      px      :     0.012044
      py      :     0.013294
 20 H s       :     0.606694  s :     0.606694
      pz      :     0.012114  p :     0.046033
      px      :     0.017964
      py      :     0.015955


                     *******************************
                     * LOEWDIN POPULATION ANALYSIS *
                     *******************************

----------------------
LOEWDIN ATOMIC CHARGES
----------------------
   0 O :   -0.342976
   1 H :    0.157890
   2 H :    0.184827
   3 O :   -0.313145
   4 H :    0.157730
   5 H :    0.146399
   6 O :   -0.348973
   7 H :    0.157345
   8 H :    0.148421
   9 O :   -0.283134
  10 H :    0.169594
  11 H :    0.184713
  12 O :   -0.372205
  13 H :    0.132035
  14 H :    0.143842
  15 O :   -0.299145
  16 H :    0.174543
  17 H :    0.145785
  18 O :   -0.272278
  19 H :    0.159910
  20 H :    0.168821

-------------------------------
LOEWDIN REDUCED ORBITAL CHARGES
-------------------------------
  0 O s       :     3.472908  s :     3.472908
      pz      :     1.695426  p :     4.806916
      px      :     1.350342
      py      :     1.761148
      dz2     :     0.010188  d :     0.058275
      dxz     :     0.012349
      dyz     :     0.011391
      dx2y2   :     0.009112
      dxy     :     0.015235
      f0      :     0.000457  f :     0.004877
      f+1     :     0.000873
      f-1     :     0.000660
      f+2     :     0.000408
      f-2     :     0.001032
      f+3     :     0.000477
      f-3     :     0.000970
  1 H s       :     0.676178  s :     0.676178
      pz      :     0.067435  p :     0.165932
      px      :     0.044017
      py      :     0.054481
  2 H s       :     0.664418  s :     0.664418
      pz      :     0.034839  p :     0.150756
      px      :     0.070723
      py      :     0.045193
  3 O s       :     3.453837  s :     3.453837
      pz      :     1.667252  p :     4.796899
      px      :     1.730745
      py      :     1.398902
      dz2     :     0.010742  d :     0.057610
      dxz     :     0.011122
      dyz     :     0.012159
      dx2y2   :     0.009422
      dxy     :     0.014165
      f0      :     0.000477  f :     0.004798
      f+1     :     0.000649
      f-1     :     0.000859
      f+2     :     0.000412
      f-2     :     0.001024
      f+3     :     0.000898
      f-3     :     0.000480
  4 H s       :     0.673618  s :     0.673618
      pz      :     0.067504  p :     0.168652
      px      :     0.054513
      py      :     0.046636
  5 H s       :     0.653960  s :     0.653960
      pz      :     0.034838  p :     0.199641
      px      :     0.048760
      py      :     0.116043
  6 O s       :     3.463776  s :     3.463776
      pz      :     1.497317  p :     4.822395
      px      :     1.545183
      py      :     1.779896
      dz2     :     0.021244  d :     0.057925
      dxz     :     0.007416
      dyz     :     0.007751
      dx2y2   :     0.007501
      dxy     :     0.014013
      f0      :     0.000921  f :     0.004877
      f+1     :     0.001007
      f-1     :     0.000702
      f+2     :     0.000390
      f-2     :     0.000422
      f+3     :     0.000377
      f-3     :     0.001058
  7 H s       :     0.680390  s :     0.680390
      pz      :     0.080368  p :     0.162265
      px      :     0.037603
      py      :     0.044294
  8 H s       :     0.674125  s :     0.674125
      pz      :     0.030479  p :     0.177454
      px      :     0.087623
      py      :     0.059351
  9 O s       :     3.464656  s :     3.464656
      pz      :     1.537241  p :     4.753950
      px      :     1.758394
      py      :     1.458315
      dz2     :     0.020837  d :     0.059677
      dxz     :     0.007017
      dyz     :     0.009377
      dx2y2   :     0.010795
      dxy     :     0.011651
      f0      :     0.000775  f :     0.004851
      f+1     :     0.000597
      f-1     :     0.001190
      f+2     :     0.000414
      f-2     :     0.000415
      f+3     :     0.001008
      f-3     :     0.000452
 10 H s       :     0.668553  s :     0.668553
      pz      :     0.081141  p :     0.161852
      px      :     0.044363
      py      :     0.036348
 11 H s       :     0.658391  s :     0.658391
      pz      :     0.029975  p :     0.156895
      px      :     0.050277
      py      :     0.076643
 12 O s       :     3.461274  s :     3.461274
      pz      :     1.560814  p :     4.849432
      px      :     1.819609
      py      :     1.469010
      dz2     :     0.018942  d :     0.056731
      dxz     :     0.007118
      dyz     :     0.009095
      dx2y2   :     0.009676
      dxy     :     0.011900
      f0      :     0.000765  f :     0.004767
      f+1     :     0.000575
      f-1     :     0.001155
      f+2     :     0.000416
      f-2     :     0.000414
      f+3     :     0.000994
      f-3     :     0.000448
 13 H s       :     0.679715  s :     0.679715
      pz      :     0.032399  p :     0.188250
      px      :     0.054537
      py      :     0.101314
 14 H s       :     0.679731  s :     0.679731
      pz      :     0.093378  p :     0.176427
      px      :     0.044805
      py      :     0.038244
 15 O s       :     3.452849  s :     3.452849
      pz      :     1.524204  p :     4.783292
      px      :     1.485875
      py      :     1.773213
      dz2     :     0.019906  d :     0.058176
      dxz     :     0.009206
      dyz     :     0.007014
      dx2y2   :     0.010486
      dxy     :     0.011564
      f0      :     0.000800  f :     0.004828
      f+1     :     0.001177
      f-1     :     0.000592
      f+2     :     0.000416
      f-2     :     0.000420
      f+3     :     0.000454
      f-3     :     0.000970
 16 H s       :     0.662604  s :     0.662604
      pz      :     0.080435  p :     0.162853
      px      :     0.037796
      py      :     0.044622
 17 H s       :     0.663083  s :     0.663083
      pz      :     0.030149  p :     0.191133
      px      :     0.106796
      py      :     0.054188
 18 O s       :     3.449056  s :     3.449056
      pz      :     1.537174  p :     4.758937
      px      :     1.520819
      py      :     1.700943
      dz2     :     0.020716  d :     0.059369
      dxz     :     0.007022
      dyz     :     0.007379
      dx2y2   :     0.009390
      dxy     :     0.014862
      f0      :     0.000833  f :     0.004917
      f+1     :     0.000987
      f-1     :     0.000735
      f+2     :     0.000390
      f-2     :     0.000421
      f+3     :     0.000407
      f-3     :     0.001145
 19 H s       :     0.665438  s :     0.665438
      pz      :     0.095140  p :     0.174652
      px      :     0.036952
      py      :     0.042560
 20 H s       :     0.669628  s :     0.669628
      pz      :     0.032527  p :     0.161551
      px      :     0.072866
      py      :     0.056158


                      *****************************
                      * MAYER POPULATION ANALYSIS *
                      *****************************

  NA   - Mulliken gross atomic population
  ZA   - Total nuclear charge
  QA   - Mulliken gross atomic charge
  VA   - Mayer's total valence
  BVA  - Mayer's bonded valence
  FA   - Mayer's free valence

  ATOM       NA         ZA         QA         VA         BVA        FA
  0 O      8.6933     8.0000    -0.6933     2.0761     1.6936     0.3826
  1 H      0.6616     1.0000     0.3384     0.9049     0.8585     0.0463
  2 H      0.6452     1.0000     0.3548     0.8934     0.8457     0.0477
  3 O      8.7497     8.0000    -0.7497     2.0440     1.6541     0.3899
  4 H      0.6527     1.0000     0.3473     0.9008     0.8542     0.0466
  5 H      0.6168     1.0000     0.3832     0.9010     0.8563     0.0447
  6 O      8.7157     8.0000    -0.7157     2.0621     1.6777     0.3844
  7 H      0.6709     1.0000     0.3291     0.9136     0.8649     0.0487
  8 H      0.6334     1.0000     0.3666     0.9172     0.8730     0.0442
  9 O      8.6849     8.0000    -0.6849     2.1214     1.7380     0.3834
 10 H      0.6475     1.0000     0.3525     0.8961     0.8493     0.0467
 11 H      0.6241     1.0000     0.3759     0.8884     0.8432     0.0452
 12 O      8.7393     8.0000    -0.7393     2.0350     1.6461     0.3889
 13 H      0.6628     1.0000     0.3372     0.9418     0.8941     0.0477
 14 H      0.6380     1.0000     0.3620     0.9124     0.8676     0.0449
 15 O      8.7386     8.0000    -0.7386     2.0511     1.6634     0.3877
 16 H      0.6355     1.0000     0.3645     0.8874     0.8419     0.0456
 17 H      0.6323     1.0000     0.3677     0.9226     0.8775     0.0450
 18 O      8.6965     8.0000    -0.6965     2.1020     1.7194     0.3826
 19 H      0.6085     1.0000     0.3915     0.8835     0.8411     0.0425
 20 H      0.6527     1.0000     0.3473     0.9052     0.8581     0.0471

  Mayer bond orders larger than 0.100000
B(  0-O ,  1-H ) :   0.8532 B(  0-O ,  2-H ) :   0.8358 B(  3-O ,  4-H ) :   0.8418 
B(  3-O ,  5-H ) :   0.7441 B(  6-O ,  7-H ) :   0.8554 B(  6-O ,  8-H ) :   0.8053 
B(  9-O , 10-H ) :   0.8387 B(  9-O , 11-H ) :   0.8155 B(  9-O , 17-H ) :   0.1003 
B( 12-O , 13-H ) :   0.8136 B( 12-O , 14-H ) :   0.8218 B( 15-O , 16-H ) :   0.8325 
B( 15-O , 17-H ) :   0.7611 B( 18-O , 19-H ) :   0.7965 B( 18-O , 20-H ) :   0.8398 



----------------------------------
MP2 DERIVATIVE INTEGRAL GENERATION
----------------------------------


Input Wavefunction Amplitudes       ... 12h2o.su.etal.mol1,2,3,4,5,6,8-orca.engrad-mp2.def2tzvp.frozencore.mp2tsaa.tmp
Input Correlated Electron Density   ... 12h2o.su.etal.mol1,2,3,4,5,6,8-orca.engrad-mp2.def2tzvp.frozencore.pmp2re
Input Energy Weighted Density       ... 12h2o.su.etal.mol1,2,3,4,5,6,8-orca.engrad-mp2.def2tzvp.frozencore.wmp2.tmp
Input SCF Electron Density          ... 12h2o.su.etal.mol1,2,3,4,5,6,8-orca.engrad-mp2.def2tzvp.frozencore.scfp

One-Electron Terms    ...
                        ... One-Electron Terms done
Prescreening matrices              ... done

Batch handling in the gradient evaluation:
Memory available                      ... 8000.0 MB
Memory per occupied orbital in Q2     ...   19.4 MB
Memory per occupied orbital in Q3     ...    0.1 MB
Total memory requirement per |i>      ...   19.5 MB
Max. Number of orbitals possible      ...    410
Number of orbitals treated per batch  ...     28
Number of batches to be done          ...      1
Batch   0: i=    7 ...    34

---------------------------------------
MP2 TOTAL ENERGY:     -534.250245466 Eh
---------------------------------------

The final MP2 gradient
  0:  -0.02655707   0.00643291   0.00021993
  1:  -0.00252389   0.00178426  -0.00079218
  2:   0.02880097  -0.00847388   0.00313904
  3:  -0.00109399  -0.00470492   0.00248332
  4:  -0.00080818  -0.00000569   0.00125928
  5:   0.00173304   0.00909731   0.00116845
  6:   0.00026802  -0.00243288  -0.00988056
  7:  -0.00263126   0.00181246   0.00965726
  8:   0.00082566   0.00045594  -0.00216208
  9:   0.00211176   0.01344907   0.01288757
 10:   0.00335981   0.00136826  -0.00707482
 11:  -0.00428324  -0.01336308  -0.00428989
 12:  -0.00354498  -0.00657728  -0.00008567
 13:   0.00452242   0.01414610   0.00104411
 14:   0.00282320  -0.00327298  -0.00384189
 15:  -0.00166882  -0.00745542  -0.00825256
 16:  -0.00047356  -0.00015295   0.00885794
 17:   0.00035190   0.00057631  -0.00349263
 18:   0.00875615  -0.00729508  -0.00091132
 19:  -0.00184303  -0.00014465  -0.00192201
 20:  -0.00812490   0.00475619   0.00198871

-----------------------------------
NORM OF THE MP2 GRADIENT:  0.058213
-----------------------------------

-------------------------   --------------------
FINAL SINGLE POINT ENERGY      -534.250245465569
-------------------------   --------------------


                            ***************************************
                            *     ORCA property calculations      *
                            ***************************************

                                    ---------------------
                                    Active property flags
                                    ---------------------
   (+) Dipole Moment


------------------------------------------------------------------------------
                       ORCA ELECTRIC PROPERTIES CALCULATION
------------------------------------------------------------------------------

Dipole Moment Calculation                       ... on
Quadrupole Moment Calculation                   ... off
Polarizability Calculation                      ... off
GBWName                                         ... 12h2o.su.etal.mol1,2,3,4,5,6,8-orca.engrad-mp2.def2tzvp.frozencore.gbw
Electron density file                           ... 12h2o.su.etal.mol1,2,3,4,5,6,8-orca.engrad-mp2.def2tzvp.frozencore.scfp
The origin for moment calculation is the CENTER OF MASS  = ( 0.243683, -0.493145 -1.538679)

-------------
DIPOLE MOMENT
-------------
                                X             Y             Z
Electronic contribution:      0.01583       0.42729      -0.05484
Nuclear contribution   :      0.53373       0.08378       0.59793
                        -----------------------------------------
Total Dipole Moment    :      0.54956       0.51107       0.54310
                        -----------------------------------------
Magnitude (a.u.)       :      0.92637
Magnitude (Debye)      :      2.35465



--------------------
Rotational spectrum 
--------------------
 
Rotational constants in cm-1:     0.040025     0.022889     0.021291 
Rotational constants in MHz :  1199.909373   686.201005   638.293657 

 Dipole components along the rotational axes: 
x,y,z [a.u.] :     0.283111    -0.868119     0.156143 
x,y,z [Debye]:     0.719611    -2.206582     0.396884 

 

                         *** MP2 UNRELAXED DENSITY ***

------------------------------------------------------------------------------
                       ORCA ELECTRIC PROPERTIES CALCULATION
------------------------------------------------------------------------------

Dipole Moment Calculation                       ... on
Quadrupole Moment Calculation                   ... off
Polarizability Calculation                      ... off
GBWName                                         ... 12h2o.su.etal.mol1,2,3,4,5,6,8-orca.engrad-mp2.def2tzvp.frozencore.gbw
Electron density file                           ... 12h2o.su.etal.mol1,2,3,4,5,6,8-orca.engrad-mp2.def2tzvp.frozencore.pmp2ur
The origin for moment calculation is the CENTER OF MASS  = ( 0.243683, -0.493145 -1.538679)

-------------
DIPOLE MOMENT
-------------
                                X             Y             Z
Electronic contribution:      0.01010       0.43076      -0.06021
Nuclear contribution   :      0.53373       0.08378       0.59793
                        -----------------------------------------
Total Dipole Moment    :      0.54383       0.51454       0.53773
                        -----------------------------------------
Magnitude (a.u.)       :      0.92177
Magnitude (Debye)      :      2.34294



--------------------
Rotational spectrum 
--------------------
 
Rotational constants in cm-1:     0.040025     0.022889     0.021291 
Rotational constants in MHz :  1199.909373   686.201005   638.293657 

 Dipole components along the rotational axes: 
x,y,z [a.u.] :     0.280515    -0.865411     0.148420 
x,y,z [Debye]:     0.713012    -2.199699     0.377253 

 

                           *** MP2 RELAXED DENSITY ***

------------------------------------------------------------------------------
                       ORCA ELECTRIC PROPERTIES CALCULATION
------------------------------------------------------------------------------

Dipole Moment Calculation                       ... on
Quadrupole Moment Calculation                   ... off
Polarizability Calculation                      ... off
GBWName                                         ... 12h2o.su.etal.mol1,2,3,4,5,6,8-orca.engrad-mp2.def2tzvp.frozencore.gbw
Electron density file                           ... 12h2o.su.etal.mol1,2,3,4,5,6,8-orca.engrad-mp2.def2tzvp.frozencore.pmp2re
The origin for moment calculation is the CENTER OF MASS  = ( 0.243683, -0.493145 -1.538679)

-------------
DIPOLE MOMENT
-------------
                                X             Y             Z
Electronic contribution:     -0.00442       0.45170      -0.06562
Nuclear contribution   :      0.53373       0.08378       0.59793
                        -----------------------------------------
Total Dipole Moment    :      0.52931       0.53548       0.53231
                        -----------------------------------------
Magnitude (a.u.)       :      0.92210
Magnitude (Debye)      :      2.34379



--------------------
Rotational spectrum 
--------------------
 
Rotational constants in cm-1:     0.040025     0.022889     0.021291 
Rotational constants in MHz :  1199.909373   686.201005   638.293657 

 Dipole components along the rotational axes: 
x,y,z [a.u.] :     0.281555    -0.869446     0.122702 
x,y,z [Debye]:     0.715656    -2.209957     0.311884 

 

Timings for individual modules:

Sum of individual times         ...      137.287 sec (=   2.288 min)
GTO integral calculation        ...        0.918 sec (=   0.015 min)   0.7 %
SCF iterations                  ...       25.615 sec (=   0.427 min)  18.7 %
MP2 module                      ...      110.754 sec (=   1.846 min)  80.7 %
                             ****ORCA TERMINATED NORMALLY****
TOTAL RUN TIME: 0 days 0 hours 2 minutes 18 seconds 379 msec
