4
Energy:    -69.84036197
O    0.17984393  -0.06792552   0.21985841
H    0.35679910   0.48154531   0.98340313
H    0.86400535  -0.73700513   0.24193709
K   -1.69072562   0.40662222  -1.76562632
