4
Energy:    -69.76223696
O    0.17320116   0.01938001   0.23318710
H    0.19432265   0.73786695   0.86529646
H    0.26107878  -0.77126693   0.76552796
K   -0.81575694   0.00387730  -2.24626229
