4
Energy:    -68.17329589
O   -0.30981092   0.02356971  -0.01359203
H   -0.75652445   0.56891653  -0.66110706
H   -0.89661673   0.01956595   0.74263198
K    2.40506597  -0.70492034  -0.06825692
