4
Energy:    -69.41589957
O    0.06618865  -0.26764159   0.10188637
H   -0.14645960  -0.85740642   0.82520511
H    0.61031000  -0.79339604  -0.48441225
K   -0.63866025   2.32888556  -0.56210583
