4
Energy:    -67.89794125
O    0.25420463   0.07433607   0.17383956
H    0.83833934  -0.56040955   0.58870881
H   -0.02381658   0.64739485   0.88836016
K   -1.36211824  -0.22776078  -1.96932361
