4
Energy:    -68.26782379
O   -0.24073746  -0.09214154   0.16161669
H   -0.94373360  -0.74084239   0.19648048
H   -0.19544146   0.26064812   1.05027837
K    1.70484353   0.70235756  -1.68821463
