4
Energy:    -66.98614790
O    0.02363937  -0.13124907  -0.28383819
H    0.85240560  -0.56689553  -0.48281193
H   -0.52704446  -0.30264653  -1.04777672
K   -0.40823779   1.20974913   2.22152941
