
                                 *****************
                                 * O   R   C   A *
                                 *****************

           --- An Ab Initio, DFT and Semiempirical electronic structure package ---

                  #######################################################
                  #                        -***-                        #
                  #          Department of theory and spectroscopy      #
                  #               Directorship: Frank Neese             #
                  #        Max Planck Institute fuer Kohlenforschung    #
                  #                Kaiser Wilhelm Platz 1               #
                  #                 D-45470 Muelheim/Ruhr               #
                  #                      Germany                        #
                  #                                                     #
                  #                  All rights reserved                #
                  #                        -***-                        #
                  #######################################################


                         Program Version 4.2.0 -  RELEASE  -


 With contributions from (in alphabetic order):
   Daniel Aravena         : Magnetic Suceptibility
   Michael Atanasov       : Ab Initio Ligand Field Theory (pilot matlab implementation)
   Alexander A. Auer      : GIAO ZORA, VPT2
   Ute Becker             : Parallelization
   Giovanni Bistoni       : ED, misc. LED, open-shell LED, HFLED
   Martin Brehm           : Molecular dynamics
   Dmytro Bykov           : SCF Hessian
   Vijay G. Chilkuri      : MRCI spin determinant printing, contributions to CSF-ICE
   Dipayan Datta          : RHF DLPNO-CCSD density
   Achintya Kumar Dutta   : EOM-CC, STEOM-CC
   Dmitry Ganyushin       : Spin-Orbit,Spin-Spin,Magnetic field MRCI
   Miquel Garcia          : C-PCM Hessian, Gaussian charge scheme
   Yang Guo               : DLPNO-NEVPT2, CIM, IAO-localization
   Andreas Hansen         : Spin unrestricted coupled pair/coupled cluster methods
   Benjamin Helmich-Paris : CASSCF linear response (MC-RPA)
   Lee Huntington         : MR-EOM, pCC
   Robert Izsak           : Overlap fitted RIJCOSX, COSX-SCS-MP3, EOM
   Christian Kollmar      : KDIIS, OOCD, Brueckner-CCSD(T), CCSD density
   Simone Kossmann        : Meta GGA functionals, TD-DFT gradient, OOMP2, MP2 Hessian
   Martin Krupicka        : AUTO-CI
   Lucas Lang             : DCDCAS
   Dagmar Lenk            : GEPOL surface, SMD
   Dimitrios Liakos       : Extrapolation schemes; Compound Job, initial MDCI parallelization
   Dimitrios Manganas     : Further ROCIS development; embedding schemes
   Dimitrios Pantazis     : SARC Basis sets
   Taras Petrenko         : DFT Hessian,TD-DFT gradient, ASA, ECA, R-Raman, ABS, FL, XAS/XES, NRVS
   Peter Pinski           : DLPNO-MP2, DLPNO-MP2 Gradient
   Christoph Reimann      : Effective Core Potentials
   Marius Retegan         : Local ZFS, SOC
   Christoph Riplinger    : Optimizer, TS searches, QM/MM, DLPNO-CCSD(T), (RO)-DLPNO pert. Triples
   Tobias Risthaus        : Range-separated hybrids, TD-DFT gradient, RPA, STAB
   Michael Roemelt        : Original ROCIS implementation
   Masaaki Saitow         : Open-shell DLPNO-CCSD energy and density
   Barbara Sandhoefer     : DKH picture change effects
   Avijit Sen             : IP-ROCIS
   Kantharuban Sivalingam : CASSCF convergence, NEVPT2, FIC-MRCI
   Bernardo de Souza      : ESD, SOC TD-DFT
   Georgi Stoychev        : AutoAux, RI-MP2 NMR
   Willem Van den Heuvel  : Paramagnetic NMR
   Boris Wezisla          : Elementary symmetry handling
   Frank Wennmohs         : Technical directorship


 We gratefully acknowledge several colleagues who have allowed us to
 interface, adapt or use parts of their codes:
   Stefan Grimme, W. Hujo, H. Kruse,             : VdW corrections, initial TS optimization,
                  C. Bannwarth                     DFT functionals, gCP, sTDA/sTD-DF
   Ed Valeev, F. Pavosevic, A. Kumar             : LibInt (2-el integral package), F12 methods
   Garnet Chan, S. Sharma, J. Yang, R. Olivares  : DMRG
   Ulf Ekstrom                                   : XCFun DFT Library
   Mihaly Kallay                                 : mrcc  (arbitrary order and MRCC methods)
   Andreas Klamt, Michael Diedenhofen            : otool_cosmo (COSMO solvation model)
   Jiri Pittner, Ondrej Demel                    : Mk-CCSD
   Frank Weinhold                                : gennbo (NPA and NBO analysis)
   Christopher J. Cramer and Donald G. Truhlar   : smd solvation model
   Lars Goerigk                                  : TD-DFT with DH, B97 family of functionals
   V. Asgeirsson, H. Jonsson                     : NEB implementation
   FAccTs GmbH                                   : IRC, NEB, NEB-TS, Multilevel, MM, QM/MM, CI optimization
   S Lehtola, MJT Oliveira, MAL Marques          : LibXC Library


 Your calculation uses the libint2 library for the computation of 2-el integrals
 For citations please refer to: http://libint.valeyev.net

 Your ORCA version has been built with support for libXC version: 4.2.3
 For citations please refer to: https://tddft.org/programs/libxc/

 This ORCA versions uses:
   CBLAS   interface :  Fast vector & matrix operations
   LAPACKE interface :  Fast linear algebra routines
   SCALAPACK package :  Parallel linear algebra routines


----- Orbital basis set information -----
Your calculation utilizes the basis: def2-TZVP
   F. Weigend and R. Ahlrichs, Phys. Chem. Chem. Phys. 7, 3297 (2005).

================================================================================
                                        WARNINGS
                       Please study these warnings very carefully!
================================================================================


WARNING: The frozen-core approximation for MP2-gradient calculations is turned on by default.

INFO   : the flag for use of LIBINT has been found!

================================================================================
                                       INPUT FILE
================================================================================
NAME = 12h2o.su.etal.mol0,1,2,3,8,11-orca.engrad-mp2.def2tzvp.frozencore.inp
|  1> # 12h2o.su.etal.mol0,1,2,3,8,11
|  2> ! MP2 def2-TZVP EnGrad TightSCF
|  3> 
|  4> %pal
|  5>     nprocs 6
|  6> end
|  7> 
|  8> %maxcore 8000
|  9> 
| 10> %scf
| 11>     ConvForced true
| 12> end
| 13> 
| 14> *xyz 0 1
| 15> O   1.794470000   0.923410000   2.768350000
| 16> H   2.338250000   1.359750000   3.430940000
| 17> H   0.879480000   1.303000000   2.865760000
| 18> O  -1.794470000  -0.923410000   2.768350000
| 19> H  -2.338250000  -1.359750000   3.430940000
| 20> H  -0.879480000  -1.303000000   2.865760000
| 21> O   0.923410000  -1.794470000  -2.768350000
| 22> H   1.359750000  -2.338250000  -3.430940000
| 23> H   1.303000000  -0.879480000  -2.865760000
| 24> O  -1.752130000  -0.741530000  -2.896280000
| 25> H  -2.036450000  -0.920500000  -1.984040000
| 26> H  -0.921210000  -1.242140000  -2.984230000
| 27> O   1.752130000   0.741530000  -2.896280000
| 28> H   2.036450000   0.920500000  -1.984040000
| 29> H   0.921210000   1.242140000  -2.984230000
| 30> O  -0.741530000   1.752130000   2.896280000
| 31> H  -0.920500000   2.036450000   1.984040000
| 32> H  -1.242140000   0.921210000   2.984230000
| 33> *
| 34> 
| 35>                          ****END OF INPUT****
================================================================================

                     *******************************
                     * Energy+Gradient Calculation *
                     *******************************

---------------------------------
CARTESIAN COORDINATES (ANGSTROEM)
---------------------------------
  O      1.794470    0.923410    2.768350
  H      2.338250    1.359750    3.430940
  H      0.879480    1.303000    2.865760
  O     -1.794470   -0.923410    2.768350
  H     -2.338250   -1.359750    3.430940
  H     -0.879480   -1.303000    2.865760
  O      0.923410   -1.794470   -2.768350
  H      1.359750   -2.338250   -3.430940
  H      1.303000   -0.879480   -2.865760
  O     -1.752130   -0.741530   -2.896280
  H     -2.036450   -0.920500   -1.984040
  H     -0.921210   -1.242140   -2.984230
  O      1.752130    0.741530   -2.896280
  H      2.036450    0.920500   -1.984040
  H      0.921210    1.242140   -2.984230
  O     -0.741530    1.752130    2.896280
  H     -0.920500    2.036450    1.984040
  H     -1.242140    0.921210    2.984230

----------------------------
CARTESIAN COORDINATES (A.U.)
----------------------------
  NO LB      ZA    FRAG     MASS         X           Y           Z
   0 O     8.0000    0    15.999    3.391057    1.744992    5.231423
   1 H     1.0000    0     1.008    4.418652    2.569555    6.483537
   2 H     1.0000    0     1.008    1.661976    2.462313    5.415502
   3 O     8.0000    0    15.999   -3.391057   -1.744992    5.231423
   4 H     1.0000    0     1.008   -4.418652   -2.569555    6.483537
   5 H     1.0000    0     1.008   -1.661976   -2.462313    5.415502
   6 O     8.0000    0    15.999    1.744992   -3.391057   -5.231423
   7 H     1.0000    0     1.008    2.569555   -4.418652   -6.483537
   8 H     1.0000    0     1.008    2.462313   -1.661976   -5.415502
   9 O     8.0000    0    15.999   -3.311046   -1.401289   -5.473176
  10 H     1.0000    0     1.008   -3.848333   -1.739493   -3.749292
  11 H     1.0000    0     1.008   -1.740835   -2.347304   -5.639377
  12 O     8.0000    0    15.999    3.311046    1.401289   -5.473176
  13 H     1.0000    0     1.008    3.848333    1.739493   -3.749292
  14 H     1.0000    0     1.008    1.740835    2.347304   -5.639377
  15 O     8.0000    0    15.999   -1.401289    3.311046    5.473176
  16 H     1.0000    0     1.008   -1.739493    3.848333    3.749292
  17 H     1.0000    0     1.008   -2.347304    1.740835    5.639377

--------------------------------
INTERNAL COORDINATES (ANGSTROEM)
--------------------------------
 O      0   0   0     0.000000000000     0.00000000     0.00000000
 H      1   0   0     0.961828878803     0.00000000     0.00000000
 H      1   2   0     0.995381322057   106.21731035     0.00000000
 O      3   1   2     3.480861789658   117.35405144   223.81249033
 H      4   3   1     0.961828878803   134.84484566    98.22461471
 H      4   3   1     0.995381322057    62.29205096    12.66575463
 O      6   4   3     5.935920367146   102.58474291   273.48279218
 H      7   6   4     0.961828878803   146.97742434   224.01286022
 H      7   6   4     0.995381322057    97.62005672    87.72090689
 O      7   6   4     2.878117964938    74.30903121   359.04191204
 H     10   7   6     0.972136791249    99.37069922   345.64431536
 H     10   7   6     0.974050112161    12.30570018   233.12878636
 O      9   7   6     1.682356278379   171.61043709   321.17145860
 H     13   9   7     0.972136791249   103.79460456    70.64587838
 H     13   9   7     0.974050112161   105.61118924   321.69395179
 O      3   1   2     1.682356278379   171.61043709   195.73896161
 H     16   3   1     0.972136791249   103.79460456   289.35412162
 H     16   3   1     0.974050112161   105.61118924    38.30604821

---------------------------
INTERNAL COORDINATES (A.U.)
---------------------------
 O      0   0   0     0.000000000000     0.00000000     0.00000000
 H      1   0   0     1.817593168635     0.00000000     0.00000000
 H      1   2   0     1.880998097508   106.21731035     0.00000000
 O      3   1   2     6.577875492484   117.35405144   223.81249033
 H      4   3   1     1.817593168635   134.84484566    98.22461471
 H      4   3   1     1.880998097508    62.29205096    12.66575463
 O      6   4   3    11.217263846671   102.58474291   273.48279218
 H      7   6   4     1.817593168635   146.97742434   224.01286022
 H      7   6   4     1.880998097508    97.62005672    87.72090689
 O      7   6   4     5.438854734852    74.30903121   359.04191204
 H     10   7   6     1.837072300170    99.37069922   345.64431536
 H     10   7   6     1.840687952699    12.30570018   233.12878636
 O      9   7   6     3.179192625819   171.61043709   321.17145860
 H     13   9   7     1.837072300170   103.79460456    70.64587838
 H     13   9   7     1.840687952699   105.61118924   321.69395179
 O      3   1   2     3.179192625819   171.61043709   195.73896161
 H     16   3   1     1.837072300170   103.79460456   289.35412162
 H     16   3   1     1.840687952699   105.61118924    38.30604821

---------------------
BASIS SET INFORMATION
---------------------
There are 2 groups of distinct atoms

 Group   1 Type O   : 11s6p2d1f contracted to 5s3p2d1f pattern {62111/411/11/1}
 Group   2 Type H   : 5s1p contracted to 3s1p pattern {311/1}

Atom   0O    basis set group =>   1
Atom   1H    basis set group =>   2
Atom   2H    basis set group =>   2
Atom   3O    basis set group =>   1
Atom   4H    basis set group =>   2
Atom   5H    basis set group =>   2
Atom   6O    basis set group =>   1
Atom   7H    basis set group =>   2
Atom   8H    basis set group =>   2
Atom   9O    basis set group =>   1
Atom  10H    basis set group =>   2
Atom  11H    basis set group =>   2
Atom  12O    basis set group =>   1
Atom  13H    basis set group =>   2
Atom  14H    basis set group =>   2
Atom  15O    basis set group =>   1
Atom  16H    basis set group =>   2
Atom  17H    basis set group =>   2


           ************************************************************
           *        Program running with 6 parallel MPI-processes     *
           *              working on a common directory               *
           ************************************************************
------------------------------------------------------------------------------
                           ORCA GTO INTEGRAL CALCULATION
------------------------------------------------------------------------------

                         BASIS SET STATISTICS AND STARTUP INFO

 # of primitive gaussian shells          ...  192
 # of primitive gaussian functions       ...  372
 # of contracted shells                  ...  114
 # of contracted basis functions         ...  258
 Highest angular momentum                ...    3
 Maximum contraction depth               ...    6
 Integral package used                   ... LIBINT
 Integral threshhold            Thresh   ...  2.500e-11
 Primitive cut-off              TCut     ...  2.500e-12


------------------------------ INTEGRAL EVALUATION ----------------------------


 * One electron integrals 
 Pre-screening matrix                    ... done
 Shell pair data                         ... done (   0.001 sec)



           ************************************************************
           *        Program running with 6 parallel MPI-processes     *
           *              working on a common directory               *
           ************************************************************
-------------------------------------------------------------------------------
                                 ORCA SCF
-------------------------------------------------------------------------------

------------
SCF SETTINGS
------------
Hamiltonian:
 Ab initio Hamiltonian  Method          .... Hartree-Fock(GTOs)


General Settings:
 Integral files         IntName         .... 12h2o.su.etal.mol0,1,2,3,8,11-orca.engrad-mp2.def2tzvp.frozencore
 Hartree-Fock type      HFTyp           .... RHF
 Total Charge           Charge          ....    0
 Multiplicity           Mult            ....    1
 Number of Electrons    NEL             ....   60
 Basis Dimension        Dim             ....  258
 Nuclear Repulsion      ENuc            ....    234.0495633579 Eh

Convergence Acceleration:
 DIIS                   CNVDIIS         .... on
   Start iteration      DIISMaxIt       ....    12
   Startup error        DIISStart       ....  0.200000
   # of expansion vecs  DIISMaxEq       ....     5
   Bias factor          DIISBfac        ....   1.050
   Max. coefficient     DIISMaxC        ....  10.000
 Newton-Raphson         CNVNR           .... off
 SOSCF                  CNVSOSCF        .... on
   Start iteration      SOSCFMaxIt      ....   150
   Startup grad/error   SOSCFStart      ....  0.003300
 Level Shifting         CNVShift        .... on
   Level shift para.    LevelShift      ....    0.2500
   Turn off err/grad.   ShiftErr        ....    0.0010
 Zerner damping         CNVZerner       .... off
 Static damping         CNVDamp         .... on
   Fraction old density DampFac         ....    0.7000
   Max. Damping (<1)    DampMax         ....    0.9800
   Min. Damping (>=0)   DampMin         ....    0.0000
   Turn off err/grad.   DampErr         ....    0.1000
 Fernandez-Rico         CNVRico         .... off

SCF Procedure:
 Maximum # iterations   MaxIter         ....   125
 SCF integral mode      SCFMode         .... Direct
   Integral package                     .... LIBINT
 Reset frequency        DirectResetFreq ....    20
 Integral Threshold     Thresh          ....  2.500e-11 Eh
 Primitive CutOff       TCut            ....  2.500e-12 Eh

Convergence Tolerance:
 Convergence Check Mode ConvCheckMode   .... Total+1el-Energy
 Convergence forced     ConvForced      .... 1
 Energy Change          TolE            ....  1.000e-08 Eh
 1-El. energy change                    ....  1.000e-05 Eh
 Orbital Gradient       TolG            ....  1.000e-05
 Orbital Rotation angle TolX            ....  1.000e-05
 DIIS Error             TolErr          ....  5.000e-07


Diagonalization of the overlap matrix:
Smallest eigenvalue                        ... 4.298e-03
Time for diagonalization                   ...    0.022 sec
Threshold for overlap eigenvalues          ... 1.000e-08
Number of eigenvalues below threshold      ... 0
Time for construction of square roots      ...    0.022 sec
Total time needed                          ...    0.044 sec

-------------------
DFT GRID GENERATION
-------------------

General Integration Accuracy     IntAcc      ...  4.340
Radial Grid Type                 RadialGrid  ... Gauss-Chebyshev
Angular Grid (max. acc.)         AngularGrid ... Lebedev-110
Angular grid pruning method      GridPruning ... 3 (G Style)
Weight generation scheme         WeightScheme... Becke
Basis function cutoff            BFCut       ...    1.0000e-11
Integration weight cutoff        WCut        ...    1.0000e-14
Grids for H and He will be reduced by one unit

# of grid points (after initial pruning)     ...  19824 (   0.0 sec)
# of grid points (after weights+screening)   ...  18977 (   0.0 sec)
nearest neighbour list constructed           ...    0.0 sec
Grid point re-assignment to atoms done       ...    0.0 sec
Grid point division into batches done        ...    0.0 sec
Reduced shell lists constructed in    0.0 sec

Total number of grid points                  ...    18977
Total number of batches                      ...      304
Average number of points per batch           ...       62
Average number of grid points per atom       ...     1054
Average number of shells per batch           ...    48.79 (42.80%)
Average number of basis functions per batch  ...    98.63 (38.23%)
Average number of large shells per batch     ...    33.42 (68.51%)
Average number of large basis fcns per batch ...    69.08 (70.03%)
Maximum spatial batch extension              ...  12.83, 20.10, 13.77 au
Average spatial batch extension              ...   0.58,  0.68,  0.58 au

Time for grid setup =    0.115 sec

------------------------------
INITIAL GUESS: MODEL POTENTIAL
------------------------------
Loading Hartree-Fock densities                     ... done
Calculating cut-offs                               ... done
Setting up the integral package                    ... done
Initializing the effective Hamiltonian             ... done
Starting the Coulomb interaction                   ... done (   0.0 sec)
Reading the grid                                   ... done
Mapping shells                                     ... done
Starting the XC term evaluation                    ... done (   0.1 sec)
Transforming the Hamiltonian                       ... done (   0.0 sec)
Diagonalizing the Hamiltonian                      ... done (   0.1 sec)
Back transforming the eigenvectors                 ... done (   0.0 sec)
Now organizing SCF variables                       ... done
                      ------------------
                      INITIAL GUESS DONE (   0.4 sec)
                      ------------------
--------------
SCF ITERATIONS
--------------
ITER       Energy         Delta-E        Max-DP      RMS-DP      [F,P]     Damp
               ***  Starting incremental Fock matrix formation  ***
  0   -455.8279019480   0.000000000000 0.04405210  0.00097459  0.3501002 0.7000
  1   -456.0421382702  -0.214236322219 0.02933280  0.00067342  0.2165689 0.7000
                               ***Turning on DIIS***
  2   -456.1552636400  -0.113125369778 0.01661668  0.00037416  0.1635152 0.7000
  3   -457.1724435190  -1.017179879022 0.00759223  0.00016843  0.1218456 0.7000
  4   -456.9660238200   0.206419699034 0.01677819  0.00038700  0.0862146 0.0000
  5   -456.4141086295   0.551915190431 0.00211858  0.00006186  0.0054634 0.0000
                      *** Initiating the SOSCF procedure ***
                           *** Shutting down DIIS ***
                      *** Re-Reading the Fockian *** 
                      *** Removing any level shift *** 
ITER      Energy       Delta-E        Grad      Rot      Max-DP    RMS-DP
  6   -456.38265600   0.0314526299  0.000947  0.000947  0.001386  0.000038
               *** Restarting incremental Fock matrix formation ***
  7   -456.37301206   0.0096439383  0.000270  0.000388  0.000681  0.000017
  8   -456.37302074  -0.0000086741  0.000152  0.000336  0.000507  0.000014
  9   -456.37302283  -0.0000020947  0.000072  0.000053  0.000096  0.000002
 10   -456.37302300  -0.0000001725  0.000014  0.000007  0.000021  0.000000
 11   -456.37302301  -0.0000000043  0.000003  0.000003  0.000004  0.000000
                  ***Gradient check signals convergence***
              ***Rediagonalizing the Fockian in SOSCF/NRSCF***

               *****************************************************
               *                     SUCCESS                       *
               *           SCF CONVERGED AFTER  12 CYCLES          *
               *****************************************************


----------------
TOTAL SCF ENERGY
----------------

Total Energy       :         -456.37302301 Eh          -12418.54130 eV

Components:
Nuclear Repulsion  :          234.04956336 Eh            6368.81240 eV
Electronic Energy  :         -690.42258637 Eh          -18787.35371 eV
One Electron Energy:        -1096.35077264 Eh          -29833.22122 eV
Two Electron Energy:          405.92818628 Eh           11045.86751 eV

Virial components:
Potential Energy   :         -912.12771433 Eh          -24820.25694 eV
Kinetic Energy     :          455.75469133 Eh           12401.71564 eV
Virial Ratio       :            2.00135672


---------------
SCF CONVERGENCE
---------------

  Last Energy change         ...   -1.5530e-10  Tolerance :   1.0000e-08
  Last MAX-Density change    ...    1.4032e-06  Tolerance :   1.0000e-07
  Last RMS-Density change    ...    3.6890e-08  Tolerance :   5.0000e-09
  Last Orbital Gradient      ...    9.1195e-07  Tolerance :   1.0000e-05
  Last Orbital Rotation      ...    8.7134e-07  Tolerance :   1.0000e-05

             **** THE GBW FILE WAS UPDATED (12h2o.su.etal.mol0,1,2,3,8,11-orca.engrad-mp2.def2tzvp.frozencore.gbw) ****
             **** DENSITY FILE WAS UPDATED (12h2o.su.etal.mol0,1,2,3,8,11-orca.engrad-mp2.def2tzvp.frozencore.scfp) ****
             **** ENERGY FILE WAS UPDATED (12h2o.su.etal.mol0,1,2,3,8,11-orca.engrad-mp2.def2tzvp.frozencore.en.tmp) ****
             **** THE GBW FILE WAS UPDATED (12h2o.su.etal.mol0,1,2,3,8,11-orca.engrad-mp2.def2tzvp.frozencore.gbw) ****
             **** DENSITY FILE WAS UPDATED (12h2o.su.etal.mol0,1,2,3,8,11-orca.engrad-mp2.def2tzvp.frozencore.scfp) ****
----------------
ORBITAL ENERGIES
----------------

  NO   OCC          E(Eh)            E(eV) 
   0   2.0000     -20.598986      -560.5269 
   1   2.0000     -20.597343      -560.4822 
   2   2.0000     -20.573980      -559.8465 
   3   2.0000     -20.542684      -558.9949 
   4   2.0000     -20.527467      -558.5808 
   5   2.0000     -20.522035      -558.4330 
   6   2.0000      -1.383140       -37.6372 
   7   2.0000      -1.377956       -37.4961 
   8   2.0000      -1.361424       -37.0462 
   9   2.0000      -1.327737       -36.1296 
  10   2.0000      -1.308734       -35.6125 
  11   2.0000      -1.303973       -35.4829 
  12   2.0000      -0.745024       -20.2731 
  13   2.0000      -0.739677       -20.1276 
  14   2.0000      -0.723014       -19.6742 
  15   2.0000      -0.712377       -19.3848 
  16   2.0000      -0.691675       -18.8214 
  17   2.0000      -0.678031       -18.4502 
  18   2.0000      -0.623003       -16.9528 
  19   2.0000      -0.622262       -16.9326 
  20   2.0000      -0.596023       -16.2186 
  21   2.0000      -0.578657       -15.7461 
  22   2.0000      -0.554002       -15.0752 
  23   2.0000      -0.549404       -14.9500 
  24   2.0000      -0.538539       -14.6544 
  25   2.0000      -0.524882       -14.2828 
  26   2.0000      -0.505774       -13.7628 
  27   2.0000      -0.491176       -13.3656 
  28   2.0000      -0.475289       -12.9333 
  29   2.0000      -0.472886       -12.8679 
  30   0.0000       0.099259         2.7010 
  31   0.0000       0.114073         3.1041 
  32   0.0000       0.147646         4.0177 
  33   0.0000       0.161865         4.4046 
  34   0.0000       0.169114         4.6018 
  35   0.0000       0.177587         4.8324 
  36   0.0000       0.192065         5.2264 
  37   0.0000       0.199781         5.4363 
  38   0.0000       0.274626         7.4730 
  39   0.0000       0.302686         8.2365 
  40   0.0000       0.325333         8.8527 
  41   0.0000       0.334953         9.1145 
  42   0.0000       0.459155        12.4942 
  43   0.0000       0.470811        12.8114 
  44   0.0000       0.482436        13.1278 
  45   0.0000       0.485494        13.2110 
  46   0.0000       0.507589        13.8122 
  47   0.0000       0.531131        14.4528 
  48   0.0000       0.542357        14.7583 
  49   0.0000       0.550573        14.9819 
  50   0.0000       0.560375        15.2486 
  51   0.0000       0.578311        15.7366 
  52   0.0000       0.582864        15.8605 
  53   0.0000       0.593382        16.1467 
  54   0.0000       0.601600        16.3704 
  55   0.0000       0.617231        16.7957 
  56   0.0000       0.631449        17.1826 
  57   0.0000       0.639173        17.3928 
  58   0.0000       0.644274        17.5316 
  59   0.0000       0.659311        17.9408 
  60   0.0000       0.663611        18.0578 
  61   0.0000       0.670137        18.2354 
  62   0.0000       0.722947        19.6724 
  63   0.0000       0.736126        20.0310 
  64   0.0000       0.742455        20.2032 
  65   0.0000       0.745567        20.2879 
  66   0.0000       0.748438        20.3660 
  67   0.0000       0.771620        20.9968 
  68   0.0000       0.784876        21.3576 
  69   0.0000       0.802378        21.8338 
  70   0.0000       0.825571        22.4649 
  71   0.0000       0.829807        22.5802 
  72   0.0000       0.913774        24.8651 
  73   0.0000       0.932129        25.3645 
  74   0.0000       0.958149        26.0726 
  75   0.0000       0.973450        26.4889 
  76   0.0000       1.023136        27.8409 
  77   0.0000       1.043609        28.3980 
  78   0.0000       1.354017        36.8447 
  79   0.0000       1.357201        36.9313 
  80   0.0000       1.380549        37.5666 
  81   0.0000       1.385842        37.7107 
  82   0.0000       1.407651        38.3041 
  83   0.0000       1.423463        38.7344 
  84   0.0000       1.435439        39.0603 
  85   0.0000       1.454075        39.5674 
  86   0.0000       1.477216        40.1971 
  87   0.0000       1.484427        40.3933 
  88   0.0000       1.502005        40.8716 
  89   0.0000       1.506689        40.9991 
  90   0.0000       1.543197        41.9925 
  91   0.0000       1.569836        42.7174 
  92   0.0000       1.595432        43.4139 
  93   0.0000       1.597841        43.4795 
  94   0.0000       1.625694        44.2374 
  95   0.0000       1.627007        44.2731 
  96   0.0000       1.786286        48.6073 
  97   0.0000       1.788666        48.6721 
  98   0.0000       1.812916        49.3319 
  99   0.0000       1.821863        49.5754 
 100   0.0000       1.852530        50.4099 
 101   0.0000       1.862089        50.6700 
 102   0.0000       1.870216        50.8912 
 103   0.0000       1.882072        51.2138 
 104   0.0000       1.969594        53.5954 
 105   0.0000       1.971885        53.6577 
 106   0.0000       1.992566        54.2205 
 107   0.0000       2.026962        55.1564 
 108   0.0000       2.037815        55.4518 
 109   0.0000       2.047796        55.7234 
 110   0.0000       2.065969        56.2179 
 111   0.0000       2.088585        56.8333 
 112   0.0000       2.146094        58.3982 
 113   0.0000       2.158631        58.7393 
 114   0.0000       2.235677        60.8359 
 115   0.0000       2.241115        60.9839 
 116   0.0000       2.293240        62.4022 
 117   0.0000       2.306364        62.7594 
 118   0.0000       2.313630        62.9571 
 119   0.0000       2.325703        63.2856 
 120   0.0000       2.331538        63.4444 
 121   0.0000       2.337780        63.6142 
 122   0.0000       2.365605        64.3714 
 123   0.0000       2.387982        64.9803 
 124   0.0000       2.388834        65.0035 
 125   0.0000       2.395976        65.1978 
 126   0.0000       2.419769        65.8453 
 127   0.0000       2.474740        67.3411 
 128   0.0000       2.493434        67.8498 
 129   0.0000       2.511731        68.3477 
 130   0.0000       2.544919        69.2508 
 131   0.0000       2.546180        69.2851 
 132   0.0000       2.573291        70.0228 
 133   0.0000       2.590593        70.4936 
 134   0.0000       2.602965        70.8303 
 135   0.0000       2.616014        71.1854 
 136   0.0000       2.630152        71.5701 
 137   0.0000       2.637913        71.7813 
 138   0.0000       2.659529        72.3695 
 139   0.0000       2.670607        72.6709 
 140   0.0000       2.691182        73.2308 
 141   0.0000       2.715850        73.9020 
 142   0.0000       2.770771        75.3965 
 143   0.0000       2.778880        75.6172 
 144   0.0000       2.873618        78.1951 
 145   0.0000       2.896047        78.8054 
 146   0.0000       2.922829        79.5342 
 147   0.0000       2.927499        79.6613 
 148   0.0000       2.945199        80.1430 
 149   0.0000       2.949298        80.2545 
 150   0.0000       2.963378        80.6376 
 151   0.0000       2.992380        81.4268 
 152   0.0000       3.000755        81.6547 
 153   0.0000       3.008697        81.8708 
 154   0.0000       3.028953        82.4220 
 155   0.0000       3.036219        82.6197 
 156   0.0000       3.071009        83.5664 
 157   0.0000       3.097342        84.2830 
 158   0.0000       3.102264        84.4169 
 159   0.0000       3.141481        85.4840 
 160   0.0000       3.187902        86.7472 
 161   0.0000       3.219284        87.6012 
 162   0.0000       3.225102        87.7595 
 163   0.0000       3.242851        88.2425 
 164   0.0000       3.281238        89.2870 
 165   0.0000       3.338382        90.8420 
 166   0.0000       3.497668        95.1764 
 167   0.0000       3.515100        95.6507 
 168   0.0000       3.961209       107.7900 
 169   0.0000       3.998973       108.8176 
 170   0.0000       4.031763       109.7098 
 171   0.0000       4.061305       110.5137 
 172   0.0000       4.110161       111.8432 
 173   0.0000       4.115129       111.9783 
 174   0.0000       4.275936       116.3541 
 175   0.0000       4.277894       116.4074 
 176   0.0000       4.308319       117.2353 
 177   0.0000       4.344709       118.2255 
 178   0.0000       4.382219       119.2462 
 179   0.0000       4.401728       119.7771 
 180   0.0000       5.510757       149.9553 
 181   0.0000       5.512419       150.0005 
 182   0.0000       5.530447       150.4911 
 183   0.0000       5.561014       151.3229 
 184   0.0000       5.578274       151.7926 
 185   0.0000       5.583356       151.9308 
 186   0.0000       5.608905       152.6261 
 187   0.0000       5.648982       153.7166 
 188   0.0000       5.665640       154.1699 
 189   0.0000       5.667896       154.2313 
 190   0.0000       5.684291       154.6774 
 191   0.0000       5.684305       154.6778 
 192   0.0000       5.777727       157.2199 
 193   0.0000       5.795909       157.7147 
 194   0.0000       5.801318       157.8619 
 195   0.0000       5.806190       157.9945 
 196   0.0000       5.820361       158.3801 
 197   0.0000       5.842123       158.9722 
 198   0.0000       5.845356       159.0602 
 199   0.0000       5.851848       159.2369 
 200   0.0000       5.860523       159.4729 
 201   0.0000       5.868835       159.6991 
 202   0.0000       5.869619       159.7204 
 203   0.0000       5.879541       159.9905 
 204   0.0000       5.883968       160.1109 
 205   0.0000       5.892104       160.3323 
 206   0.0000       5.906077       160.7125 
 207   0.0000       5.927973       161.3083 
 208   0.0000       5.943909       161.7420 
 209   0.0000       5.964323       162.2975 
 210   0.0000       6.395624       174.0338 
 211   0.0000       6.452760       175.5885 
 212   0.0000       6.471388       176.0954 
 213   0.0000       6.482237       176.3906 
 214   0.0000       6.503841       176.9785 
 215   0.0000       6.520534       177.4328 
 216   0.0000       6.667373       181.4284 
 217   0.0000       6.679316       181.7534 
 218   0.0000       6.704289       182.4330 
 219   0.0000       6.718203       182.8116 
 220   0.0000       6.747756       183.6158 
 221   0.0000       6.752358       183.7410 
 222   0.0000       6.831621       185.8979 
 223   0.0000       6.833729       185.9552 
 224   0.0000       6.840048       186.1272 
 225   0.0000       6.861328       186.7062 
 226   0.0000       6.877080       187.1349 
 227   0.0000       6.882997       187.2959 
 228   0.0000       6.893149       187.5721 
 229   0.0000       6.909719       188.0230 
 230   0.0000       6.911879       188.0818 
 231   0.0000       6.925232       188.4451 
 232   0.0000       6.925354       188.4485 
 233   0.0000       6.957173       189.3143 
 234   0.0000       6.965301       189.5355 
 235   0.0000       6.988554       190.1682 
 236   0.0000       6.989751       190.2008 
 237   0.0000       6.993356       190.2989 
 238   0.0000       7.058243       192.0646 
 239   0.0000       7.086114       192.8230 
 240   0.0000       7.347256       199.9290 
 241   0.0000       7.380522       200.8342 
 242   0.0000       7.422440       201.9749 
 243   0.0000       7.434789       202.3109 
 244   0.0000       7.457810       202.9373 
 245   0.0000       7.473988       203.3775 
 246   0.0000       7.487304       203.7399 
 247   0.0000       7.504673       204.2125 
 248   0.0000       7.532201       204.9616 
 249   0.0000       7.562356       205.7822 
 250   0.0000       7.573890       206.0960 
 251   0.0000       7.574266       206.1063 
 252   0.0000      44.850541      1220.4453 
 253   0.0000      44.891184      1221.5512 
 254   0.0000      44.929680      1222.5988 
 255   0.0000      44.962942      1223.5039 
 256   0.0000      44.965641      1223.5773 
 257   0.0000      44.986730      1224.1512 

                    ********************************
                    * MULLIKEN POPULATION ANALYSIS *
                    ********************************

-----------------------
MULLIKEN ATOMIC CHARGES
-----------------------
   0 O :   -0.764711
   1 H :    0.334660
   2 H :    0.391623
   3 O :   -0.729930
   4 H :    0.365655
   5 H :    0.381301
   6 O :   -0.767413
   7 H :    0.347684
   8 H :    0.403750
   9 O :   -0.739911
  10 H :    0.337245
  11 H :    0.383782
  12 O :   -0.716201
  13 H :    0.373658
  14 H :    0.377173
  15 O :   -0.731801
  16 H :    0.358973
  17 H :    0.394464
Sum of atomic charges:   -0.0000000

--------------------------------
MULLIKEN REDUCED ORBITAL CHARGES
--------------------------------
  0 O s       :     3.808189  s :     3.808189
      pz      :     1.720257  p :     4.931238
      px      :     1.409471
      py      :     1.801510
      dz2     :     0.004042  d :     0.023821
      dxz     :     0.004693
      dyz     :     0.005622
      dx2y2   :     0.002321
      dxy     :     0.007143
      f0      :     0.000087  f :     0.001463
      f+1     :     0.000328
      f-1     :     0.000183
      f+2     :     0.000069
      f-2     :     0.000358
      f+3     :     0.000088
      f-3     :     0.000350
  1 H s       :     0.619365  s :     0.619365
      pz      :     0.017107  p :     0.045975
      px      :     0.013807
      py      :     0.015061
  2 H s       :     0.551275  s :     0.551275
      pz      :     0.010786  p :     0.057102
      px      :     0.032252
      py      :     0.014064
  3 O s       :     3.809190  s :     3.809190
      pz      :     1.737385  p :     4.894730
      px      :     1.377231
      py      :     1.780114
      dz2     :     0.004399  d :     0.024509
      dxz     :     0.004988
      dyz     :     0.005541
      dx2y2   :     0.002578
      dxy     :     0.007003
      f0      :     0.000093  f :     0.001501
      f+1     :     0.000352
      f-1     :     0.000184
      f+2     :     0.000061
      f-2     :     0.000356
      f+3     :     0.000091
      f-3     :     0.000365
  4 H s       :     0.589057  s :     0.589057
      pz      :     0.017315  p :     0.045288
      px      :     0.013293
      py      :     0.014679
  5 H s       :     0.577525  s :     0.577525
      pz      :     0.010947  p :     0.041175
      px      :     0.018130
      py      :     0.012097
  6 O s       :     3.807140  s :     3.807140
      pz      :     1.731497  p :     4.935686
      px      :     1.780674
      py      :     1.423515
      dz2     :     0.004081  d :     0.023158
      dxz     :     0.005331
      dyz     :     0.004848
      dx2y2   :     0.002327
      dxy     :     0.006571
      f0      :     0.000089  f :     0.001429
      f+1     :     0.000176
      f-1     :     0.000334
      f+2     :     0.000061
      f-2     :     0.000355
      f+3     :     0.000331
      f-3     :     0.000082
  7 H s       :     0.606584  s :     0.606584
      pz      :     0.017197  p :     0.045732
      px      :     0.014859
      py      :     0.013676
  8 H s       :     0.540036  s :     0.540036
      pz      :     0.010697  p :     0.056214
      px      :     0.013316
      py      :     0.032202
  9 O s       :     3.809573  s :     3.809573
      pz      :     1.493772  p :     4.903728
      px      :     1.584428
      py      :     1.825528
      dz2     :     0.011933  d :     0.025131
      dxz     :     0.001252
      dyz     :     0.002892
      dx2y2   :     0.001993
      dxy     :     0.007061
      f0      :     0.000273  f :     0.001479
      f+1     :     0.000381
      f-1     :     0.000168
      f+2     :     0.000057
      f-2     :     0.000056
      f+3     :     0.000063
      f-3     :     0.000482
 10 H s       :     0.618059  s :     0.618059
      pz      :     0.018730  p :     0.044695
      px      :     0.012245
      py      :     0.013720
 11 H s       :     0.566027  s :     0.566027
      pz      :     0.009684  p :     0.050191
      px      :     0.024206
      py      :     0.016301
 12 O s       :     3.800959  s :     3.800959
      pz      :     1.531488  p :     4.887881
      px      :     1.564505
      py      :     1.791888
      dz2     :     0.012564  d :     0.025913
      dxz     :     0.001234
      dyz     :     0.002472
      dx2y2   :     0.002469
      dxy     :     0.007174
      f0      :     0.000250  f :     0.001448
      f+1     :     0.000395
      f-1     :     0.000163
      f+2     :     0.000052
      f-2     :     0.000057
      f+3     :     0.000052
      f-3     :     0.000481
 13 H s       :     0.582818  s :     0.582818
      pz      :     0.019547  p :     0.043525
      px      :     0.011567
      py      :     0.012411
 14 H s       :     0.579652  s :     0.579652
      pz      :     0.010075  p :     0.043176
      px      :     0.018615
      py      :     0.014486
 15 O s       :     3.795710  s :     3.795710
      pz      :     1.519061  p :     4.909740
      px      :     1.793878
      py      :     1.596801
      dz2     :     0.012274  d :     0.024946
      dxz     :     0.002399
      dyz     :     0.001242
      dx2y2   :     0.002335
      dxy     :     0.006697
      f0      :     0.000253  f :     0.001405
      f+1     :     0.000158
      f-1     :     0.000389
      f+2     :     0.000052
      f-2     :     0.000056
      f+3     :     0.000447
      f-3     :     0.000049
 16 H s       :     0.597283  s :     0.597283
      pz      :     0.019201  p :     0.043744
      px      :     0.012777
      py      :     0.011766
 17 H s       :     0.556241  s :     0.556241
      pz      :     0.009547  p :     0.049296
      px      :     0.015529
      py      :     0.024220


                     *******************************
                     * LOEWDIN POPULATION ANALYSIS *
                     *******************************

----------------------
LOEWDIN ATOMIC CHARGES
----------------------
   0 O :   -0.377310
   1 H :    0.148221
   2 H :    0.150491
   3 O :   -0.317909
   4 H :    0.165261
   5 H :    0.193130
   6 O :   -0.345463
   7 H :    0.154141
   8 H :    0.154760
   9 O :   -0.354260
  10 H :    0.159219
  11 H :    0.154432
  12 O :   -0.279722
  13 H :    0.177543
  14 H :    0.179223
  15 O :   -0.292387
  16 H :    0.170033
  17 H :    0.160596

-------------------------------
LOEWDIN REDUCED ORBITAL CHARGES
-------------------------------
  0 O s       :     3.468078  s :     3.468078
      pz      :     1.705977  p :     4.877567
      px      :     1.392386
      py      :     1.779204
      dz2     :     0.004280  d :     0.029658
      dxz     :     0.007162
      dyz     :     0.005832
      dx2y2   :     0.003345
      dxy     :     0.009039
      f0      :     0.000073  f :     0.002006
      f+1     :     0.000440
      f-1     :     0.000265
      f+2     :     0.000034
      f-2     :     0.000631
      f+3     :     0.000085
      f-3     :     0.000479
  1 H s       :     0.687416  s :     0.687416
      pz      :     0.065542  p :     0.164363
      px      :     0.045608
      py      :     0.053213
  2 H s       :     0.654397  s :     0.654397
      pz      :     0.033606  p :     0.195112
      px      :     0.113733
      py      :     0.047773
  3 O s       :     3.467383  s :     3.467383
      pz      :     1.712342  p :     4.817059
      px      :     1.363284
      py      :     1.741432
      dz2     :     0.005005  d :     0.031402
      dxz     :     0.007085
      dyz     :     0.005461
      dx2y2   :     0.004327
      dxy     :     0.009525
      f0      :     0.000078  f :     0.002064
      f+1     :     0.000457
      f-1     :     0.000271
      f+2     :     0.000033
      f-2     :     0.000609
      f+3     :     0.000090
      f-3     :     0.000526
  4 H s       :     0.671273  s :     0.671273
      pz      :     0.066453  p :     0.163465
      px      :     0.044486
      py      :     0.052526
  5 H s       :     0.658214  s :     0.658214
      pz      :     0.033234  p :     0.148656
      px      :     0.072045
      py      :     0.043377
  6 O s       :     3.461627  s :     3.461627
      pz      :     1.709630  p :     4.852524
      px      :     1.745333
      py      :     1.397561
      dz2     :     0.004433  d :     0.029331
      dxz     :     0.005461
      dyz     :     0.007060
      dx2y2   :     0.003753
      dxy     :     0.008625
      f0      :     0.000075  f :     0.001981
      f+1     :     0.000264
      f-1     :     0.000441
      f+2     :     0.000032
      f-2     :     0.000620
      f+3     :     0.000466
      f-3     :     0.000083
  7 H s       :     0.681025  s :     0.681025
      pz      :     0.065882  p :     0.164834
      px      :     0.053057
      py      :     0.045896
  8 H s       :     0.650414  s :     0.650414
      pz      :     0.033568  p :     0.194826
      px      :     0.047474
      py      :     0.113783
  9 O s       :     3.467047  s :     3.467047
      pz      :     1.505024  p :     4.853881
      px      :     1.553382
      py      :     1.795475
      dz2     :     0.016177  d :     0.031226
      dxz     :     0.002220
      dyz     :     0.002381
      dx2y2   :     0.001976
      dxy     :     0.008472
      f0      :     0.000503  f :     0.002106
      f+1     :     0.000578
      f-1     :     0.000316
      f+2     :     0.000025
      f-2     :     0.000051
      f+3     :     0.000002
      f-3     :     0.000632
 10 H s       :     0.682680  s :     0.682680
      pz      :     0.079240  p :     0.158101
      px      :     0.036460
      py      :     0.042401
 11 H s       :     0.670792  s :     0.670792
      pz      :     0.029394  p :     0.174776
      px      :     0.087215
      py      :     0.058166
 12 O s       :     3.458634  s :     3.458634
      pz      :     1.520594  p :     4.785703
      px      :     1.536078
      py      :     1.729032
      dz2     :     0.016589  d :     0.033207
      dxz     :     0.001959
      dyz     :     0.001969
      dx2y2   :     0.003631
      dxy     :     0.009059
      f0      :     0.000452  f :     0.002179
      f+1     :     0.000584
      f-1     :     0.000346
      f+2     :     0.000022
      f-2     :     0.000048
      f+3     :     0.000027
      f-3     :     0.000700
 13 H s       :     0.663708  s :     0.663708
      pz      :     0.081661  p :     0.158749
      px      :     0.035633
      py      :     0.041455
 14 H s       :     0.662700  s :     0.662700
      pz      :     0.029690  p :     0.158077
      px      :     0.073377
      py      :     0.055010
 15 O s       :     3.453814  s :     3.453814
      pz      :     1.514944  p :     4.804679
      px      :     1.734140
      py      :     1.555595
      dz2     :     0.016269  d :     0.031777
      dxz     :     0.001941
      dyz     :     0.002073
      dx2y2   :     0.003369
      dxy     :     0.008125
      f0      :     0.000469  f :     0.002117
      f+1     :     0.000337
      f-1     :     0.000576
      f+2     :     0.000022
      f-2     :     0.000051
      f+3     :     0.000636
      f-3     :     0.000026
 16 H s       :     0.670920  s :     0.670920
      pz      :     0.080436  p :     0.159047
      px      :     0.041998
      py      :     0.036613
 17 H s       :     0.664685  s :     0.664685
      pz      :     0.029468  p :     0.174719
      px      :     0.058099
      py      :     0.087153


                      *****************************
                      * MAYER POPULATION ANALYSIS *
                      *****************************

  NA   - Mulliken gross atomic population
  ZA   - Total nuclear charge
  QA   - Mulliken gross atomic charge
  VA   - Mayer's total valence
  BVA  - Mayer's bonded valence
  FA   - Mayer's free valence

  ATOM       NA         ZA         QA         VA         BVA        FA
  0 O      8.7647     8.0000    -0.7647     1.6895     1.6895    -0.0000
  1 H      0.6653     1.0000     0.3347     0.9035     0.9035    -0.0000
  2 H      0.6084     1.0000     0.3916     0.8855     0.8855    -0.0000
  3 O      8.7299     8.0000    -0.7299     1.7625     1.7625    -0.0000
  4 H      0.6343     1.0000     0.3657     0.8813     0.8813     0.0000
  5 H      0.6187     1.0000     0.3813     0.8690     0.8690     0.0000
  6 O      8.7674     8.0000    -0.7674     1.7006     1.7006    -0.0000
  7 H      0.6523     1.0000     0.3477     0.8954     0.8954     0.0000
  8 H      0.5962     1.0000     0.4038     0.8694     0.8694     0.0000
  9 O      8.7399     8.0000    -0.7399     1.7319     1.7319    -0.0000
 10 H      0.6628     1.0000     0.3372     0.8997     0.8997    -0.0000
 11 H      0.6162     1.0000     0.3838     0.8896     0.8896    -0.0000
 12 O      8.7162     8.0000    -0.7162     1.7700     1.7700    -0.0000
 13 H      0.6263     1.0000     0.3737     0.8738     0.8738    -0.0000
 14 H      0.6228     1.0000     0.3772     0.8752     0.8752    -0.0000
 15 O      8.7318     8.0000    -0.7318     1.7465     1.7465    -0.0000
 16 H      0.6410     1.0000     0.3590     0.8842     0.8842    -0.0000
 17 H      0.6055     1.0000     0.3945     0.8771     0.8771    -0.0000

  Mayer bond orders larger than 0.100000
B(  0-O ,  1-H ) :   0.8979 B(  0-O ,  2-H ) :   0.8113 B(  3-O ,  4-H ) :   0.8741 
B(  3-O ,  5-H ) :   0.8583 B(  6-O ,  7-H ) :   0.8872 B(  6-O ,  8-H ) :   0.8015 
B(  9-O , 10-H ) :   0.8963 B(  9-O , 11-H ) :   0.8382 B( 12-O , 13-H ) :   0.8681 
B( 12-O , 14-H ) :   0.8630 B( 15-O , 16-H ) :   0.8795 B( 15-O , 17-H ) :   0.8306 


-------
TIMINGS
-------

Total SCF time: 0 days 0 hours 0 min 9 sec 

Total time                  ....       9.320 sec
Sum of individual times     ....       9.030 sec  ( 96.9%)

Fock matrix formation       ....       8.142 sec  ( 87.4%)
Diagonalization             ....       0.208 sec  (  2.2%)
Density matrix formation    ....       0.008 sec  (  0.1%)
Population analysis         ....       0.034 sec  (  0.4%)
Initial guess               ....       0.291 sec  (  3.1%)
Orbital Transformation      ....       0.000 sec  (  0.0%)
Orbital Orthonormalization  ....       0.000 sec  (  0.0%)
DIIS solution               ....       0.080 sec  (  0.9%)
SOSCF solution              ....       0.153 sec  (  1.6%)


           ************************************************************
           *        Program running with 6 parallel MPI-processes     *
           *              working on a common directory               *
           ************************************************************

------------------------------------------------------------------------------
                                ORCA  MP2 
------------------------------------------------------------------------------

Freezing NCore=12 chemical core electrons
MP2 will be done in the AO integral direct mode
The Q1-step will be done using symmetric double matrices
Dimension of the basis                    ...  258
Memory devoted for MP2                    ... 8000 MB   
Memory needed for all in one shot         ...  264 MB
Number of MOs that can be treated together...  120      
MP2 density construction                  ... relaxed
The MP2 gradient is requested => amplitudes will be stored on disk
Total number of MOs              ...   24
Number of MOs treated per batch  ...    4 
Number of batches necessary      ...    1 
OPERATORS   0/  0 PASS   0
-----------------------------------------------
 MP2 CORRELATION ENERGY   :     -1.545732836 Eh
-----------------------------------------------


---------------------
MP2 DENSITY FORMATION
---------------------

Completing the external part of the density      ... done
Storing the unrelaxed density                    ... done

Calculating G(D)                                 ... done
Completing the Lagrangian                        ... done
Solving the Z-vector equations                   ... 

------------------------------------------------------------------------------
                           ORCA CP-SCF CALCULATION
------------------------------------------------------------------------------

Input orbitals are from        ... 12h2o.su.etal.mol0,1,2,3,8,11-orca.engrad-mp2.def2tzvp.frozencore.gbw
Input Perturbation             ... 12h2o.su.etal.mol0,1,2,3,8,11-orca.engrad-mp2.def2tzvp.frozencore.pin.tmp
Wavefunction output            ... 12h2o.su.etal.mol0,1,2,3,8,11-orca.engrad-mp2.def2tzvp.frozencore.pout.tmp
Perturbation mode              ... Real perturbation (singlet)
Solver                         ... POPLE
Max. number of iterations      ... 128
Convergence tolerance          ... 1.000e-08
Integral handling              ... Direct
Number of perturbations        ... 1
Number of operators            ... 1
Orbital ranges used for CP-SCF:
 Operator 0:  Orbitals   0... 29  to  30...257
Variables per vector in CP-SCF ... 6840
Number of vectors sought       ... 1
     CP-SCF ITERATION   0: 
     CP-SCF ITERATION   1:      0.000720955254
     CP-SCF ITERATION   2:      0.000016972226
     CP-SCF ITERATION   3:      0.000000721805
     CP-SCF ITERATION   4:      0.000000069408
     CP-SCF ITERATION   5:      0.000000005373
                                                 ... done
Finalizing the relaxed density                   ... done
Transforming P to the AO basis                   ... done
Storing the relaxed density                      ... done

------------------------------------
ENERGY WEIGHTED DENSITY FINALIZATION
------------------------------------

Gathering the parts of the W-matrix              ...                                                      done
Forming the Z-density                            ... done
Transforming Z to the AO basis                   ... done
Calculating G(Z)                                 ... done
Finalizing the W-matrix                          ...                                                      done
Transforming W to the AO basis and storing       ... done

                *********************************************
                * UNRELAXED MP2 DENSITY POPULATION ANALYSIS *
                *********************************************

------------------------------------------------------------------------------
                           ORCA POPULATION ANALYSIS
------------------------------------------------------------------------------
Input electron density              ... 12h2o.su.etal.mol0,1,2,3,8,11-orca.engrad-mp2.def2tzvp.frozencore.pmp2ur
BaseName (.gbw .S,...)              ... 12h2o.su.etal.mol0,1,2,3,8,11-orca.engrad-mp2.def2tzvp.frozencore

                    ********************************
                    * MULLIKEN POPULATION ANALYSIS *
                    ********************************

-----------------------
MULLIKEN ATOMIC CHARGES
-----------------------
   0 O :   -0.759230
   1 H :    0.332406
   2 H :    0.387064
   3 O :   -0.724366
   4 H :    0.363490
   5 H :    0.378524
   6 O :   -0.761285
   7 H :    0.345397
   8 H :    0.399294
   9 O :   -0.734648
  10 H :    0.334859
  11 H :    0.380270
  12 O :   -0.710046
  13 H :    0.371291
  14 H :    0.374619
  15 O :   -0.725327
  16 H :    0.356564
  17 H :    0.391125
Sum of atomic charges:   -0.0000000

--------------------------------
MULLIKEN REDUCED ORBITAL CHARGES
--------------------------------
  0 O s       :     3.803254  s :     3.803254
      pz      :     1.709857  p :     4.901108
      px      :     1.401032
      py      :     1.790220
      dz2     :     0.009508  d :     0.050838
      dxz     :     0.010060
      dyz     :     0.010951
      dx2y2   :     0.007821
      dxy     :     0.012499
      f0      :     0.000455  f :     0.004030
      f+1     :     0.000692
      f-1     :     0.000545
      f+2     :     0.000437
      f-2     :     0.000723
      f+3     :     0.000461
      f-3     :     0.000715
  1 H s       :     0.619894  s :     0.619894
      pz      :     0.017616  p :     0.047700
      px      :     0.014275
      py      :     0.015809
  2 H s       :     0.554154  s :     0.554154
      pz      :     0.011623  p :     0.058782
      px      :     0.032356
      py      :     0.014804
  3 O s       :     3.804319  s :     3.804319
      pz      :     1.726753  p :     4.864652
      px      :     1.369557
      py      :     1.768342
      dz2     :     0.009782  d :     0.051340
      dxz     :     0.010270
      dyz     :     0.010933
      dx2y2   :     0.008023
      dxy     :     0.012330
      f0      :     0.000462  f :     0.004056
      f+1     :     0.000712
      f-1     :     0.000548
      f+2     :     0.000429
      f-2     :     0.000719
      f+3     :     0.000461
      f-3     :     0.000725
  4 H s       :     0.589676  s :     0.589676
      pz      :     0.017791  p :     0.046834
      px      :     0.013678
      py      :     0.015365
  5 H s       :     0.578804  s :     0.578804
      pz      :     0.011775  p :     0.042673
      px      :     0.018064
      py      :     0.012833
  6 O s       :     3.802158  s :     3.802158
      pz      :     1.720896  p :     4.904545
      px      :     1.768730
      py      :     1.414919
      dz2     :     0.009577  d :     0.050571
      dxz     :     0.010765
      dyz     :     0.010247
      dx2y2   :     0.007946
      dxy     :     0.012036
      f0      :     0.000459  f :     0.004010
      f+1     :     0.000541
      f-1     :     0.000700
      f+2     :     0.000432
      f-2     :     0.000721
      f+3     :     0.000699
      f-3     :     0.000458
  7 H s       :     0.607216  s :     0.607216
      pz      :     0.017690  p :     0.047387
      px      :     0.015573
      py      :     0.014124
  8 H s       :     0.542837  s :     0.542837
      pz      :     0.011524  p :     0.057868
      px      :     0.014032
      py      :     0.032312
  9 O s       :     3.804723  s :     3.804723
      pz      :     1.484961  p :     4.874054
      px      :     1.575073
      py      :     1.814020
      dz2     :     0.016954  d :     0.051830
      dxz     :     0.006642
      dyz     :     0.008325
      dx2y2   :     0.007541
      dxy     :     0.012368
      f0      :     0.000648  f :     0.004041
      f+1     :     0.000746
      f-1     :     0.000538
      f+2     :     0.000415
      f-2     :     0.000421
      f+3     :     0.000433
      f-3     :     0.000840
 10 H s       :     0.618737  s :     0.618737
      pz      :     0.018839  p :     0.046405
      px      :     0.012971
      py      :     0.014594
 11 H s       :     0.567996  s :     0.567996
      pz      :     0.010446  p :     0.051734
      px      :     0.024386
      py      :     0.016902
 12 O s       :     3.795807  s :     3.795807
      pz      :     1.522343  p :     4.857282
      px      :     1.555292
      py      :     1.779646
      dz2     :     0.017639  d :     0.052925
      dxz     :     0.006609
      dyz     :     0.008018
      dx2y2   :     0.008085
      dxy     :     0.012575
      f0      :     0.000629  f :     0.004032
      f+1     :     0.000760
      f-1     :     0.000539
      f+2     :     0.000413
      f-2     :     0.000422
      f+3     :     0.000428
      f-3     :     0.000841
 13 H s       :     0.583652  s :     0.583652
      pz      :     0.019615  p :     0.045056
      px      :     0.012222
      py      :     0.013219
 14 H s       :     0.580701  s :     0.580701
      pz      :     0.010822  p :     0.044680
      px      :     0.018759
      py      :     0.015099
 15 O s       :     3.790496  s :     3.790496
      pz      :     1.509962  p :     4.878562
      px      :     1.781376
      py      :     1.587225
      dz2     :     0.017396  d :     0.052267
      dxz     :     0.007979
      dyz     :     0.006678
      dx2y2   :     0.008045
      dxy     :     0.012169
      f0      :     0.000633  f :     0.004002
      f+1     :     0.000534
      f-1     :     0.000756
      f+2     :     0.000415
      f-2     :     0.000424
      f+3     :     0.000812
      f-3     :     0.000427
 16 H s       :     0.598085  s :     0.598085
      pz      :     0.019290  p :     0.045351
      px      :     0.013604
      py      :     0.012457
 17 H s       :     0.558092  s :     0.558092
      pz      :     0.010290  p :     0.050783
      px      :     0.016085
      py      :     0.024408


                     *******************************
                     * LOEWDIN POPULATION ANALYSIS *
                     *******************************

----------------------
LOEWDIN ATOMIC CHARGES
----------------------
   0 O :   -0.374985
   1 H :    0.146946
   2 H :    0.147963
   3 O :   -0.314132
   4 H :    0.164180
   5 H :    0.191472
   6 O :   -0.342093
   7 H :    0.152862
   8 H :    0.152245
   9 O :   -0.351664
  10 H :    0.157785
  11 H :    0.152271
  12 O :   -0.275581
  13 H :    0.176249
  14 H :    0.177786
  15 O :   -0.288415
  16 H :    0.168623
  17 H :    0.158488

-------------------------------
LOEWDIN REDUCED ORBITAL CHARGES
-------------------------------
  0 O s       :     3.464448  s :     3.464448
      pz      :     1.695628  p :     4.848023
      px      :     1.384111
      py      :     1.768284
      dz2     :     0.009826  d :     0.057745
      dxz     :     0.012750
      dyz     :     0.011482
      dx2y2   :     0.008947
      dxy     :     0.014741
      f0      :     0.000451  f :     0.004769
      f+1     :     0.000852
      f-1     :     0.000647
      f+2     :     0.000410
      f-2     :     0.001040
      f+3     :     0.000472
      f-3     :     0.000898
  1 H s       :     0.685382  s :     0.685382
      pz      :     0.066849  p :     0.167672
      px      :     0.046583
      py      :     0.054240
  2 H s       :     0.654454  s :     0.654454
      pz      :     0.034441  p :     0.197583
      px      :     0.114489
      py      :     0.048653
  3 O s       :     3.463604  s :     3.463604
      pz      :     1.701797  p :     4.786458
      px      :     1.355243
      py      :     1.729418
      dz2     :     0.010510  d :     0.059260
      dxz     :     0.012582
      dyz     :     0.011129
      dx2y2   :     0.009864
      dxy     :     0.015174
      f0      :     0.000456  f :     0.004811
      f+1     :     0.000864
      f-1     :     0.000655
      f+2     :     0.000408
      f-2     :     0.001015
      f+3     :     0.000474
      f-3     :     0.000939
  4 H s       :     0.669405  s :     0.669405
      pz      :     0.067639  p :     0.166415
      px      :     0.045296
      py      :     0.053480
  5 H s       :     0.656930  s :     0.656930
      pz      :     0.034047  p :     0.151598
      px      :     0.073225
      py      :     0.044327
  6 O s       :     3.457957  s :     3.457957
      pz      :     1.699081  p :     4.821553
      px      :     1.733279
      py      :     1.389193
      dz2     :     0.010047  d :     0.057824
      dxz     :     0.011214
      dyz     :     0.012679
      dx2y2   :     0.009456
      dxy     :     0.014427
      f0      :     0.000454  f :     0.004759
      f+1     :     0.000649
      f-1     :     0.000855
      f+2     :     0.000410
      f-2     :     0.001030
      f+3     :     0.000887
      f-3     :     0.000474
  7 H s       :     0.679104  s :     0.679104
      pz      :     0.067145  p :     0.168034
      px      :     0.054053
      py      :     0.046836
  8 H s       :     0.650496  s :     0.650496
      pz      :     0.034399  p :     0.197259
      px      :     0.048338
      py      :     0.114522
  9 O s       :     3.463372  s :     3.463372
      pz      :     1.495859  p :     4.824419
      px      :     1.544087
      py      :     1.784473
      dz2     :     0.021914  d :     0.059012
      dxz     :     0.007546
      dyz     :     0.007756
      dx2y2   :     0.007495
      dxy     :     0.014301
      f0      :     0.000919  f :     0.004861
      f+1     :     0.000998
      f-1     :     0.000709
      f+2     :     0.000389
      f-2     :     0.000423
      f+3     :     0.000377
      f-3     :     0.001047
 10 H s       :     0.680793  s :     0.680793
      pz      :     0.080936  p :     0.161422
      px      :     0.037257
      py      :     0.043228
 11 H s       :     0.670170  s :     0.670170
      pz      :     0.030127  p :     0.177559
      px      :     0.088356
      py      :     0.059076
 12 O s       :     3.454773  s :     3.454773
      pz      :     1.511234  p :     4.754637
      px      :     1.526694
      py      :     1.716709
      dz2     :     0.022351  d :     0.061215
      dxz     :     0.007273
      dyz     :     0.007440
      dx2y2   :     0.009221
      dxy     :     0.014929
      f0      :     0.000872  f :     0.004957
      f+1     :     0.001003
      f-1     :     0.000745
      f+2     :     0.000389
      f-2     :     0.000422
      f+3     :     0.000407
      f-3     :     0.001120
 13 H s       :     0.662043  s :     0.662043
      pz      :     0.083104  p :     0.161708
      px      :     0.036355
      py      :     0.042250
 14 H s       :     0.661226  s :     0.661226
      pz      :     0.030403  p :     0.160988
      px      :     0.074593
      py      :     0.055992
 15 O s       :     3.450019  s :     3.450019
      pz      :     1.505570  p :     4.773374
      px      :     1.721729
      py      :     1.546075
      dz2     :     0.022089  d :     0.060111
      dxz     :     0.007449
      dyz     :     0.007451
      dx2y2   :     0.009031
      dxy     :     0.014091
      f0      :     0.000891  f :     0.004911
      f+1     :     0.000736
      f-1     :     0.000999
      f+2     :     0.000390
      f-2     :     0.000426
      f+3     :     0.001061
      f-3     :     0.000409
 16 H s       :     0.669194  s :     0.669194
      pz      :     0.081984  p :     0.162183
      px      :     0.042810
      py      :     0.037389
 17 H s       :     0.664071  s :     0.664071
      pz      :     0.030194  p :     0.177441
      px      :     0.058992
      py      :     0.088256


                      *****************************
                      * MAYER POPULATION ANALYSIS *
                      *****************************

  NA   - Mulliken gross atomic population
  ZA   - Total nuclear charge
  QA   - Mulliken gross atomic charge
  VA   - Mayer's total valence
  BVA  - Mayer's bonded valence
  FA   - Mayer's free valence

  ATOM       NA         ZA         QA         VA         BVA        FA
  0 O      8.7592     8.0000    -0.7592     2.0032     1.6113     0.3919
  1 H      0.6676     1.0000     0.3324     0.9095     0.8617     0.0478
  2 H      0.6129     1.0000     0.3871     0.8931     0.8471     0.0461
  3 O      8.7244     8.0000    -0.7244     2.0718     1.6824     0.3894
  4 H      0.6365     1.0000     0.3635     0.8868     0.8419     0.0449
  5 H      0.6215     1.0000     0.3785     0.8750     0.8284     0.0466
  6 O      8.7613     8.0000    -0.7613     2.0155     1.6224     0.3931
  7 H      0.6546     1.0000     0.3454     0.9012     0.8543     0.0469
  8 H      0.6007     1.0000     0.3993     0.8767     0.8314     0.0454
  9 O      8.7346     8.0000    -0.7346     2.0410     1.6527     0.3883
 10 H      0.6651     1.0000     0.3349     0.9058     0.8575     0.0483
 11 H      0.6197     1.0000     0.3803     0.8963     0.8514     0.0450
 12 O      8.7100     8.0000    -0.7100     2.0765     1.6906     0.3858
 13 H      0.6287     1.0000     0.3713     0.8794     0.8343     0.0451
 14 H      0.6254     1.0000     0.3746     0.8810     0.8358     0.0453
 15 O      8.7253     8.0000    -0.7253     2.0553     1.6679     0.3874
 16 H      0.6434     1.0000     0.3566     0.8900     0.8435     0.0466
 17 H      0.6089     1.0000     0.3911     0.8835     0.8395     0.0440

  Mayer bond orders larger than 0.100000
B(  0-O ,  1-H ) :   0.8567 B(  0-O ,  2-H ) :   0.7748 B(  3-O ,  4-H ) :   0.8352 
B(  3-O ,  5-H ) :   0.8182 B(  6-O ,  7-H ) :   0.8467 B(  6-O ,  8-H ) :   0.7653 
B(  9-O , 10-H ) :   0.8544 B(  9-O , 11-H ) :   0.8015 B( 12-O , 13-H ) :   0.8290 
B( 12-O , 14-H ) :   0.8243 B( 15-O , 16-H ) :   0.8392 B( 15-O , 17-H ) :   0.7944 



                *******************************************
                * RELAXED MP2 DENSITY POPULATION ANALYSIS *
                *******************************************

------------------------------------------------------------------------------
                           ORCA POPULATION ANALYSIS
------------------------------------------------------------------------------
Input electron density              ... 12h2o.su.etal.mol0,1,2,3,8,11-orca.engrad-mp2.def2tzvp.frozencore.pmp2re
BaseName (.gbw .S,...)              ... 12h2o.su.etal.mol0,1,2,3,8,11-orca.engrad-mp2.def2tzvp.frozencore

                    ********************************
                    * MULLIKEN POPULATION ANALYSIS *
                    ********************************

-----------------------
MULLIKEN ATOMIC CHARGES
-----------------------
   0 O :   -0.740403
   1 H :    0.326371
   2 H :    0.363960
   3 O :   -0.704259
   4 H :    0.357161
   5 H :    0.371458
   6 O :   -0.736056
   7 H :    0.339021
   8 H :    0.378301
   9 O :   -0.717029
  10 H :    0.328916
  11 H :    0.361650
  12 O :   -0.687728
  13 H :    0.365507
  14 H :    0.367065
  15 O :   -0.699107
  16 H :    0.351086
  17 H :    0.374085
Sum of atomic charges:   -0.0000000

--------------------------------
MULLIKEN REDUCED ORBITAL CHARGES
--------------------------------
  0 O s       :     3.803558  s :     3.803558
      pz      :     1.705100  p :     4.883935
      px      :     1.394687
      py      :     1.784148
      dz2     :     0.009304  d :     0.048946
      dxz     :     0.009497
      dyz     :     0.010648
      dx2y2   :     0.007696
      dxy     :     0.011801
      f0      :     0.000453  f :     0.003965
      f+1     :     0.000676
      f-1     :     0.000537
      f+2     :     0.000437
      f-2     :     0.000704
      f+3     :     0.000459
      f-3     :     0.000698
  1 H s       :     0.625153  s :     0.625153
      pz      :     0.017771  p :     0.048477
      px      :     0.014270
      py      :     0.016435
  2 H s       :     0.577021  s :     0.577021
      pz      :     0.012375  p :     0.059020
      px      :     0.031286
      py      :     0.015359
  3 O s       :     3.807416  s :     3.807416
      pz      :     1.721807  p :     4.843700
      px      :     1.366643
      py      :     1.755251
      dz2     :     0.009509  d :     0.049160
      dxz     :     0.009694
      dyz     :     0.010678
      dx2y2   :     0.007740
      dxy     :     0.011538
      f0      :     0.000460  f :     0.003982
      f+1     :     0.000694
      f-1     :     0.000540
      f+2     :     0.000428
      f-2     :     0.000698
      f+3     :     0.000459
      f-3     :     0.000703
  4 H s       :     0.595342  s :     0.595342
      pz      :     0.017921  p :     0.047498
      px      :     0.013592
      py      :     0.015986
  5 H s       :     0.585357  s :     0.585357
      pz      :     0.012592  p :     0.043185
      px      :     0.017095
      py      :     0.013497
  6 O s       :     3.803286  s :     3.803286
      pz      :     1.716424  p :     4.880065
      px      :     1.754177
      py      :     1.409464
      dz2     :     0.009387  d :     0.048761
      dxz     :     0.010480
      dyz     :     0.009688
      dx2y2   :     0.007814
      dxy     :     0.011393
      f0      :     0.000457  f :     0.003944
      f+1     :     0.000533
      f-1     :     0.000683
      f+2     :     0.000432
      f-2     :     0.000702
      f+3     :     0.000681
      f-3     :     0.000457
  7 H s       :     0.612813  s :     0.612813
      pz      :     0.017831  p :     0.048166
      px      :     0.016229
      py      :     0.014107
  8 H s       :     0.563593  s :     0.563593
      pz      :     0.012255  p :     0.058106
      px      :     0.014523
      py      :     0.031328
  9 O s       :     3.805563  s :     3.805563
      pz      :     1.477887  p :     4.857771
      px      :     1.573120
      py      :     1.806763
      dz2     :     0.015618  d :     0.049726
      dxz     :     0.006574
      dyz     :     0.008278
      dx2y2   :     0.007499
      dxy     :     0.011758
      f0      :     0.000631  f :     0.003969
      f+1     :     0.000725
      f-1     :     0.000528
      f+2     :     0.000416
      f-2     :     0.000419
      f+3     :     0.000433
      f-3     :     0.000817
 10 H s       :     0.623902  s :     0.623902
      pz      :     0.018096  p :     0.047182
      px      :     0.013554
      py      :     0.015533
 11 H s       :     0.586095  s :     0.586095
      pz      :     0.011065  p :     0.052255
      px      :     0.023844
      py      :     0.017345
 12 O s       :     3.797988  s :     3.797988
      pz      :     1.517658  p :     4.834950
      px      :     1.552264
      py      :     1.765028
      dz2     :     0.016321  d :     0.050834
      dxz     :     0.006553
      dyz     :     0.007999
      dx2y2   :     0.008043
      dxy     :     0.011918
      f0      :     0.000611  f :     0.003956
      f+1     :     0.000738
      f-1     :     0.000529
      f+2     :     0.000414
      f-2     :     0.000421
      f+3     :     0.000428
      f-3     :     0.000816
 13 H s       :     0.588880  s :     0.588880
      pz      :     0.018871  p :     0.045612
      px      :     0.012709
      py      :     0.014033
 14 H s       :     0.587712  s :     0.587712
      pz      :     0.011450  p :     0.045223
      px      :     0.018219
      py      :     0.015554
 15 O s       :     3.790267  s :     3.790267
      pz      :     1.504455  p :     4.854536
      px      :     1.763833
      py      :     1.586248
      dz2     :     0.016109  d :     0.050375
      dxz     :     0.007959
      dyz     :     0.006628
      dx2y2   :     0.008054
      dxy     :     0.011625
      f0      :     0.000615  f :     0.003929
      f+1     :     0.000525
      f-1     :     0.000735
      f+2     :     0.000416
      f-2     :     0.000422
      f+3     :     0.000789
      f-3     :     0.000427
 16 H s       :     0.602912  s :     0.602912
      pz      :     0.018538  p :     0.046002
      px      :     0.014484
      py      :     0.012981
 17 H s       :     0.574692  s :     0.574692
      pz      :     0.010882  p :     0.051223
      px      :     0.016421
      py      :     0.023920


                     *******************************
                     * LOEWDIN POPULATION ANALYSIS *
                     *******************************

----------------------
LOEWDIN ATOMIC CHARGES
----------------------
   0 O :   -0.377337
   1 H :    0.148742
   2 H :    0.140481
   3 O :   -0.311497
   4 H :    0.166021
   5 H :    0.192707
   6 O :   -0.338960
   7 H :    0.154730
   8 H :    0.145142
   9 O :   -0.353645
  10 H :    0.159598
  11 H :    0.146910
  12 O :   -0.270610
  13 H :    0.177965
  14 H :    0.178668
  15 O :   -0.282913
  16 H :    0.170411
  17 H :    0.153588

-------------------------------
LOEWDIN REDUCED ORBITAL CHARGES
-------------------------------
  0 O s       :     3.466032  s :     3.466032
      pz      :     1.695311  p :     4.849550
      px      :     1.387727
      py      :     1.766512
      dz2     :     0.009773  d :     0.056948
      dxz     :     0.012383
      dyz     :     0.011390
      dx2y2   :     0.008929
      dxy     :     0.014472
      f0      :     0.000453  f :     0.004806
      f+1     :     0.000864
      f-1     :     0.000647
      f+2     :     0.000411
      f-2     :     0.001040
      f+3     :     0.000476
      f-3     :     0.000914
  1 H s       :     0.683321  s :     0.683321
      pz      :     0.066935  p :     0.167937
      px      :     0.046194
      py      :     0.054808
  2 H s       :     0.661673  s :     0.661673
      pz      :     0.035138  p :     0.197847
      px      :     0.113455
      py      :     0.049253
  3 O s       :     3.465119  s :     3.465119
      pz      :     1.701075  p :     4.783483
      px      :     1.360421
      py      :     1.721987
      dz2     :     0.010352  d :     0.058067
      dxz     :     0.012206
      dyz     :     0.011095
      dx2y2   :     0.009648
      dxy     :     0.014766
      f0      :     0.000458  f :     0.004828
      f+1     :     0.000870
      f-1     :     0.000655
      f+2     :     0.000408
      f-2     :     0.001016
      f+3     :     0.000477
      f-3     :     0.000944
  4 H s       :     0.667826  s :     0.667826
      pz      :     0.067692  p :     0.166153
      px      :     0.044564
      py      :     0.053896
  5 H s       :     0.655858  s :     0.655858
      pz      :     0.034772  p :     0.151435
      px      :     0.071742
      py      :     0.044921
  6 O s       :     3.459401  s :     3.459401
      pz      :     1.698731  p :     4.817571
      px      :     1.725705
      py      :     1.393135
      dz2     :     0.010021  d :     0.057192
      dxz     :     0.011152
      dyz     :     0.012325
      dx2y2   :     0.009471
      dxy     :     0.014223
      f0      :     0.000457  f :     0.004796
      f+1     :     0.000650
      f-1     :     0.000866
      f+2     :     0.000410
      f-2     :     0.001032
      f+3     :     0.000903
      f-3     :     0.000479
  7 H s       :     0.677165  s :     0.677165
      pz      :     0.067191  p :     0.168105
      px      :     0.054464
      py      :     0.046450
  8 H s       :     0.657375  s :     0.657375
      pz      :     0.035086  p :     0.197484
      px      :     0.048785
      py      :     0.113613
  9 O s       :     3.464783  s :     3.464783
      pz      :     1.497668  p :     4.826073
      px      :     1.546224
      py      :     1.782181
      dz2     :     0.021194  d :     0.057906
      dxz     :     0.007400
      dyz     :     0.007766
      dx2y2   :     0.007469
      dxy     :     0.014078
      f0      :     0.000919  f :     0.004883
      f+1     :     0.001007
      f-1     :     0.000707
      f+2     :     0.000390
      f-2     :     0.000422
      f+3     :     0.000377
      f-3     :     0.001059
 10 H s       :     0.678723  s :     0.678723
      pz      :     0.080153  p :     0.161679
      px      :     0.037504
      py      :     0.044021
 11 H s       :     0.675004  s :     0.675004
      pz      :     0.030462  p :     0.178086
      px      :     0.087982
      py      :     0.059642
 12 O s       :     3.456089  s :     3.456089
      pz      :     1.513371  p :     4.749346
      px      :     1.528848
      py      :     1.707127
      dz2     :     0.021663  d :     0.060201
      dxz     :     0.007139
      dyz     :     0.007475
      dx2y2   :     0.009279
      dxy     :     0.014644
      f0      :     0.000871  f :     0.004973
      f+1     :     0.001010
      f-1     :     0.000745
      f+2     :     0.000390
      f-2     :     0.000421
      f+3     :     0.000409
      f-3     :     0.001127
 13 H s       :     0.660494  s :     0.660494
      pz      :     0.082140  p :     0.161541
      px      :     0.036504
      py      :     0.042898
 14 H s       :     0.660527  s :     0.660527
      pz      :     0.030690  p :     0.160805
      px      :     0.073746
      py      :     0.056369
 15 O s       :     3.450986  s :     3.450986
      pz      :     1.507747  p :     4.767649
      px      :     1.711805
      py      :     1.548098
      dz2     :     0.021455  d :     0.059343
      dxz     :     0.007481
      dyz     :     0.007320
      dx2y2   :     0.009139
      dxy     :     0.013949
      f0      :     0.000890  f :     0.004934
      f+1     :     0.000737
      f-1     :     0.001006
      f+2     :     0.000391
      f-2     :     0.000426
      f+3     :     0.001073
      f-3     :     0.000410
 16 H s       :     0.667349  s :     0.667349
      pz      :     0.081105  p :     0.162239
      px      :     0.043462
      py      :     0.037673
 17 H s       :     0.668520  s :     0.668520
      pz      :     0.030547  p :     0.177892
      px      :     0.059433
      py      :     0.087912


                      *****************************
                      * MAYER POPULATION ANALYSIS *
                      *****************************

  NA   - Mulliken gross atomic population
  ZA   - Total nuclear charge
  QA   - Mulliken gross atomic charge
  VA   - Mayer's total valence
  BVA  - Mayer's bonded valence
  FA   - Mayer's free valence

  ATOM       NA         ZA         QA         VA         BVA        FA
  0 O      8.7404     8.0000    -0.7404     2.0098     1.6226     0.3872
  1 H      0.6736     1.0000     0.3264     0.9131     0.8652     0.0479
  2 H      0.6360     1.0000     0.3640     0.9219     0.8766     0.0453
  3 O      8.7043     8.0000    -0.7043     2.0957     1.7119     0.3838
  4 H      0.6428     1.0000     0.3572     0.8915     0.8466     0.0450
  5 H      0.6285     1.0000     0.3715     0.8819     0.8353     0.0466
  6 O      8.7361     8.0000    -0.7361     2.0415     1.6540     0.3875
  7 H      0.6610     1.0000     0.3390     0.9055     0.8586     0.0470
  8 H      0.6217     1.0000     0.3783     0.9019     0.8572     0.0447
  9 O      8.7170     8.0000    -0.7170     2.0500     1.6666     0.3834
 10 H      0.6711     1.0000     0.3289     0.9095     0.8610     0.0484
 11 H      0.6383     1.0000     0.3617     0.9227     0.8784     0.0443
 12 O      8.6877     8.0000    -0.6877     2.1046     1.7244     0.3802
 13 H      0.6345     1.0000     0.3655     0.8836     0.8384     0.0452
 14 H      0.6329     1.0000     0.3671     0.8889     0.8438     0.0451
 15 O      8.6991     8.0000    -0.6991     2.0877     1.7060     0.3817
 16 H      0.6489     1.0000     0.3511     0.8934     0.8468     0.0467
 17 H      0.6259     1.0000     0.3741     0.9071     0.8637     0.0434

  Mayer bond orders larger than 0.100000
B(  0-O ,  1-H ) :   0.8600 B(  0-O ,  2-H ) :   0.7771 B(  3-O ,  4-H ) :   0.8390 
B(  3-O ,  5-H ) :   0.8219 B(  6-O ,  7-H ) :   0.8497 B(  6-O ,  8-H ) :   0.7664 
B(  9-O , 10-H ) :   0.8580 B(  9-O , 11-H ) :   0.8051 B( 12-O , 13-H ) :   0.8325 
B( 12-O , 14-H ) :   0.8278 B( 15-O , 16-H ) :   0.8421 B( 15-O , 17-H ) :   0.7972 



----------------------------------
MP2 DERIVATIVE INTEGRAL GENERATION
----------------------------------


Input Wavefunction Amplitudes       ... 12h2o.su.etal.mol0,1,2,3,8,11-orca.engrad-mp2.def2tzvp.frozencore.mp2tsaa.tmp
Input Correlated Electron Density   ... 12h2o.su.etal.mol0,1,2,3,8,11-orca.engrad-mp2.def2tzvp.frozencore.pmp2re
Input Energy Weighted Density       ... 12h2o.su.etal.mol0,1,2,3,8,11-orca.engrad-mp2.def2tzvp.frozencore.wmp2.tmp
Input SCF Electron Density          ... 12h2o.su.etal.mol0,1,2,3,8,11-orca.engrad-mp2.def2tzvp.frozencore.scfp

One-Electron Terms    ...
                        ... One-Electron Terms done
Prescreening matrices              ... done

Batch handling in the gradient evaluation:
Memory available                      ... 8000.0 MB
Memory per occupied orbital in Q2     ...   12.2 MB
Memory per occupied orbital in Q3     ...    0.1 MB
Total memory requirement per |i>      ...   12.3 MB
Max. Number of orbitals possible      ...    651
Number of orbitals treated per batch  ...     24
Number of batches to be done          ...      1
Batch   0: i=    6 ...    29

---------------------------------------
MP2 TOTAL ENERGY:     -457.918755844 Eh
---------------------------------------

The final MP2 gradient
  0:   0.00923732  -0.00227120   0.00053338
  1:   0.00187803  -0.00016580   0.00035059
  2:  -0.01695470   0.00475614  -0.00138400
  3:  -0.02751958   0.00431010  -0.00105092
  4:  -0.00089221   0.00234759  -0.00148040
  5:   0.02616440  -0.00782546   0.00186586
  6:  -0.00079529  -0.00909073   0.00110579
  7:  -0.00055367  -0.00066494   0.00000070
  8:   0.00357962   0.01574692   0.00076922
  9:   0.00096681   0.00031843  -0.00885415
 10:  -0.00305691  -0.00097095   0.00978893
 11:   0.00024955   0.00048437  -0.00196580
 12:   0.00529778  -0.01035147  -0.00864883
 13:   0.00003734   0.00033269   0.00606032
 14:  -0.00586008   0.00438070   0.00106632
 15:   0.00662276  -0.00283416   0.00907113
 16:   0.00009498   0.00112811  -0.00823464
 17:   0.00150386   0.00036966   0.00100649

-----------------------------------
NORM OF THE MP2 GRADIENT:  0.054642
-----------------------------------

-------------------------   --------------------
FINAL SINGLE POINT ENERGY      -457.918755843514
-------------------------   --------------------


                            ***************************************
                            *     ORCA property calculations      *
                            ***************************************

                                    ---------------------
                                    Active property flags
                                    ---------------------
   (+) Dipole Moment


------------------------------------------------------------------------------
                       ORCA ELECTRIC PROPERTIES CALCULATION
------------------------------------------------------------------------------

Dipole Moment Calculation                       ... on
Quadrupole Moment Calculation                   ... off
Polarizability Calculation                      ... off
GBWName                                         ... 12h2o.su.etal.mol0,1,2,3,8,11-orca.engrad-mp2.def2tzvp.frozencore.gbw
Electron density file                           ... 12h2o.su.etal.mol0,1,2,3,8,11-orca.engrad-mp2.def2tzvp.frozencore.scfp
The origin for moment calculation is the CENTER OF MASS  = ( 0.059687, -0.016426 -0.012373)

-------------
DIPOLE MOMENT
-------------
                                X             Y             Z
Electronic contribution:     -0.11621       0.12823      -0.15890
Nuclear contribution   :      0.11349      -0.14599       1.31870
                        -----------------------------------------
Total Dipole Moment    :     -0.00272      -0.01776       1.15980
                        -----------------------------------------
Magnitude (a.u.)       :      1.15994
Magnitude (Debye)      :      2.94834



--------------------
Rotational spectrum 
--------------------
 
Rotational constants in cm-1:     0.045552     0.016667     0.014048 
Rotational constants in MHz :  1365.620174   499.672194   421.141638 

 Dipole components along the rotational axes: 
x,y,z [a.u.] :     1.119998     0.009058     0.301643 
x,y,z [Debye]:     2.846808     0.023024     0.766715 

 

                         *** MP2 UNRELAXED DENSITY ***

------------------------------------------------------------------------------
                       ORCA ELECTRIC PROPERTIES CALCULATION
------------------------------------------------------------------------------

Dipole Moment Calculation                       ... on
Quadrupole Moment Calculation                   ... off
Polarizability Calculation                      ... off
GBWName                                         ... 12h2o.su.etal.mol0,1,2,3,8,11-orca.engrad-mp2.def2tzvp.frozencore.gbw
Electron density file                           ... 12h2o.su.etal.mol0,1,2,3,8,11-orca.engrad-mp2.def2tzvp.frozencore.pmp2ur
The origin for moment calculation is the CENTER OF MASS  = ( 0.059687, -0.016426 -0.012373)

-------------
DIPOLE MOMENT
-------------
                                X             Y             Z
Electronic contribution:     -0.11833       0.13017      -0.17136
Nuclear contribution   :      0.11349      -0.14599       1.31870
                        -----------------------------------------
Total Dipole Moment    :     -0.00484      -0.01581       1.14734
                        -----------------------------------------
Magnitude (a.u.)       :      1.14746
Magnitude (Debye)      :      2.91661



--------------------
Rotational spectrum 
--------------------
 
Rotational constants in cm-1:     0.045552     0.016667     0.014048 
Rotational constants in MHz :  1365.620174   499.672194   421.141638 

 Dipole components along the rotational axes: 
x,y,z [a.u.] :     1.108591     0.010110     0.295954 
x,y,z [Debye]:     2.817815     0.025698     0.752256 

 

                           *** MP2 RELAXED DENSITY ***

------------------------------------------------------------------------------
                       ORCA ELECTRIC PROPERTIES CALCULATION
------------------------------------------------------------------------------

Dipole Moment Calculation                       ... on
Quadrupole Moment Calculation                   ... off
Polarizability Calculation                      ... off
GBWName                                         ... 12h2o.su.etal.mol0,1,2,3,8,11-orca.engrad-mp2.def2tzvp.frozencore.gbw
Electron density file                           ... 12h2o.su.etal.mol0,1,2,3,8,11-orca.engrad-mp2.def2tzvp.frozencore.pmp2re
The origin for moment calculation is the CENTER OF MASS  = ( 0.059687, -0.016426 -0.012373)

-------------
DIPOLE MOMENT
-------------
                                X             Y             Z
Electronic contribution:     -0.11942       0.13150      -0.18291
Nuclear contribution   :      0.11349      -0.14599       1.31870
                        -----------------------------------------
Total Dipole Moment    :     -0.00592      -0.01449       1.13579
                        -----------------------------------------
Magnitude (a.u.)       :      1.13590
Magnitude (Debye)      :      2.88722



--------------------
Rotational spectrum 
--------------------
 
Rotational constants in cm-1:     0.045552     0.016667     0.014048 
Rotational constants in MHz :  1365.620174   499.672194   421.141638 

 Dipole components along the rotational axes: 
x,y,z [a.u.] :     1.097812     0.010500     0.291476 
x,y,z [Debye]:     2.790417     0.026690     0.740873 

 

Timings for individual modules:

Sum of individual times         ...       46.045 sec (=   0.767 min)
GTO integral calculation        ...        0.960 sec (=   0.016 min)   2.1 %
SCF iterations                  ...       12.882 sec (=   0.215 min)  28.0 %
MP2 module                      ...       32.203 sec (=   0.537 min)  69.9 %
                             ****ORCA TERMINATED NORMALLY****
TOTAL RUN TIME: 0 days 0 hours 0 minutes 46 seconds 897 msec
