11
Energy:   -202.46372492
O   -1.65821687   0.84691247  -0.86789118
H   -1.64088454   0.39513949  -0.02418945
H   -0.77050321   0.74722414  -1.21177859
O    1.12011733   0.72977674  -1.35461240
H    1.14204375   1.24079003  -0.54552865
H    1.01156888  -0.17566748  -1.06371748
S    0.24584121  -1.04795580   1.41708571
O   -1.15230001  -0.53592956   1.47303436
O    0.52334297  -1.58677875   0.05592348
O    1.19372438   0.06254631   1.71441144
O    0.41859752  -2.13166119   2.42497355
