11
Energy:   -203.03178562
O   -1.35336339  -1.56071767   1.08314726
H   -1.41248532  -0.68102029   1.45579851
H   -0.47883481  -1.59902870   0.69589556
O   -0.50943771   0.66332369  -2.23719034
H    0.13555891   1.17353188  -1.74739567
H   -0.53057005  -0.18512303  -1.79455794
S    1.16553788   0.60440382   0.71617057
O    1.29023960   1.58436632  -0.39927687
O   -0.06514201   0.90053876   1.50219289
O    1.07883332  -0.77455603   0.15845015
O    2.35822063   0.70726622   1.60331611
