11
Energy:   -202.47692616
O    1.25667258   1.12176920   0.62330826
H    0.85647689   0.64346724   1.34946423
H    1.26243818   0.49668751  -0.10158586
O   -1.37064265   1.61721344  -0.25929673
H   -0.46676399   1.67225309   0.05087396
H   -1.52495658   0.68080790  -0.38405140
S    0.01105683  -1.74342183  -0.33332420
O    0.99484293  -0.94059925  -1.11290153
O   -0.05520044  -3.12412456  -0.88953454
O    0.43744172  -1.80254530   1.09314008
O   -1.33285692  -1.10641820  -0.42400082
