
                                 *****************
                                 * O   R   C   A *
                                 *****************

           --- An Ab Initio, DFT and Semiempirical electronic structure package ---

                  #######################################################
                  #                        -***-                        #
                  #  Department of molecular theory and spectroscopy    #
                  #              Directorship: Frank Neese              #
                  # Max Planck Institute for Chemical Energy Conversion #
                  #                  D-45470 Muelheim/Ruhr              #
                  #                       Germany                       #
                  #                                                     #
                  #                  All rights reserved                #
                  #                        -***-                        #
                  #######################################################


                         Program Version 3.0.3 - RELEASE   -


 With contributions from (in alphabetic order):
   Ute Becker             : Parallelization
   Dmytro Bykov           : SCF Hessian
   Dmitry Ganyushin       : Spin-Orbit,Spin-Spin,Magnetic field MRCI
   Andreas Hansen         : Spin unrestricted coupled pair/coupled cluster methods
   Dimitrios Liakos       : Extrapolation schemes; parallel MDCI
   Robert Izsak           : Overlap fitted RIJCOSX, COSX-SCS-MP3
   Christian Kollmar      : KDIIS, OOCD, Brueckner-CCSD(T), CCSD density
   Simone Kossmann        : Meta GGA functionals, TD-DFT gradient, OOMP2, MP2 Hessian
   Taras Petrenko         : DFT Hessian,TD-DFT gradient, ASA and ECA modules, normal mode analysis, Resonance Raman, ABS, FL, XAS/XES, NRVS
   Christoph Reimann      : Effective Core Potentials
   Michael Roemelt        : Restricted open shell CIS
   Christoph Riplinger    : Improved optimizer, TS searches, QM/MM, DLPNO-CCSD
   Barbara Sandhoefer     : DKH picture change effects
   Igor Schapiro          : Molecular dynamics
   Kantharuban Sivalingam : CASSCF convergence, NEVPT2
   Boris Wezisla          : Elementary symmetry handling
   Frank Wennmohs         : Technical directorship


 We gratefully acknowledge several colleagues who have allowed us to
 interface, adapt or use parts of their codes:
   Stefan Grimme, W. Hujo, H. Kruse, T. Risthaus : VdW corrections, initial TS optimization,
                                                   DFT functionals, gCP
   Ed Valeev                                     : LibInt (2-el integral package), F12 methods
   Garnet Chan, S. Sharma, R. Olivares           : DMRG
   Ulf Ekstrom                                   : XCFun DFT Library
   Mihaly Kallay                                 : mrcc  (arbitrary order and MRCC methods)
   Andreas Klamt, Michael Diedenhofen            : otool_cosmo (COSMO solvation model)
   Frank Weinhold                                : gennbo (NPA and NBO analysis)
   Christopher J. Cramer and Donald G. Truhlar   : smd solvation model


 Your calculation uses the libint2 library for the computation of 2-el integrals
 For citations please refer to: http://libint.valeyev.net

 This ORCA versions uses:
   CBLAS   interface :  Fast vector & matrix operations
   LAPACKE interface :  Fast linear algebra routines
   SCALAPACK package :  Parallel linear algebra routines


Your calculation utilizes the basis: ma-def2-TZVP
Cite in your paper:
        def2-TZVP: F. Weigend, R. Ahlrichs, Phys. Chem. Chem. Phys. 2005, 7, 3297.
        Minimal augmentation of diffuse functions: J. Zheng, X. Xu, D. G. Truhlar, Theor. Chem. Acc. 2011, 128, 295.

Your calculation utilizes the atom-pairwise dispersion correction
with the zero-damping scheme (D30)
Cite in your paper:
S.Grimme, J.Antony, S.Ehrlich and H.Krieg, J.Chem.Phys., 132, (2010), 154104 
   

XCFun DFT library Copyright 2009-2010 Ulf Ekstrom and contributors.
See http://admol.org/xcfun for more information. This is free soft-
ware; see the source code for copying conditions. There is ABSOLUTELY
NO WARRANTY; not even for MERCHANTABILITY or FITNESS FOR A PARTICULAR
PURPOSE. For details see the documentation. Scientific users of this 
library should cite U. Ekstrom, L. Visscher, R. Bast, A. J. Thorvald-
sen and K. Ruud; J.Chem.Theor.Comp. 2010, DOI: 10.1021/ct100117s
XCFun Version 0.99 
================================================================================
                                        WARNINGS
                       Please study these warnings very carefully!
================================================================================
Now building the actual basis set


INFO   : the flag for use of LIBINT has been found!

================================================================================
                                       INPUT FILE
================================================================================
NAME = 1_wb98x-ma-def2-TZVP-GasPhase_onB3LYP_8_waters.inp
|  1> ! wB97X-D3 MA-Def2-TZVP def2-TZVP/J RIJCOSX TightSCF Grid4 
|  2> 
|  3> %pal nprocs 1 end
|  4> 
|  5> %scf
|  6>         maxiter 400
|  7> end
|  8> 
|  9> * xyz  0  1
| 10> O  -0.170086	2.277273	-0.324506
| 11> H  0.136181	1.787329	-1.119694
| 12> H  0.495244	2.050991	0.363862
| 13> O  0.256198	-2.256047	0.368243
| 14> H  1.076304	-1.734748	0.072293
| 15> H  0.542941	-3.173011	0.472868
| 16> O  -1.467793	-1.160320	-1.475387
| 17> H  -1.932809	-0.540442	-0.870544
| 18> H  -0.968401	-1.740647	-0.858057
| 19> O  1.439735	1.078939	1.531782
| 20> H  1.904722	1.429727	2.302249
| 21> H  0.672298	0.512736	1.886776
| 22> O  -0.568827	-0.400981	2.177859
| 23> H  -1.309872	-0.005877	1.665614
| 24> H  -0.349072	-1.219406	1.677607
| 25> O  -2.183540	0.785823	0.336875
| 26> H  -3.002618	1.289707	0.432287
| 27> H  -1.462746	1.451914	0.077717
| 28> O  2.210882	-0.714509	-0.395744
| 29> H  2.147308	-0.026094	0.304082
| 30> H  1.776984	-0.295948	-1.172895
| 31> O  0.493792	0.380696	-2.228773
| 32> H  0.553168	0.454884	-3.190065
| 33> H  -0.289993	-0.231990	-2.034452
| 34> **                         ****END OF INPUT****
================================================================================

                       ****************************
                       * Single Point Calculation *
                       ****************************

---------------------------------
CARTESIAN COORDINATES (ANGSTROEM)
---------------------------------
  O     -0.170086    2.277273   -0.324506
  H      0.136181    1.787329   -1.119694
  H      0.495244    2.050991    0.363862
  O      0.256198   -2.256047    0.368243
  H      1.076304   -1.734748    0.072293
  H      0.542941   -3.173011    0.472868
  O     -1.467793   -1.160320   -1.475387
  H     -1.932809   -0.540442   -0.870544
  H     -0.968401   -1.740647   -0.858057
  O      1.439735    1.078939    1.531782
  H      1.904722    1.429727    2.302249
  H      0.672298    0.512736    1.886776
  O     -0.568827   -0.400981    2.177859
  H     -1.309872   -0.005877    1.665614
  H     -0.349072   -1.219406    1.677607
  O     -2.183540    0.785823    0.336875
  H     -3.002618    1.289707    0.432287
  H     -1.462746    1.451914    0.077717
  O      2.210882   -0.714509   -0.395744
  H      2.147308   -0.026094    0.304082
  H      1.776984   -0.295948   -1.172895
  O      0.493792    0.380696   -2.228773
  H      0.553168    0.454884   -3.190065
  H     -0.289993   -0.231990   -2.034452

----------------------------
CARTESIAN COORDINATES (A.U.)
----------------------------
  NO LB      ZA    FRAG    MASS        X           Y           Z
   0 O     8.0000    0    15.999         -0.321415959214130          4.303422302173251         -0.613227468814250
   1 H     1.0000    0     1.008          0.257344794643530          3.377562321215337         -2.115915013794822
   2 H     1.0000    0     1.008          0.935875529467696          3.875811293137282          0.687599530540855
   3 O     8.0000    0    15.999          0.484144056058357         -4.263310975254639          0.695878420733563
   4 H     1.0000    0     1.008          2.033919796843979         -3.278198631367623          0.136613971399569
   5 H     1.0000    0     1.008          1.026009796877338         -5.996121809919604          0.893591017495074
   6 O     8.0000    0    15.999         -2.773726791286676         -2.192687027711507         -2.788077371547674
   7 H     1.0000    0     1.008         -3.652479679178200         -1.021287371268669         -1.645089747528342
   8 H     1.0000    0     1.008         -1.830012677815474         -3.289346125831625         -1.621492737294067
   9 O     8.0000    0    15.999          2.720704855421113          2.038899225206861          2.894648476870163
  10 H     1.0000    0     1.008          3.599402941254755          2.701792476272829          4.350620102094068
  11 H     1.0000    0     1.008          1.270459100382989          0.968930619002247          3.565489916055403
  12 O     8.0000    0    15.999         -1.074927247580024         -0.757744274905877          4.115557068295604
  13 H     1.0000    0     1.008         -2.475299350491698         -0.011105920489055          3.147554304825111
  14 H     1.0000    0     1.008         -0.659650481020159         -2.304343386060378          3.170217790349229
  15 O     8.0000    0    15.999         -4.126292602462409          1.484990259736400          0.636601491364722
  16 H     1.0000    0     1.008         -5.674125704782361          2.437193023001176          0.816904041254416
  17 H     1.0000    0     1.008         -2.764189343488775          2.743719830006140          0.146863845949958
  18 O     8.0000    0    15.999          4.177961494416084         -1.350226330221939         -0.747847779142532
  19 H     1.0000    0     1.008          4.057824045178175         -0.049310513738541          0.574631702255042
  20 H     1.0000    0     1.008          3.358013104359921         -0.559260669881727         -2.216450333845566
  21 O     8.0000    0    15.999          0.933131647121243          0.719411180279285         -4.211770584678070
  22 H     1.0000    0     1.008          1.045336026048951          0.859606182702635         -6.028349199407498
  23 H     1.0000    0     1.008         -0.548007350754226         -0.438397565808391         -3.844557112608358

--------------------------------
INTERNAL COORDINATES (ANGSTROEM)
--------------------------------
 O      0   0   0   0.000000     0.000     0.000
 H      1   0   0   0.982939     0.000     0.000
 H      1   2   0   0.983727   103.928     0.000
 O      2   1   3   4.310133   101.361    56.616
 H      4   2   1   1.015831    55.978   245.136
 H      4   2   1   0.966432   159.346   211.938
 O      4   2   1   2.751678    51.516   110.672
 H      7   4   2   0.983018    97.772   293.412
 H      7   4   2   0.983498    13.183   178.715
 O      3   1   2   1.789130   159.852   293.475
 H     10   3   1   0.965859   125.278   203.407
 H     10   3   1   1.017628    97.579   320.063
 O     12  10   3   1.568439   170.279    48.878
 H     13  12  10   0.983692   105.396   307.316
 H     13  12  10   0.984055   102.325    55.519
 O     14  13  12   1.776410   159.887    38.748
 H     16  14  13   0.966381   125.126   204.354
 H     16  14  13   1.015078    97.712   320.891
 O      5   4   2   1.595999   170.895    11.170
 H     19   5   4   0.983724   101.115    54.273
 H     19   5   4   0.983577   100.961   307.845
 O     21  19   5   1.794243   160.212    34.574
 H     22  21  19   0.965977   124.794   203.515
 H     22  21  19   1.013639   102.253   323.894

---------------------------
INTERNAL COORDINATES (A.U.)
---------------------------
 O      0   0   0   0.000000     0.000     0.000
 H      1   0   0   1.857485     0.000     0.000
 H      1   2   0   1.858974   103.928     0.000
 O      2   1   3   8.144972   101.361    56.616
 H      4   2   1   1.919643    55.978   245.136
 H      4   2   1   1.826292   159.346   211.938
 O      4   2   1   5.199919    51.516   110.672
 H      7   4   2   1.857634    97.772   293.412
 H      7   4   2   1.858542    13.183   178.715
 O      3   1   2   3.380965   159.852   293.475
 H     10   3   1   1.825210   125.278   203.407
 H     10   3   1   1.923038    97.579   320.063
 O     12  10   3   2.963919   170.279    48.878
 H     13  12  10   1.858908   105.396   307.316
 H     13  12  10   1.859594   102.325    55.519
 O     14  13  12   3.356928   159.887    38.748
 H     16  14  13   1.826195   125.126   204.354
 H     16  14  13   1.918220    97.712   320.891
 O      5   4   2   3.016001   170.895    11.170
 H     19   5   4   1.858969   101.115    54.273
 H     19   5   4   1.858692   100.961   307.845
 O     21  19   5   3.390627   160.212    34.574
 H     22  21  19   1.825432   124.794   203.515
 H     22  21  19   1.915500   102.253   323.894

---------------------
BASIS SET INFORMATION
---------------------
There are 2 groups of distinct atoms

 Group   1 Type O   : 12s7p2d1f contracted to 6s4p2d1f pattern {621111/4111/11/1}
 Group   2 Type H   : 5s1p contracted to 3s1p pattern {311/1}

Atom   0O    basis set group =>   1
Atom   1H    basis set group =>   2
Atom   2H    basis set group =>   2
Atom   3O    basis set group =>   1
Atom   4H    basis set group =>   2
Atom   5H    basis set group =>   2
Atom   6O    basis set group =>   1
Atom   7H    basis set group =>   2
Atom   8H    basis set group =>   2
Atom   9O    basis set group =>   1
Atom  10H    basis set group =>   2
Atom  11H    basis set group =>   2
Atom  12O    basis set group =>   1
Atom  13H    basis set group =>   2
Atom  14H    basis set group =>   2
Atom  15O    basis set group =>   1
Atom  16H    basis set group =>   2
Atom  17H    basis set group =>   2
Atom  18O    basis set group =>   1
Atom  19H    basis set group =>   2
Atom  20H    basis set group =>   2
Atom  21O    basis set group =>   1
Atom  22H    basis set group =>   2
Atom  23H    basis set group =>   2
-------------------------------
AUXILIARY BASIS SET INFORMATION
-------------------------------
There are 2 groups of distinct atoms

 Group   1 Type O   : 12s5p4d2f1g contracted to 6s4p3d1f1g pattern {711111/2111/211/2/1}
 Group   2 Type H   : 5s2p1d contracted to 3s1p1d pattern {311/2/1}

Atom   0O    basis set group =>   1
Atom   1H    basis set group =>   2
Atom   2H    basis set group =>   2
Atom   3O    basis set group =>   1
Atom   4H    basis set group =>   2
Atom   5H    basis set group =>   2
Atom   6O    basis set group =>   1
Atom   7H    basis set group =>   2
Atom   8H    basis set group =>   2
Atom   9O    basis set group =>   1
Atom  10H    basis set group =>   2
Atom  11H    basis set group =>   2
Atom  12O    basis set group =>   1
Atom  13H    basis set group =>   2
Atom  14H    basis set group =>   2
Atom  15O    basis set group =>   1
Atom  16H    basis set group =>   2
Atom  17H    basis set group =>   2
Atom  18O    basis set group =>   1
Atom  19H    basis set group =>   2
Atom  20H    basis set group =>   2
Atom  21O    basis set group =>   1
Atom  22H    basis set group =>   2
Atom  23H    basis set group =>   2
------------------------------------------------------------------------------
                           ORCA GTO INTEGRAL CALCULATION
                           -- RI-GTO INTEGRALS CHOSEN --
------------------------------------------------------------------------------

                         BASIS SET STATISTICS AND STARTUP INFO

Gaussian basis set:
 # of primitive gaussian shells          ...  272
 # of primitive gaussian functions       ...  528
 # of contracted shells                  ...  168
 # of contracted basis functions         ...  376
 Highest angular momentum                ...    3
 Maximum contraction depth               ...    6
Auxiliary gaussian basis set:
 # of primitive gaussian shells          ...  320
 # of primitive gaussian functions       ...  816
 # of contracted shells                  ...  200
 # of contracted aux-basis functions     ...  568
 Highest angular momentum                ...    4
 Maximum contraction depth               ...    7
Ratio of auxiliary to basis functions    ...  1.51
Integral package used                  ... LIBINT
 One Electron integrals                  ... done
 Ordering auxiliary basis shells         ... done
 Integral threshhold             Thresh  ...  2.500e-11
 Primitive cut-off               TCut    ...  2.500e-12
 Pre-screening matrix                    ... done
 Shell pair data                         ... 
 Ordering of the shell pairs             ... done (   0.002 sec) 12507 of 14196 pairs
 Determination of significant pairs      ... done (   0.000 sec)
 Creation of shell pair data             ... done (   0.003 sec)
 Storage of shell pair data              ... done (   0.002 sec)
 Shell pair data done in (   0.007 sec)
 Computing two index integrals           ... done
 Cholesky decomposition of the V-matrix  ... done


Timings:
 Total evaluation time                   ...   0.332 sec (  0.006 min)
 One electron matrix time                ...   0.066 sec (  0.001 min) = 19.8%
 Schwartz matrix evaluation time         ...   0.198 sec (  0.003 min) = 59.6%
 Two index repulsion integral time       ...   0.008 sec (  0.000 min) =  2.5%
 Cholesky decomposition of V             ...   0.038 sec (  0.001 min) = 11.5%
 Three index repulsion integral time     ...   0.000 sec (  0.000 min) =  0.0%

-------------------------------------------------------------------------------
                                 ORCA SCF
-------------------------------------------------------------------------------

------------
SCF SETTINGS
------------
Hamiltonian:
 Density Functional     Method          .... DFT(GTOs)
 Exchange Functional    Exchange        .... WB97X-D3
 Correlation Functional Correlation     .... WB97X-D3
 Gradients option       PostSCFGGA      .... off
 Hybrid DFT is turned on
   Fraction HF Exchange ScalHFX         ....  0.195728
   Scaling of DF-GGA-X  ScalDFX         ....  0.000000
   Scaling of DF-GGA-C  ScalDFC         ....  1.000000
   Scaling of DF-LDA-C  ScalLDAC        ....  1.000000
   Perturbative correction              ....  0.000000
 Long-range corrected/Screened/Range-Separated Hybrid DFT is turned on
   Amount of maximum screened exact exchange              ....  0.804272
   Range separation parameter mu (erf(mu*r12)/r12)        ....  0.250000
 RI-approximation to the Coulomb term is turned on
   Number of auxiliary basis functions  .... 568
   RIJ-COSX (HFX calculated with COS-X)).... on


General Settings:
 Integral files         IntName         .... 1_wb98x-ma-def2-TZVP-GasPhase_onB3LYP_8_waters
 Hartree-Fock type      HFTyp           .... RHF
 Total Charge           Charge          ....    0
 Multiplicity           Mult            ....    1
 Number of Electrons    NEL             ....   80
 Basis Dimension        Dim             ....  376
 Nuclear Repulsion      ENuc            ....    523.9511417461 Eh

Convergence Acceleration:
 DIIS                   CNVDIIS         .... on
   Start iteration      DIISMaxIt       ....    12
   Startup error        DIISStart       ....  0.200000
   # of expansion vecs  DIISMaxEq       ....     5
   Bias factor          DIISBfac        ....   1.050
   Max. coefficient     DIISMaxC        ....  10.000
 Newton-Raphson         CNVNR           .... off
 SOSCF                  CNVSOSCF        .... on
   Start iteration      SOSCFMaxIt      ....   150
   Startup grad/error   SOSCFStart      ....  0.003300
 Level Shifting         CNVShift        .... on
   Level shift para.    LevelShift      ....    0.2500
   Turn off err/grad.   ShiftErr        ....    0.0010
 Zerner damping         CNVZerner       .... off
 Static damping         CNVDamp         .... on
   Fraction old density DampFac         ....    0.7000
   Max. Damping (<1)    DampMax         ....    0.9800
   Min. Damping (>=0)   DampMin         ....    0.0000
   Turn off err/grad.   DampErr         ....    0.1000
 Fernandez-Rico         CNVRico         .... off

SCF Procedure:
 Maximum # iterations   MaxIter         ....   400
 SCF integral mode      SCFMode         .... Direct
   Integral package                     .... LIBINT
 Reset frequeny         DirectResetFreq ....    20
 Integral Threshold     Thresh          ....  2.500e-11 Eh
 Primitive CutOff       TCut            ....  2.500e-12 Eh

Convergence Tolerance:
 Convergence Check Mode ConvCheckMode   .... Total+1el-Energy
 Energy Change          TolE            ....  1.000e-08 Eh
 1-El. energy change                    ....  1.000e-05 Eh
 Orbital Gradient       TolG            ....  1.000e-05
 Orbital Rotation angle TolX            ....  1.000e-05
 DIIS Error             TolErr          ....  5.000e-07


Diagonalization of the overlap matrix:
Smallest eigenvalue                        ... 4.137e-04
Time for diagonalization                   ...    0.141 sec
Threshold for overlap eigenvalues          ... 1.000e-08
Number of eigenvalues below threshold      ... 0
Time for construction of square roots      ...    0.012 sec
Total time needed                          ...    0.155 sec

-------------------
DFT GRID GENERATION
-------------------

General Integration Accuracy     IntAcc      ...  4.670
Radial Grid Type                 RadialGrid  ... Gauss-Chebyshev
Angular Grid (max. acc.)         AngularGrid ... Lebedev-302
Angular grid pruning method      GridPruning ... 3 (G Style)
Weight generation scheme         WeightScheme... Becke
Basis function cutoff            BFCut       ...    1.0000e-11
Integration weight cutoff        WCut        ...    1.0000e-14
Grids for H and He will be reduced by one unit

# of grid points (after initial pruning)     ... 104000 (   0.1 sec)
# of grid points (after weights+screening)   ...  93637 (   0.4 sec)
nearest neighbour list constructed           ...    0.0 sec
Grid point re-assignment to atoms done       ...    0.0 sec
Grid point division into batches done        ...    0.2 sec
Reduced shell lists constructed in    2.7 sec

Total number of grid points                  ...    93637
Total number of batches                      ...     1475
Average number of points per batch           ...       63
Average number of grid points per atom       ...     3902
Average number of shells per batch           ...    96.51 (57.44%)
Average number of basis functions per batch  ...   195.93 (52.11%)
Average number of large shells per batch     ...    72.20 (74.82%)
Average number of large basis fcns per batch ...   141.05 (71.99%)
Maximum spatial batch extension              ...  17.74, 15.55, 16.98 au
Average spatial batch extension              ...   2.17,  2.09,  2.14 au

Time for grid setup =    3.256 sec

------------------------------
INITIAL GUESS: MODEL POTENTIAL
------------------------------
Loading Hartree-Fock densities                     ... done
Calculating cut-offs                               ... done
Setting up the integral package                    ... done
Initializing the effective Hamiltonian             ... done
Starting the Coulomb interaction                   ... done (   0.8 sec)
Reading the grid                                   ... done
Mapping shells                                     ... done
Starting the XC term evaluation                    ... done (   3.5 sec)
  promolecular density results
     # of electrons  =     79.991166930
     EX              =    -69.962307348
     EC              =     -2.626075454
     EX+EC           =    -72.588382803
Transforming the Hamiltonian                       ... done (   0.0 sec)
Diagonalizing the Hamiltonian                      ... done (   0.0 sec)
Back transforming the eigenvectors                 ... done (   0.0 sec)
Now organizing SCF variables                       ... done
                      ------------------
                      INITIAL GUESS DONE (   7.7 sec)
                      ------------------
--------------------
COSX GRID GENERATION
--------------------

General Integration Accuracy     IntAcc      ...  3.340
Radial Grid Type                 RadialGrid  ... Gauss-Chebyshev
Angular Grid (max. acc.)         AngularGrid ... Lebedev-50
Angular grid pruning method      GridPruning ... 3 (G Style)
Weight generation scheme         WeightScheme... Becke
Basis function cutoff            BFCut       ...    1.0000e-11
Integration weight cutoff        WCut        ...    1.0000e-14
Grids for H and He will be reduced by one unit

# of grid points (after initial pruning)     ...   9760 (   0.0 sec)
# of grid points (after weights+screening)   ...   8909 (   0.0 sec)
nearest neighbour list constructed           ...    0.0 sec
Grid point re-assignment to atoms done       ...    0.0 sec
Grid point division into batches done        ...    0.0 sec
Reduced shell lists constructed in    0.3 sec

Total number of grid points                  ...     8909
Total number of batches                      ...      148
Average number of points per batch           ...       60
Average number of grid points per atom       ...      371
Average number of shells per batch           ...   110.84 (65.98%)
Average number of basis functions per batch  ...   233.07 (61.99%)
Average number of large shells per batch     ...    84.01 (75.79%)
Average number of large basis fcns per batch ...   166.68 (71.51%)
Maximum spatial batch extension              ...  17.26, 14.41, 16.92 au
Average spatial batch extension              ...   4.90,  4.49,  4.58 au

Overlap Fitting                  UseSFitting ... on
Constructing numerical overlap ... done (      0.2 sec)
Inverting numerical overlap    ... done (      0.0 sec)
Obtaining analytic overlap     ... done (      0.0 sec)
Final contraction and storage  ... done (      0.0 sec)


General Integration Accuracy     IntAcc      ...  3.670
Radial Grid Type                 RadialGrid  ... Gauss-Chebyshev
Angular Grid (max. acc.)         AngularGrid ... Lebedev-50
Angular grid pruning method      GridPruning ... 3 (G Style)
Weight generation scheme         WeightScheme... Becke
Basis function cutoff            BFCut       ...    1.0000e-11
Integration weight cutoff        WCut        ...    1.0000e-14
Grids for H and He will be reduced by one unit

# of grid points (after initial pruning)     ...  12816 (   0.0 sec)
# of grid points (after weights+screening)   ...  11671 (   0.0 sec)
nearest neighbour list constructed           ...    0.0 sec
Grid point re-assignment to atoms done       ...    0.0 sec
Grid point division into batches done        ...    0.0 sec
Reduced shell lists constructed in    0.4 sec

Total number of grid points                  ...    11671
Total number of batches                      ...      196
Average number of points per batch           ...       59
Average number of grid points per atom       ...      486
Average number of shells per batch           ...   109.72 (65.31%)
Average number of basis functions per batch  ...   229.91 (61.15%)
Average number of large shells per batch     ...    83.05 (75.69%)
Average number of large basis fcns per batch ...   164.28 (71.45%)
Maximum spatial batch extension              ...  18.51, 16.61, 18.51 au
Average spatial batch extension              ...   4.35,  4.08,  4.13 au

Overlap Fitting                  UseSFitting ... on
Constructing numerical overlap ... done (      0.3 sec)
Inverting numerical overlap    ... done (      0.0 sec)
Obtaining analytic overlap     ... done (      0.0 sec)
Final contraction and storage  ... done (      0.0 sec)


General Integration Accuracy     IntAcc      ...  4.010
Radial Grid Type                 RadialGrid  ... Gauss-Chebyshev
Angular Grid (max. acc.)         AngularGrid ... Lebedev-110
Angular grid pruning method      GridPruning ... 3 (G Style)
Weight generation scheme         WeightScheme... Becke
Basis function cutoff            BFCut       ...    1.0000e-11
Integration weight cutoff        WCut        ...    1.0000e-14
Grids for H and He will be reduced by one unit

# of grid points (after initial pruning)     ...  22064 (   0.0 sec)
# of grid points (after weights+screening)   ...  20225 (   0.1 sec)
nearest neighbour list constructed           ...    0.0 sec
Grid point re-assignment to atoms done       ...    0.0 sec
Grid point division into batches done        ...    0.0 sec
Reduced shell lists constructed in    0.6 sec

Total number of grid points                  ...    20225
Total number of batches                      ...      326
Average number of points per batch           ...       62
Average number of grid points per atom       ...      843
Average number of shells per batch           ...   105.37 (62.72%)
Average number of basis functions per batch  ...   218.34 (58.07%)
Average number of large shells per batch     ...    79.86 (75.79%)
Average number of large basis fcns per batch ...   157.53 (72.15%)
Maximum spatial batch extension              ...  19.83, 14.47, 19.83 au
Average spatial batch extension              ...   3.77,  3.47,  3.61 au

Overlap Fitting                  UseSFitting ... on
Constructing numerical overlap ... done (      0.4 sec)
Inverting numerical overlap    ... done (      0.0 sec)
Obtaining analytic overlap     ... done (      0.0 sec)
Final contraction and storage  ... done (      0.0 sec)

Time for X-Grid setup             =    2.375 sec
--------------
SCF ITERATIONS
--------------
ITER       Energy         Delta-E        Max-DP      RMS-DP      [F,P]     Damp
               ***  Starting incremental Fock matrix formation  ***
  0   -611.1034044529   0.000000000000 0.03986573  0.00094916  0.2794405 0.7000
  1   -611.3440121144  -0.240607661573 0.02451250  0.00064207  0.1410113 0.7000
                               ***Turning on DIIS***
  2   -611.4464745825  -0.102462468060 0.04389712  0.00106953  0.0573156 0.0000
  3   -611.6054884068  -0.159013824275 0.01716604  0.00040269  0.0705897 0.0000
  4   -611.6368378356  -0.031349428822 0.00274442  0.00007424  0.0090107 0.0000
                      *** Initiating the SOSCF procedure ***
                           *** Shutting down DIIS ***
                      *** Re-Reading the Fockian *** 
                      *** Removing any level shift *** 
ITER      Energy       Delta-E        Grad      Rot      Max-DP    RMS-DP
  5   -611.63742444  -0.0005866050  0.000457  0.000457  0.000731  0.000025
               *** Restarting incremental Fock matrix formation ***
  6   -611.63746051  -0.0000360738  0.000175  0.000328  0.000400  0.000014
  7   -611.63746262  -0.0000021015  0.000106  0.000092  0.000168  0.000006
  8   -611.63746334  -0.0000007207  0.000018  0.000020  0.000052  0.000002
  9   -611.63746337  -0.0000000365  0.000004  0.000005  0.000008  0.000000
 10   -611.63746338  -0.0000000048  0.000003  0.000002  0.000005  0.000000
                 **** Energy Check signals convergence ****
              ***Rediagonalizing the Fockian in SOSCF/NRSCF***

               *****************************************************
               *                     SUCCESS                       *
               *           SCF CONVERGED AFTER  11 CYCLES          *
               *****************************************************

Setting up the final grid:

General Integration Accuracy     IntAcc      ...  5.010
Radial Grid Type                 RadialGrid  ... Gauss-Chebyshev
Angular Grid (max. acc.)         AngularGrid ... Lebedev-434
Angular grid pruning method      GridPruning ... 3 (G Style)
Weight generation scheme         WeightScheme... Becke
Basis function cutoff            BFCut       ...    1.0000e-11
Integration weight cutoff        WCut        ...    1.0000e-14
Grids for H and He will be reduced by one unit

# of grid points (after initial pruning)     ... 193808 (   0.1 sec)
# of grid points (after weights+screening)   ... 174086 (   0.7 sec)
nearest neighbour list constructed           ...    0.0 sec
Grid point re-assignment to atoms done       ...    0.0 sec
Grid point division into batches done        ...    0.9 sec
Reduced shell lists constructed in    5.4 sec

Total number of grid points                  ...   174086
Total number of batches                      ...     2734
Average number of points per batch           ...       63
Average number of grid points per atom       ...     7254
Average number of shells per batch           ...    93.84 (55.86%)
Average number of basis functions per batch  ...   189.23 (50.33%)
Average number of large shells per batch     ...    70.06 (74.65%)
Average number of large basis fcns per batch ...   136.36 (72.06%)
Maximum spatial batch extension              ...  19.29, 16.38, 16.95 au
Average spatial batch extension              ...   1.74,  1.69,  1.72 au

Final grid set up in    6.2 sec
Final integration                            ... done (   7.4 sec)
Change in XC energy                          ...    -0.000898762
Integrated number of electrons               ...    80.000069318
Previous integrated no of electrons          ...    79.999532050
Old exchange energy                            =    -22.643833034 Eh
New exchange energy                            =    -22.643217030 Eh
Exchange energy change after final integration =      0.000616005 Eh
Total energy after final integration           =   -611.637746134 Eh
Final COS-X integration done in                =    50.011 sec

----------------
TOTAL SCF ENERGY
----------------

Total Energy       :         -611.63774613 Eh          -16643.50921 eV

Components:
Nuclear Repulsion  :          523.95114175 Eh           14257.43540 eV
Electronic Energy  :        -1135.58888788 Eh          -30900.94461 eV

One Electron Energy:        -1885.28517997 Eh          -51301.21785 eV
Two Electron Energy:          749.69629209 Eh           20400.27324 eV

Virial components:
Potential Energy   :        -1220.75106099 Eh          -33218.32516 eV
Kinetic Energy     :          609.11331486 Eh           16574.81594 eV
Virial Ratio       :            2.00414444


DFT components:
N(Alpha)           :       40.000034659095 electrons
N(Beta)            :       40.000034659095 electrons
N(Total)           :       80.000069318190 electrons
E(XC)              :      -51.977787276031 Eh       

---------------
SCF CONVERGENCE
---------------

  Last Energy change         ...    1.1082e-09  Tolerance :   1.0000e-08
  Last MAX-Density change    ...    2.3558e-14  Tolerance :   1.0000e-07
  Last RMS-Density change    ...    3.3620e-16  Tolerance :   5.0000e-09
  Last Orbital Gradient      ...    2.3383e-07  Tolerance :   1.0000e-05
  Last Orbital Rotation      ...    5.3005e-07  Tolerance :   1.0000e-05

             **** THE GBW FILE WAS UPDATED (1_wb98x-ma-def2-TZVP-GasPhase_onB3LYP_8_waters.gbw) ****
             **** DENSITY FILE WAS UPDATED (1_wb98x-ma-def2-TZVP-GasPhase_onB3LYP_8_waters.scfp.tmp) ****
             **** ENERGY FILE WAS UPDATED (1_wb98x-ma-def2-TZVP-GasPhase_onB3LYP_8_waters.en.tmp) ****
----------------
ORBITAL ENERGIES
----------------

  NO   OCC          E(Eh)            E(eV) 
   0   2.0000     -19.248675      -523.7831 
   1   2.0000     -19.248122      -523.7680 
   2   2.0000     -19.247691      -523.7563 
   3   2.0000     -19.245648      -523.7007 
   4   2.0000     -19.228717      -523.2400 
   5   2.0000     -19.227794      -523.2149 
   6   2.0000     -19.226653      -523.1838 
   7   2.0000     -19.226614      -523.1828 
   8   2.0000      -1.154098       -31.4046 
   9   2.0000      -1.141321       -31.0569 
  10   2.0000      -1.140389       -31.0316 
  11   2.0000      -1.134966       -30.8840 
  12   2.0000      -1.119698       -30.4685 
  13   2.0000      -1.113730       -30.3061 
  14   2.0000      -1.113231       -30.2926 
  15   2.0000      -1.101600       -29.9761 
  16   2.0000      -0.656259       -17.8577 
  17   2.0000      -0.655038       -17.8245 
  18   2.0000      -0.653725       -17.7888 
  19   2.0000      -0.647734       -17.6257 
  20   2.0000      -0.632468       -17.2103 
  21   2.0000      -0.625601       -17.0235 
  22   2.0000      -0.624347       -16.9894 
  23   2.0000      -0.622954       -16.9514 
  24   2.0000      -0.573370       -15.6022 
  25   2.0000      -0.534836       -14.5536 
  26   2.0000      -0.521948       -14.2029 
  27   2.0000      -0.521523       -14.1913 
  28   2.0000      -0.493297       -13.4233 
  29   2.0000      -0.493041       -13.4163 
  30   2.0000      -0.488178       -13.2840 
  31   2.0000      -0.454235       -12.3604 
  32   2.0000      -0.434109       -11.8127 
  33   2.0000      -0.433777       -11.8037 
  34   2.0000      -0.432651       -11.7730 
  35   2.0000      -0.429729       -11.6935 
  36   2.0000      -0.416204       -11.3255 
  37   2.0000      -0.413950       -11.2642 
  38   2.0000      -0.412283       -11.2188 
  39   2.0000      -0.412154       -11.2153 
  40   0.0000       0.056755         1.5444 
  41   0.0000       0.079457         2.1621 
  42   0.0000       0.080037         2.1779 
  43   0.0000       0.083320         2.2673 
  44   0.0000       0.120069         3.2672 
  45   0.0000       0.124028         3.3750 
  46   0.0000       0.124389         3.3848 
  47   0.0000       0.140921         3.8346 
  48   0.0000       0.143723         3.9109 
  49   0.0000       0.148993         4.0543 
  50   0.0000       0.176113         4.7923 
  51   0.0000       0.176559         4.8044 
  52   0.0000       0.182562         4.9678 
  53   0.0000       0.186889         5.0855 
  54   0.0000       0.188488         5.1290 
  55   0.0000       0.188727         5.1355 
  56   0.0000       0.188813         5.1379 
  57   0.0000       0.217403         5.9158 
  58   0.0000       0.219254         5.9662 
  59   0.0000       0.220669         6.0047 
  60   0.0000       0.240052         6.5322 
  61   0.0000       0.240543         6.5455 
  62   0.0000       0.241363         6.5678 
  63   0.0000       0.245354         6.6764 
  64   0.0000       0.251656         6.8479 
  65   0.0000       0.252215         6.8631 
  66   0.0000       0.253064         6.8862 
  67   0.0000       0.280421         7.6306 
  68   0.0000       0.281959         7.6725 
  69   0.0000       0.282814         7.6958 
  70   0.0000       0.294946         8.0259 
  71   0.0000       0.296473         8.0674 
  72   0.0000       0.323812         8.8114 
  73   0.0000       0.326579         8.8867 
  74   0.0000       0.328415         8.9366 
  75   0.0000       0.329134         8.9562 
  76   0.0000       0.347387         9.4529 
  77   0.0000       0.364902         9.9295 
  78   0.0000       0.368425        10.0253 
  79   0.0000       0.377350        10.2682 
  80   0.0000       0.379019        10.3136 
  81   0.0000       0.405070        11.0225 
  82   0.0000       0.406212        11.0536 
  83   0.0000       0.411504        11.1976 
  84   0.0000       0.419583        11.4174 
  85   0.0000       0.437519        11.9055 
  86   0.0000       0.441251        12.0070 
  87   0.0000       0.445428        12.1207 
  88   0.0000       0.506693        13.7878 
  89   0.0000       0.510148        13.8818 
  90   0.0000       0.517088        14.0707 
  91   0.0000       0.529329        14.4038 
  92   0.0000       0.546443        14.8695 
  93   0.0000       0.564605        15.3637 
  94   0.0000       0.567405        15.4399 
  95   0.0000       0.568710        15.4754 
  96   0.0000       0.570896        15.5349 
  97   0.0000       0.572173        15.5696 
  98   0.0000       0.590081        16.0569 
  99   0.0000       0.599023        16.3002 
 100   0.0000       0.617745        16.8097 
 101   0.0000       0.672679        18.3045 
 102   0.0000       0.674286        18.3483 
 103   0.0000       0.675419        18.3791 
 104   0.0000       0.696815        18.9613 
 105   0.0000       0.701038        19.0762 
 106   0.0000       0.722033        19.6475 
 107   0.0000       0.724447        19.7132 
 108   0.0000       0.738602        20.0984 
 109   0.0000       0.744583        20.2611 
 110   0.0000       0.757401        20.6099 
 111   0.0000       0.758299        20.6344 
 112   0.0000       0.785652        21.3787 
 113   0.0000       0.786891        21.4124 
 114   0.0000       0.789436        21.4817 
 115   0.0000       0.830422        22.5969 
 116   0.0000       0.833341        22.6764 
 117   0.0000       0.836263        22.7559 
 118   0.0000       0.840800        22.8793 
 119   0.0000       0.860177        23.4066 
 120   0.0000       0.870629        23.6910 
 121   0.0000       0.873514        23.7695 
 122   0.0000       0.893383        24.3102 
 123   0.0000       0.901514        24.5314 
 124   0.0000       0.905195        24.6316 
 125   0.0000       0.915188        24.9035 
 126   0.0000       0.920351        25.0440 
 127   0.0000       0.961259        26.1572 
 128   0.0000       0.996060        27.1042 
 129   0.0000       1.006054        27.3761 
 130   0.0000       1.018760        27.7219 
 131   0.0000       1.040176        28.3046 
 132   0.0000       1.041866        28.3506 
 133   0.0000       1.051794        28.6208 
 134   0.0000       1.069416        29.1003 
 135   0.0000       1.176284        32.0083 
 136   0.0000       1.212238        32.9867 
 137   0.0000       1.257640        34.2221 
 138   0.0000       1.267980        34.5035 
 139   0.0000       1.268339        34.5133 
 140   0.0000       1.280067        34.8324 
 141   0.0000       1.282422        34.8965 
 142   0.0000       1.294184        35.2165 
 143   0.0000       1.301328        35.4109 
 144   0.0000       1.316408        35.8213 
 145   0.0000       1.342591        36.5338 
 146   0.0000       1.348549        36.6959 
 147   0.0000       1.391690        37.8698 
 148   0.0000       1.418667        38.6039 
 149   0.0000       1.421869        38.6910 
 150   0.0000       1.426412        38.8147 
 151   0.0000       1.436755        39.0961 
 152   0.0000       1.466547        39.9068 
 153   0.0000       1.469625        39.9905 
 154   0.0000       1.490341        40.5542 
 155   0.0000       1.514075        41.2001 
 156   0.0000       1.531572        41.6762 
 157   0.0000       1.561593        42.4931 
 158   0.0000       1.562548        42.5191 
 159   0.0000       1.571383        42.7595 
 160   0.0000       1.716262        46.7019 
 161   0.0000       1.794722        48.8369 
 162   0.0000       1.805668        49.1347 
 163   0.0000       1.814359        49.3712 
 164   0.0000       1.816956        49.4419 
 165   0.0000       1.834913        49.9305 
 166   0.0000       1.836768        49.9810 
 167   0.0000       1.841138        50.0999 
 168   0.0000       1.846465        50.2449 
 169   0.0000       1.855369        50.4872 
 170   0.0000       1.870334        50.8944 
 171   0.0000       1.871170        50.9171 
 172   0.0000       1.887501        51.3615 
 173   0.0000       1.912599        52.0445 
 174   0.0000       1.916279        52.1446 
 175   0.0000       1.926246        52.4158 
 176   0.0000       1.928902        52.4881 
 177   0.0000       1.981128        53.9092 
 178   0.0000       1.989924        54.1486 
 179   0.0000       2.034221        55.3540 
 180   0.0000       2.035815        55.3974 
 181   0.0000       2.077826        56.5405 
 182   0.0000       2.080935        56.6251 
 183   0.0000       2.084341        56.7178 
 184   0.0000       2.102371        57.2084 
 185   0.0000       2.120847        57.7112 
 186   0.0000       2.126023        57.8520 
 187   0.0000       2.154542        58.6281 
 188   0.0000       2.187598        59.5276 
 189   0.0000       2.190932        59.6183 
 190   0.0000       2.195421        59.7404 
 191   0.0000       2.235137        60.8212 
 192   0.0000       2.278264        61.9947 
 193   0.0000       2.282108        62.0993 
 194   0.0000       2.293341        62.4050 
 195   0.0000       2.300760        62.6069 
 196   0.0000       2.308227        62.8101 
 197   0.0000       2.382535        64.8321 
 198   0.0000       2.391606        65.0789 
 199   0.0000       2.398204        65.2584 
 200   0.0000       2.419730        65.8442 
 201   0.0000       2.423022        65.9338 
 202   0.0000       2.426868        66.0384 
 203   0.0000       2.435864        66.2832 
 204   0.0000       2.496178        67.9245 
 205   0.0000       2.499585        68.0172 
 206   0.0000       2.501735        68.0757 
 207   0.0000       2.508156        68.2504 
 208   0.0000       2.522081        68.6293 
 209   0.0000       2.545440        69.2649 
 210   0.0000       2.547884        69.3314 
 211   0.0000       2.555782        69.5464 
 212   0.0000       2.561215        69.6942 
 213   0.0000       2.564786        69.7914 
 214   0.0000       2.573186        70.0199 
 215   0.0000       2.582635        70.2771 
 216   0.0000       2.585745        70.3617 
 217   0.0000       2.596873        70.6645 
 218   0.0000       2.615547        71.1726 
 219   0.0000       2.620939        71.3194 
 220   0.0000       2.673301        72.7442 
 221   0.0000       2.697861        73.4125 
 222   0.0000       2.701075        73.5000 
 223   0.0000       2.717370        73.9434 
 224   0.0000       2.743041        74.6419 
 225   0.0000       2.745976        74.7218 
 226   0.0000       2.764443        75.2243 
 227   0.0000       2.769509        75.3622 
 228   0.0000       2.789877        75.9164 
 229   0.0000       2.798295        76.1455 
 230   0.0000       2.803137        76.2772 
 231   0.0000       2.808136        76.4133 
 232   0.0000       2.856860        77.7391 
 233   0.0000       2.886060        78.5337 
 234   0.0000       2.893407        78.7336 
 235   0.0000       2.895634        78.7942 
 236   0.0000       2.931710        79.7759 
 237   0.0000       2.938515        79.9611 
 238   0.0000       2.965967        80.7081 
 239   0.0000       2.977987        81.0351 
 240   0.0000       3.010689        81.9250 
 241   0.0000       3.018661        82.1420 
 242   0.0000       3.039808        82.7174 
 243   0.0000       3.045812        82.8808 
 244   0.0000       3.124093        85.0109 
 245   0.0000       3.126334        85.0719 
 246   0.0000       3.145934        85.6052 
 247   0.0000       3.161852        86.0384 
 248   0.0000       3.178525        86.4921 
 249   0.0000       3.191764        86.8523 
 250   0.0000       3.200105        87.0793 
 251   0.0000       3.273662        89.0809 
 252   0.0000       3.317656        90.2780 
 253   0.0000       3.322435        90.4080 
 254   0.0000       3.357167        91.3532 
 255   0.0000       3.377409        91.9040 
 256   0.0000       3.864745       105.1651 
 257   0.0000       3.867108       105.2293 
 258   0.0000       3.910528       106.4109 
 259   0.0000       3.939877       107.2095 
 260   0.0000       3.943508       107.3083 
 261   0.0000       3.954336       107.6029 
 262   0.0000       4.028525       109.6217 
 263   0.0000       4.040199       109.9394 
 264   0.0000       4.061513       110.5194 
 265   0.0000       4.068888       110.7201 
 266   0.0000       4.086774       111.2068 
 267   0.0000       4.094135       111.4071 
 268   0.0000       4.116887       112.0262 
 269   0.0000       4.120070       112.1128 
 270   0.0000       4.134806       112.5138 
 271   0.0000       4.181497       113.7843 
 272   0.0000       5.193177       141.3135 
 273   0.0000       5.193763       141.3295 
 274   0.0000       5.195183       141.3681 
 275   0.0000       5.195469       141.3759 
 276   0.0000       5.197166       141.4221 
 277   0.0000       5.198443       141.4568 
 278   0.0000       5.200762       141.5199 
 279   0.0000       5.201747       141.5467 
 280   0.0000       5.283382       143.7681 
 281   0.0000       5.285680       143.8307 
 282   0.0000       5.288626       143.9108 
 283   0.0000       5.302627       144.2918 
 284   0.0000       5.351295       145.6161 
 285   0.0000       5.354091       145.6922 
 286   0.0000       5.359101       145.8285 
 287   0.0000       5.364933       145.9873 
 288   0.0000       5.417221       147.4101 
 289   0.0000       5.423404       147.5783 
 290   0.0000       5.439348       148.0122 
 291   0.0000       5.440534       148.0445 
 292   0.0000       5.459337       148.5561 
 293   0.0000       5.460952       148.6001 
 294   0.0000       5.464272       148.6904 
 295   0.0000       5.465811       148.7323 
 296   0.0000       5.504193       149.7767 
 297   0.0000       5.517259       150.1323 
 298   0.0000       5.519844       150.2026 
 299   0.0000       5.522627       150.2783 
 300   0.0000       5.535876       150.6388 
 301   0.0000       5.538320       150.7053 
 302   0.0000       5.541494       150.7917 
 303   0.0000       5.545750       150.9075 
 304   0.0000       5.551522       151.0646 
 305   0.0000       5.552739       151.0977 
 306   0.0000       5.553739       151.1249 
 307   0.0000       5.560437       151.3072 
 308   0.0000       5.561318       151.3311 
 309   0.0000       5.570260       151.5745 
 310   0.0000       5.571624       151.6116 
 311   0.0000       5.576197       151.7360 
 312   0.0000       6.052461       164.6958 
 313   0.0000       6.056533       164.8066 
 314   0.0000       6.070994       165.2002 
 315   0.0000       6.073307       165.2631 
 316   0.0000       6.079755       165.4385 
 317   0.0000       6.088023       165.6635 
 318   0.0000       6.093647       165.8166 
 319   0.0000       6.095817       165.8756 
 320   0.0000       6.213641       169.0818 
 321   0.0000       6.270873       170.6391 
 322   0.0000       6.277161       170.8102 
 323   0.0000       6.303712       171.5327 
 324   0.0000       6.352127       172.8502 
 325   0.0000       6.356386       172.9661 
 326   0.0000       6.398787       174.1199 
 327   0.0000       6.404697       174.2807 
 328   0.0000       6.414292       174.5418 
 329   0.0000       6.452437       175.5797 
 330   0.0000       6.455631       175.6666 
 331   0.0000       6.466274       175.9563 
 332   0.0000       6.498035       176.8205 
 333   0.0000       6.503758       176.9762 
 334   0.0000       6.505205       177.0156 
 335   0.0000       6.506138       177.0410 
 336   0.0000       6.509642       177.1364 
 337   0.0000       6.541248       177.9964 
 338   0.0000       6.555022       178.3712 
 339   0.0000       6.557399       178.4359 
 340   0.0000       6.580569       179.0664 
 341   0.0000       6.581188       179.0832 
 342   0.0000       6.591377       179.3605 
 343   0.0000       6.598875       179.5645 
 344   0.0000       6.602581       179.6654 
 345   0.0000       6.615614       180.0200 
 346   0.0000       6.699672       182.3073 
 347   0.0000       6.718250       182.8129 
 348   0.0000       6.744296       183.5216 
 349   0.0000       6.790423       184.7768 
 350   0.0000       6.847183       186.3213 
 351   0.0000       6.859257       186.6499 
 352   0.0000       6.980668       189.9536 
 353   0.0000       7.067585       192.3188 
 354   0.0000       7.071594       192.4279 
 355   0.0000       7.094076       193.0396 
 356   0.0000       7.114205       193.5874 
 357   0.0000       7.129699       194.0090 
 358   0.0000       7.133387       194.1093 
 359   0.0000       7.173773       195.2083 
 360   0.0000       7.175944       195.2674 
 361   0.0000       7.192396       195.7151 
 362   0.0000       7.219800       196.4608 
 363   0.0000       7.225813       196.6244 
 364   0.0000       7.248280       197.2357 
 365   0.0000       7.253596       197.3804 
 366   0.0000       7.258985       197.5270 
 367   0.0000       7.289407       198.3548 
 368   0.0000      43.701105      1189.1675 
 369   0.0000      43.701975      1189.1912 
 370   0.0000      43.722699      1189.7551 
 371   0.0000      43.734843      1190.0856 
 372   0.0000      43.786692      1191.4965 
 373   0.0000      43.788545      1191.5469 
 374   0.0000      43.810246      1192.1374 
 375   0.0000      44.056929      1198.8500 

                    ********************************
                    * MULLIKEN POPULATION ANALYSIS *
                    ********************************

-----------------------
MULLIKEN ATOMIC CHARGES
-----------------------
   0 O :   -0.732589
   1 H :    0.398718
   2 H :    0.406939
   3 O :   -0.849776
   4 H :    0.405863
   5 H :    0.358559
   6 O :   -0.716586
   7 H :    0.403490
   8 H :    0.400197
   9 O :   -0.845518
  10 H :    0.357303
  11 H :    0.414956
  12 O :   -0.741746
  13 H :    0.406625
  14 H :    0.403869
  15 O :   -0.842446
  16 H :    0.357862
  17 H :    0.411534
  18 O :   -0.721807
  19 H :    0.406761
  20 H :    0.403603
  21 O :   -0.852944
  22 H :    0.358632
  23 H :    0.408501
Sum of atomic charges:    0.0000000

--------------------------------
MULLIKEN REDUCED ORBITAL CHARGES
--------------------------------
  0 O s       :     3.745806  s :     3.745806
      pz      :     1.408131  p :     4.965794
      px      :     1.651338
      py      :     1.906324
      dz2     :     0.000516  d :     0.019963
      dxz     :     0.006392
      dyz     :     0.005876
      dx2y2   :     0.002705
      dxy     :     0.004474
      f0      :     0.000042  f :     0.001027
      f+1     :     0.000229
      f-1     :     0.000285
      f+2     :     0.000177
      f-2     :     0.000168
      f+3     :     0.000046
      f-3     :     0.000080
  1 H s       :     0.548147  s :     0.548147
      pz      :     0.021635  p :     0.053135
      px      :     0.012517
      py      :     0.018982
  2 H s       :     0.538971  s :     0.538971
      pz      :     0.020412  p :     0.054090
      px      :     0.019206
      py      :     0.014472
  3 O s       :     3.819781  s :     3.819781
      pz      :     1.918767  p :     5.010944
      px      :     1.654845
      py      :     1.437332
      dz2     :     0.003121  d :     0.017934
      dxz     :     0.002360
      dyz     :     0.000860
      dx2y2   :     0.005040
      dxy     :     0.006553
      f0      :     0.000184  f :     0.001116
      f+1     :     0.000113
      f-1     :     0.000304
      f+2     :     0.000059
      f-2     :     0.000108
      f+3     :     0.000142
      f-3     :     0.000206
  4 H s       :     0.534169  s :     0.534169
      pz      :     0.014258  p :     0.059968
      px      :     0.026848
      py      :     0.018862
  5 H s       :     0.595551  s :     0.595551
      pz      :     0.015045  p :     0.045889
      px      :     0.012705
      py      :     0.018140
  6 O s       :     3.744541  s :     3.744541
      pz      :     1.643513  p :     4.950556
      px      :     1.714454
      py      :     1.592589
      dz2     :     0.002736  d :     0.020481
      dxz     :     0.006161
      dyz     :     0.008407
      dx2y2   :     0.000371
      dxy     :     0.002806
      f0      :     0.000035  f :     0.001009
      f+1     :     0.000033
      f-1     :     0.000045
      f+2     :     0.000024
      f-2     :     0.000516
      f+3     :     0.000240
      f-3     :     0.000117
  7 H s       :     0.542938  s :     0.542938
      pz      :     0.018081  p :     0.053572
      px      :     0.014957
      py      :     0.020534
  8 H s       :     0.546164  s :     0.546164
      pz      :     0.018446  p :     0.053639
      px      :     0.018723
      py      :     0.016471
  9 O s       :     3.814802  s :     3.814802
      pz      :     1.615481  p :     5.011807
      px      :     1.623076
      py      :     1.773251
      dz2     :     0.004200  d :     0.017790
      dxz     :     0.006050
      dyz     :     0.004058
      dx2y2   :     0.000431
      dxy     :     0.003051
      f0      :     0.000011  f :     0.001118
      f+1     :     0.000196
      f-1     :     0.000127
      f+2     :     0.000040
      f-2     :     0.000335
      f+3     :     0.000101
      f-3     :     0.000307
 10 H s       :     0.596598  s :     0.596598
      pz      :     0.016611  p :     0.046099
      px      :     0.014497
      py      :     0.014990
 11 H s       :     0.523335  s :     0.523335
      pz      :     0.010686  p :     0.061710
      px      :     0.029679
      py      :     0.021345
 12 O s       :     3.745999  s :     3.745999
      pz      :     1.825439  p :     4.974735
      px      :     1.622341
      py      :     1.526955
      dz2     :     0.001786  d :     0.019988
      dxz     :     0.006223
      dyz     :     0.007464
      dx2y2   :     0.002688
      dxy     :     0.001827
      f0      :     0.000195  f :     0.001024
      f+1     :     0.000033
      f-1     :     0.000012
      f+2     :     0.000263
      f-2     :     0.000207
      f+3     :     0.000118
      f-3     :     0.000197
 13 H s       :     0.538937  s :     0.538937
      pz      :     0.018593  p :     0.054438
      px      :     0.021017
      py      :     0.014828
 14 H s       :     0.541703  s :     0.541703
      pz      :     0.018336  p :     0.054428
      px      :     0.013028
      py      :     0.023063
 15 O s       :     3.815196  s :     3.815196
      pz      :     1.926249  p :     5.008246
      px      :     1.422280
      py      :     1.659716
      dz2     :     0.003260  d :     0.017883
      dxz     :     0.000799
      dyz     :     0.002102
      dx2y2   :     0.000861
      dxy     :     0.010861
      f0      :     0.000169  f :     0.001121
      f+1     :     0.000302
      f-1     :     0.000150
      f+2     :     0.000028
      f-2     :     0.000110
      f+3     :     0.000003
      f-3     :     0.000358
 16 H s       :     0.596184  s :     0.596184
      pz      :     0.015162  p :     0.045954
      px      :     0.016747
      py      :     0.014045
 17 H s       :     0.527741  s :     0.527741
      pz      :     0.013678  p :     0.060725
      px      :     0.027342
      py      :     0.019705
 18 O s       :     3.743016  s :     3.743016
      pz      :     1.413115  p :     4.957437
      px      :     1.915080
      py      :     1.629241
      dz2     :     0.000352  d :     0.020343
      dxz     :     0.003752
      dyz     :     0.008876
      dx2y2   :     0.003478
      dxy     :     0.003886
      f0      :     0.000030  f :     0.001011
      f+1     :     0.000230
      f-1     :     0.000283
      f+2     :     0.000208
      f-2     :     0.000144
      f+3     :     0.000049
      f-3     :     0.000067
 19 H s       :     0.539336  s :     0.539336
      pz      :     0.020851  p :     0.053902
      px      :     0.013317
      py      :     0.019734
 20 H s       :     0.542358  s :     0.542358
      pz      :     0.021506  p :     0.054038
      px      :     0.018542
      py      :     0.013991
 21 O s       :     3.820446  s :     3.820446
      pz      :     1.490116  p :     5.013554
      px      :     1.715426
      py      :     1.808013
      dz2     :     0.010223  d :     0.017813
      dxz     :     0.000708
      dyz     :     0.000755
      dx2y2   :     0.000893
      dxy     :     0.005235
      f0      :     0.000560  f :     0.001131
      f+1     :     0.000047
      f-1     :     0.000069
      f+2     :     0.000011
      f-2     :     0.000086
      f+3     :     0.000089
      f-3     :     0.000269
 22 H s       :     0.595448  s :     0.595448
      pz      :     0.018832  p :     0.045920
      px      :     0.013045
      py      :     0.014044
 23 H s       :     0.531647  s :     0.531647
      pz      :     0.010564  p :     0.059852
      px      :     0.027645
      py      :     0.021643


                     *******************************
                     * LOEWDIN POPULATION ANALYSIS *
                     *******************************

----------------------
LOEWDIN ATOMIC CHARGES
----------------------
   0 O :   -0.360862
   1 H :    0.193319
   2 H :    0.192071
   3 O :   -0.399241
   4 H :    0.189933
   5 H :    0.190640
   6 O :   -0.362911
   7 H :    0.192339
   8 H :    0.191964
   9 O :   -0.402427
  10 H :    0.189472
  11 H :    0.186224
  12 O :   -0.359925
  13 H :    0.190849
  14 H :    0.191040
  15 O :   -0.399560
  16 H :    0.190262
  17 H :    0.187866
  18 O :   -0.363044
  19 H :    0.191928
  20 H :    0.191339
  21 O :   -0.400690
  22 H :    0.190224
  23 H :    0.189189

-------------------------------
LOEWDIN REDUCED ORBITAL CHARGES
-------------------------------
  0 O s       :     3.471608  s :     3.471608
      pz      :     1.414604  p :     4.857462
      px      :     1.643296
      py      :     1.799562
      dz2     :     0.002138  d :     0.029715
      dxz     :     0.011350
      dyz     :     0.008604
      dx2y2   :     0.002861
      dxy     :     0.004763
      f0      :     0.000058  f :     0.002076
      f+1     :     0.000485
      f-1     :     0.000488
      f+2     :     0.000332
      f-2     :     0.000498
      f+3     :     0.000063
      f-3     :     0.000151
  1 H s       :     0.628494  s :     0.628494
      pz      :     0.075798  p :     0.178187
      px      :     0.040500
      py      :     0.061889
  2 H s       :     0.626336  s :     0.626336
      pz      :     0.066346  p :     0.181594
      px      :     0.070188
      py      :     0.045060
  3 O s       :     3.476481  s :     3.476481
      pz      :     1.835050  p :     4.891967
      px      :     1.641615
      py      :     1.415302
      dz2     :     0.004366  d :     0.028718
      dxz     :     0.003454
      dyz     :     0.002047
      dx2y2   :     0.008248
      dxy     :     0.010603
      f0      :     0.000183  f :     0.002076
      f+1     :     0.000127
      f-1     :     0.000471
      f+2     :     0.000090
      f-2     :     0.000213
      f+3     :     0.000438
      f-3     :     0.000554
  4 H s       :     0.601112  s :     0.601112
      pz      :     0.044949  p :     0.208955
      px      :     0.102225
      py      :     0.061781
  5 H s       :     0.648086  s :     0.648086
      pz      :     0.044206  p :     0.161274
      px      :     0.040323
      py      :     0.076745
  6 O s       :     3.475256  s :     3.475256
      pz      :     1.637132  p :     4.855626
      px      :     1.657776
      py      :     1.560718
      dz2     :     0.001482  d :     0.029968
      dxz     :     0.009082
      dyz     :     0.012935
      dx2y2   :     0.000561
      dxy     :     0.005910
      f0      :     0.000190  f :     0.002060
      f+1     :     0.000182
      f-1     :     0.000278
      f+2     :     0.000051
      f-2     :     0.000964
      f+3     :     0.000286
      f-3     :     0.000109
  7 H s       :     0.628214  s :     0.628214
      pz      :     0.063819  p :     0.179447
      px      :     0.050433
      py      :     0.065195
  8 H s       :     0.628319  s :     0.628319
      pz      :     0.065266  p :     0.179717
      px      :     0.057997
      py      :     0.056455
  9 O s       :     3.476554  s :     3.476554
      pz      :     1.603020  p :     4.895138
      px      :     1.581980
      py      :     1.710138
      dz2     :     0.005219  d :     0.028665
      dxz     :     0.009892
      dyz     :     0.006622
      dx2y2   :     0.000723
      dxy     :     0.006208
      f0      :     0.000147  f :     0.002070
      f+1     :     0.000499
      f-1     :     0.000295
      f+2     :     0.000057
      f-2     :     0.000617
      f+3     :     0.000053
      f-3     :     0.000402
 10 H s       :     0.648862  s :     0.648862
      pz      :     0.069345  p :     0.161667
      px      :     0.046432
      py      :     0.045889
 11 H s       :     0.599222  s :     0.599222
      pz      :     0.036963  p :     0.214554
      px      :     0.104915
      py      :     0.072677
 12 O s       :     3.470433  s :     3.470433
      pz      :     1.746208  p :     4.857580
      px      :     1.595104
      py      :     1.516268
      dz2     :     0.001441  d :     0.029819
      dxz     :     0.007687
      dyz     :     0.010169
      dx2y2   :     0.005332
      dxy     :     0.005191
      f0      :     0.000362  f :     0.002092
      f+1     :     0.000063
      f-1     :     0.000047
      f+2     :     0.000658
      f-2     :     0.000414
      f+3     :     0.000137
      f-3     :     0.000411
 13 H s       :     0.626160  s :     0.626160
      pz      :     0.062335  p :     0.182992
      px      :     0.077202
      py      :     0.043455
 14 H s       :     0.626241  s :     0.626241
      pz      :     0.061122  p :     0.182719
      px      :     0.037216
      py      :     0.084381
 15 O s       :     3.475886  s :     3.475886
      pz      :     1.842209  p :     4.892882
      px      :     1.403070
      py      :     1.647602
      dz2     :     0.004628  d :     0.028719
      dxz     :     0.001853
      dyz     :     0.003043
      dx2y2   :     0.001641
      dxy     :     0.017554
      f0      :     0.000153  f :     0.002073
      f+1     :     0.000451
      f-1     :     0.000204
      f+2     :     0.000031
      f-2     :     0.000220
      f+3     :     0.000164
      f-3     :     0.000851
 16 H s       :     0.648423  s :     0.648423
      pz      :     0.044359  p :     0.161315
      px      :     0.066206
      py      :     0.050749
 17 H s       :     0.600959  s :     0.600959
      pz      :     0.042774  p :     0.211175
      px      :     0.094217
      py      :     0.074183
 18 O s       :     3.474247  s :     3.474247
      pz      :     1.418758  p :     4.856929
      px      :     1.807818
      py      :     1.630353
      dz2     :     0.001758  d :     0.029819
      dxz     :     0.005579
      dyz     :     0.014891
      dx2y2   :     0.002943
      dxy     :     0.004648
      f0      :     0.000044  f :     0.002048
      f+1     :     0.000332
      f-1     :     0.000626
      f+2     :     0.000444
      f-2     :     0.000405
      f+3     :     0.000048
      f-3     :     0.000149
 19 H s       :     0.627294  s :     0.627294
      pz      :     0.067809  p :     0.180778
      px      :     0.040885
      py      :     0.072085
 20 H s       :     0.627616  s :     0.627616
      pz      :     0.075038  p :     0.181045
      px      :     0.059108
      py      :     0.046899
 21 O s       :     3.475377  s :     3.475377
      pz      :     1.470651  p :     4.894817
      px      :     1.674257
      py      :     1.749909
      dz2     :     0.016502  d :     0.028427
      dxz     :     0.001467
      dyz     :     0.001615
      dx2y2   :     0.001085
      dxy     :     0.007758
      f0      :     0.001172  f :     0.002070
      f+1     :     0.000130
      f-1     :     0.000105
      f+2     :     0.000025
      f-2     :     0.000121
      f+3     :     0.000086
      f-3     :     0.000431
 22 H s       :     0.648376  s :     0.648376
      pz      :     0.083920  p :     0.161399
      px      :     0.037163
      py      :     0.040317
 23 H s       :     0.602258  s :     0.602258
      pz      :     0.031385  p :     0.208554
      px      :     0.101298
      py      :     0.075871


                      *****************************
                      * MAYER POPULATION ANALYSIS *
                      *****************************

  NA   - Mulliken gross atomic population
  ZA   - Total nuclear charge
  QA   - Mulliken gross atomic charge
  VA   - Mayer's total valence
  BVA  - Mayer's bonded valence
  FA   - Mayer's free valence

  ATOM       NA         ZA         QA         VA         BVA        FA
  0 O      8.7326     8.0000    -0.7326     1.8225     1.8225     0.0000
  1 H      0.6013     1.0000     0.3987     0.8679     0.8679    -0.0000
  2 H      0.5931     1.0000     0.4069     0.8659     0.8659     0.0000
  3 O      8.8498     8.0000    -0.8498     1.6758     1.6758    -0.0000
  4 H      0.5941     1.0000     0.4059     0.8799     0.8799    -0.0000
  5 H      0.6414     1.0000     0.3586     0.8959     0.8959    -0.0000
  6 O      8.7166     8.0000    -0.7166     1.8337     1.8337    -0.0000
  7 H      0.5965     1.0000     0.4035     0.8657     0.8657    -0.0000
  8 H      0.5998     1.0000     0.4002     0.8699     0.8699     0.0000
  9 O      8.8455     8.0000    -0.8455     1.6602     1.6602     0.0000
 10 H      0.6427     1.0000     0.3573     0.8983     0.8983     0.0000
 11 H      0.5850     1.0000     0.4150     0.8668     0.8668     0.0000
 12 O      8.7417     8.0000    -0.7417     1.8170     1.8170     0.0000
 13 H      0.5934     1.0000     0.4066     0.8654     0.8654     0.0000
 14 H      0.5961     1.0000     0.4039     0.8651     0.8651    -0.0000
 15 O      8.8424     8.0000    -0.8424     1.6675     1.6675     0.0000
 16 H      0.6421     1.0000     0.3579     0.8974     0.8974    -0.0000
 17 H      0.5885     1.0000     0.4115     0.8707     0.8707     0.0000
 18 O      8.7218     8.0000    -0.7218     1.8353     1.8353     0.0000
 19 H      0.5932     1.0000     0.4068     0.8642     0.8642     0.0000
 20 H      0.5964     1.0000     0.4036     0.8658     0.8658     0.0000
 21 O      8.8529     8.0000    -0.8529     1.6758     1.6758    -0.0000
 22 H      0.6414     1.0000     0.3586     0.8963     0.8963     0.0000
 23 H      0.5915     1.0000     0.4085     0.8747     0.8747    -0.0000

  Mayer bond orders larger than 0.1
B(  0-O ,  1-H ) :   0.8539 B(  0-O ,  2-H ) :   0.8442 B(  0-O , 17-H ) :   0.1217 
B(  3-O ,  4-H ) :   0.7466 B(  3-O ,  5-H ) :   0.8740 B(  4-H , 18-O ) :   0.1320 
B(  6-O ,  7-H ) :   0.8515 B(  6-O ,  8-H ) :   0.8518 B(  6-O , 23-H ) :   0.1229 
B(  9-O , 10-H ) :   0.8749 B(  9-O , 11-H ) :   0.7438 B( 11-H , 12-O ) :   0.1234 
B( 12-O , 13-H ) :   0.8443 B( 12-O , 14-H ) :   0.8469 B( 15-O , 16-H ) :   0.8745 
B( 15-O , 17-H ) :   0.7488 B( 18-O , 19-H ) :   0.8486 B( 18-O , 20-H ) :   0.8506 
B( 21-O , 22-H ) :   0.8739 B( 21-O , 23-H ) :   0.7504 

-------
TIMINGS
-------

Total SCF time: 0 days 0 hours 6 min 34 sec 

Total time                  ....     394.683 sec
Sum of individual times     ....     354.170 sec  ( 89.7%)

Fock matrix formation       ....     333.685 sec  ( 84.5%)
  Coulomb formation         ....     284.948 sec  ( 85.4% of F)
  Split-RI-J                ....      14.710 sec  (  4.4% of F)
  Chain of spheres X        ....     320.180 sec  ( 96.0% of F)
  COS-X 1 center corr.      ....       0.000 sec  (  0.0% of F)
  XC integration            ....      48.696 sec  ( 14.6% of F)
    Basis function eval.    ....      20.150 sec  ( 41.4% of XC)
    Density eval.           ....       7.866 sec  ( 16.2% of XC)
    XC-Functional eval.     ....       5.067 sec  ( 10.4% of XC)
    XC-Potential eval.      ....      14.758 sec  ( 30.3% of XC)
Diagonalization             ....       0.271 sec  (  0.1%)
Density matrix formation    ....       0.035 sec  (  0.0%)
Population analysis         ....       0.167 sec  (  0.0%)
Initial guess               ....       7.750 sec  (  2.0%)
Orbital Transformation      ....       0.000 sec  (  0.0%)
Orbital Orthonormalization  ....       0.000 sec  (  0.0%)
DIIS solution               ....       0.081 sec  (  0.0%)
SOSCF solution              ....       0.325 sec  (  0.1%)
Grid generation             ....      11.857 sec  (  3.0%)

Entering the calculation of the dispersion correction...

Checking the input atom types...

Done


-------------------------------------------------------------------------------
                          DFT DISPERSION CORRECTION                            
                                                                               
                                DFTD3 V2.1  Rev 6                               
                              USING zero damping                               
-------------------------------------------------------------------------------
The omegaB97X-D3 functional is recognized. Fit by Chai et al.
Active option DFTDOPT                   ...         3   

molecular C6(AA) [au] = 2847.163610 


            DFT-D V3
 parameters
 s6 scaling factor         :     1.0000 
 rs6 scaling factor        :     1.2810 
 s8 scaling factor         :     1.0000 
 rs8 scaling factor        :     1.0940 
 Damping factor alpha6     :    14.0000 
 Damping factor alpha8     :    16.0000 
 ad hoc parameters k1-k3   :    16.0000     1.3333    -4.0000 

 Edisp/kcal,au: -7.722761892293  -0.012307003141 
 E6   /kcal   :  -4.109900145 
 E8   /kcal   :  -3.612861747 
 % E8         :  46.781990658 

-------------------------   ----------------
Dispersion correction           -0.012307003
-------------------------   ----------------


-------------------------   --------------------
FINAL SINGLE POINT ENERGY      -611.650053137435
-------------------------   --------------------


                            ***************************************
                            *     ORCA property calculations      *
                            ***************************************

                                    ---------------------
                                    Active property flags
                                    ---------------------
   (+) Dipole Moment


------------------------------------------------------------------------------
                       ORCA ELECTRIC PROPERTIES CALCULATION
------------------------------------------------------------------------------

Dipole Moment Calculation                       ... on
Quadrupole Moment Calculation                   ... off
Polarizability Calculation                      ... off
GBWName                                         ... 1_wb98x-ma-def2-TZVP-GasPhase_onB3LYP_8_waters.gbw
Electron density file                           ... 1_wb98x-ma-def2-TZVP-GasPhase_onB3LYP_8_waters.scfp.tmp

-------------
DIPOLE MOMENT
-------------
                                X             Y             Z
Electronic contribution:     -0.00693      -0.00672      -0.00951
Nuclear contribution   :     -0.02587       0.02279       0.02410
                        -----------------------------------------
Total Dipole Moment    :     -0.03280       0.01606       0.01459
                        -----------------------------------------
Magnitude (a.u.)       :      0.03933
Magnitude (Debye)      :      0.09996


Timings for individual modules:

Sum of individual times         ...      407.627 sec (=   6.794 min)
GTO integral calculation        ...        2.675 sec (=   0.045 min)   0.7 %
SCF iterations                  ...      404.952 sec (=   6.749 min)  99.3 %
                             ****ORCA TERMINATED NORMALLY****
TOTAL RUN TIME: 0 days 0 hours 6 minutes 47 seconds 858 msec
cp: cannot stat /scratch/slurm-2199334/*.{prop}: No such file or directory
