61
Energy:  -1427.83018422
O   -0.94666432   1.54503541  -2.23132281
H   -0.52785990   2.35994760  -1.95427978
H   -0.29278524   1.11427216  -2.78188345
O    3.24117794   1.49247940   1.69292891
H    4.02307856   1.83296507   2.12759290
H    3.09524005   2.08962085   0.95920139
O    0.16534917   3.79566270  -1.11682693
H    0.07304559   4.69103142  -1.44244441
H   -0.20672960   3.82133711  -0.23527713
O    0.25026134  -2.18486264   1.19176335
H    0.26581277  -1.32841849   0.76457086
H    0.89279718  -2.70528344   0.70953754
O   -0.96018892   3.46574766   1.37174917
H   -0.40835544   2.87699701   1.88661258
H   -1.32426425   4.07572666   2.01331493
O    0.86450596   0.06310344  -3.67728352
H    0.68332431  -0.01972057  -4.61352347
H    0.66106549  -0.79972887  -3.31622365
O    3.21939906   1.05692836  -2.61783730
H    3.88101975   1.13931138  -3.30464364
H    2.44228495   0.73012377  -3.07118513
O   -4.10624552   0.36338849   1.63259431
H   -3.75563161  -0.27441855   2.25428869
H   -5.04787101   0.37327254   1.80427891
O    0.58183831   1.49458840   2.48742758
H    0.36148413   0.73315624   3.02398788
H    1.53833687   1.49366260   2.45080125
O    3.05359914  -0.43433742  -0.31136345
H    3.27901048   0.06469628  -1.09646659
H    3.32801054   0.12484018   0.41544508
O   -2.32880968   1.52759521  -0.00689457
H   -1.95270730   2.24372758   0.50489960
H   -3.00658898   1.15823973   0.55916515
O    2.14032844  -2.98995748  -0.66789838
H    2.62621999  -2.17621404  -0.53387278
H    2.81686689  -3.65752965  -0.78136630
O   -0.20225414  -0.96272356   3.59100183
H    0.26346646  -1.35328528   4.33045955
H    0.04501077  -1.50197146   2.83980039
O    0.09242386  -2.22314665  -2.36406788
H   -0.54174824  -2.93996637  -2.34899836
H    0.82243715  -2.53731051  -1.83057606
O   -2.90457379  -1.55242914   3.19028116
H   -2.01038666  -1.30011601   3.42049696
H   -3.23804093  -1.99381898   3.97143833
O   -2.37369614  -2.59750343   0.61312295
H   -2.79515590  -2.37631397   1.44359193
H   -1.43766495  -2.60378310   0.81321798
O    0.43680293   0.26216421   0.08394530
H    0.47031378   0.76016341   0.90071067
H    1.35430400   0.10588465  -0.13966225
O   -1.95219129  -0.70277818  -1.33447591
H   -2.31397126  -1.27415164  -0.65706948
H   -1.25627724  -1.22083662  -1.73889021
O    2.69737445   2.85719843  -0.56820419
H    2.93461572   2.37686958  -1.36144604
H    1.85176704   3.25618708  -0.77311392
O   -1.88490544  -4.01072319  -1.76693032
H   -2.23150186  -3.70783122  -0.92766920
H   -2.44912807  -4.74522666  -2.00856917
H   -1.68742401   0.77102042  -1.15799972
