61
Energy:  -1427.35804956
O   -1.34589927   1.71059610  -1.84483755
H   -0.88915577   2.50110564  -1.55724082
H   -0.94409220   1.49393320  -2.68616990
O    3.24413575   1.46602734   1.66966501
H    4.07028521   1.86744160   1.93906341
H    3.04344818   1.87256597   0.82664503
O   -0.02062803   3.87989917  -0.86490669
H   -0.06793232   4.79823041  -1.13072973
H   -0.43373123   3.85833931  -0.00170754
O    1.20581694  -2.49844007   2.98974921
H    1.84658071  -2.09923739   2.40128438
H    1.64022001  -3.28507919   3.31948354
O   -1.28505960   3.30215930   1.48702194
H   -0.60126236   2.76156275   1.88250716
H   -1.56312618   3.88951281   2.18982111
O    0.00161981   0.90843299  -4.10934157
H   -0.29788189   0.96530001  -5.01669857
H   -0.05168353  -0.02338887  -3.89697724
O    2.53790913   1.15018434  -3.02643407
H    3.20941737   1.24082063  -3.70252105
H    1.71026220   1.16167360  -3.50716310
O   -2.81569621  -3.25305445  -0.48818426
H   -2.14064218  -3.11312906   0.17586000
H   -3.46909474  -3.80171217  -0.05427539
O    0.59178104   1.51614874   2.33802837
H    0.46585004   0.92381157   3.07931773
H    1.54165892   1.57108664   2.23340670
O    2.85848733  -1.24958903   1.26958729
H    2.77943156  -1.32589580   0.31871437
H    3.12736329  -0.34267683   1.41603801
O   -2.59449214   1.12427599   0.40236274
H   -2.60608301   0.54668017   1.16556688
H   -2.29029258   1.96561422   0.74272205
O    2.01214808  -1.01584695  -1.37829388
H    2.36000271  -0.31538236  -1.93018006
H    1.35233205  -0.58685922  -0.83345979
O   -0.07416417  -0.39429986   4.19841841
H    0.12274053  -0.34758871   5.13398158
H    0.42062078  -1.15204350   3.88657826
O   -0.16051271  -1.54262107  -2.96597148
H   -0.44706793  -2.45477129  -3.01179657
H    0.65135670  -1.57126567  -2.45973105
O   -2.41225353  -0.45759096   2.70873951
H   -1.69135409  -0.33676945   3.32675085
H   -3.18495799  -0.57502200   3.26134208
O   -0.98351550  -2.33031248   1.32581435
H   -1.53863494  -1.79353392   1.89144942
H   -0.24222999  -2.57525644   1.87964654
O    0.02192529  -0.06132731   0.16292501
H   -0.24343820  -0.89621790   0.54863445
H    0.29381628   0.47234643   0.90958388
O   -2.27629720  -0.71179272  -1.47653521
H   -2.68824658  -1.50738019  -1.13953354
H   -1.56364329  -1.02742410  -2.03217277
O    2.40265745   2.54731563  -0.65126753
H    2.51880382   2.13351976  -1.50655394
H    1.61348919   3.08036115  -0.74774434
O   -1.31373233  -3.98260001  -2.71033242
H   -1.51044613  -4.85595538  -3.04913314
H   -1.90271415  -3.87672479  -1.96325632
H   -1.99954030   0.66903156  -0.91512201
