
                                 *****************
                                 * O   R   C   A *
                                 *****************

           --- An Ab Initio, DFT and Semiempirical electronic structure package ---

                  #######################################################
                  #                        -***-                        #
                  #          Department of theory and spectroscopy      #
                  #               Directorship: Frank Neese             #
                  #        Max Planck Institute fuer Kohlenforschung    #
                  #                Kaiser Wilhelm Platz 1               #
                  #                 D-45470 Muelheim/Ruhr               #
                  #                      Germany                        #
                  #                                                     #
                  #                  All rights reserved                #
                  #                        -***-                        #
                  #######################################################


                         Program Version 4.2.0 -  RELEASE  -


 With contributions from (in alphabetic order):
   Daniel Aravena         : Magnetic Suceptibility
   Michael Atanasov       : Ab Initio Ligand Field Theory (pilot matlab implementation)
   Alexander A. Auer      : GIAO ZORA, VPT2
   Ute Becker             : Parallelization
   Giovanni Bistoni       : ED, misc. LED, open-shell LED, HFLED
   Martin Brehm           : Molecular dynamics
   Dmytro Bykov           : SCF Hessian
   Vijay G. Chilkuri      : MRCI spin determinant printing, contributions to CSF-ICE
   Dipayan Datta          : RHF DLPNO-CCSD density
   Achintya Kumar Dutta   : EOM-CC, STEOM-CC
   Dmitry Ganyushin       : Spin-Orbit,Spin-Spin,Magnetic field MRCI
   Miquel Garcia          : C-PCM Hessian, Gaussian charge scheme
   Yang Guo               : DLPNO-NEVPT2, CIM, IAO-localization
   Andreas Hansen         : Spin unrestricted coupled pair/coupled cluster methods
   Benjamin Helmich-Paris : CASSCF linear response (MC-RPA)
   Lee Huntington         : MR-EOM, pCC
   Robert Izsak           : Overlap fitted RIJCOSX, COSX-SCS-MP3, EOM
   Christian Kollmar      : KDIIS, OOCD, Brueckner-CCSD(T), CCSD density
   Simone Kossmann        : Meta GGA functionals, TD-DFT gradient, OOMP2, MP2 Hessian
   Martin Krupicka        : AUTO-CI
   Lucas Lang             : DCDCAS
   Dagmar Lenk            : GEPOL surface, SMD
   Dimitrios Liakos       : Extrapolation schemes; Compound Job, initial MDCI parallelization
   Dimitrios Manganas     : Further ROCIS development; embedding schemes
   Dimitrios Pantazis     : SARC Basis sets
   Taras Petrenko         : DFT Hessian,TD-DFT gradient, ASA, ECA, R-Raman, ABS, FL, XAS/XES, NRVS
   Peter Pinski           : DLPNO-MP2, DLPNO-MP2 Gradient
   Christoph Reimann      : Effective Core Potentials
   Marius Retegan         : Local ZFS, SOC
   Christoph Riplinger    : Optimizer, TS searches, QM/MM, DLPNO-CCSD(T), (RO)-DLPNO pert. Triples
   Tobias Risthaus        : Range-separated hybrids, TD-DFT gradient, RPA, STAB
   Michael Roemelt        : Original ROCIS implementation
   Masaaki Saitow         : Open-shell DLPNO-CCSD energy and density
   Barbara Sandhoefer     : DKH picture change effects
   Avijit Sen             : IP-ROCIS
   Kantharuban Sivalingam : CASSCF convergence, NEVPT2, FIC-MRCI
   Bernardo de Souza      : ESD, SOC TD-DFT
   Georgi Stoychev        : AutoAux, RI-MP2 NMR
   Willem Van den Heuvel  : Paramagnetic NMR
   Boris Wezisla          : Elementary symmetry handling
   Frank Wennmohs         : Technical directorship


 We gratefully acknowledge several colleagues who have allowed us to
 interface, adapt or use parts of their codes:
   Stefan Grimme, W. Hujo, H. Kruse,             : VdW corrections, initial TS optimization,
                  C. Bannwarth                     DFT functionals, gCP, sTDA/sTD-DF
   Ed Valeev, F. Pavosevic, A. Kumar             : LibInt (2-el integral package), F12 methods
   Garnet Chan, S. Sharma, J. Yang, R. Olivares  : DMRG
   Ulf Ekstrom                                   : XCFun DFT Library
   Mihaly Kallay                                 : mrcc  (arbitrary order and MRCC methods)
   Andreas Klamt, Michael Diedenhofen            : otool_cosmo (COSMO solvation model)
   Jiri Pittner, Ondrej Demel                    : Mk-CCSD
   Frank Weinhold                                : gennbo (NPA and NBO analysis)
   Christopher J. Cramer and Donald G. Truhlar   : smd solvation model
   Lars Goerigk                                  : TD-DFT with DH, B97 family of functionals
   V. Asgeirsson, H. Jonsson                     : NEB implementation
   FAccTs GmbH                                   : IRC, NEB, NEB-TS, Multilevel, MM, QM/MM, CI optimization
   S Lehtola, MJT Oliveira, MAL Marques          : LibXC Library


 Your calculation uses the libint2 library for the computation of 2-el integrals
 For citations please refer to: http://libint.valeyev.net

 Your ORCA version has been built with support for libXC version: 4.2.3
 For citations please refer to: https://tddft.org/programs/libxc/

 This ORCA versions uses:
   CBLAS   interface :  Fast vector & matrix operations
   LAPACKE interface :  Fast linear algebra routines
   SCALAPACK package :  Parallel linear algebra routines


----- Orbital basis set information -----
Your calculation utilizes the basis: def2-TZVP
   F. Weigend and R. Ahlrichs, Phys. Chem. Chem. Phys. 7, 3297 (2005).

================================================================================
                                        WARNINGS
                       Please study these warnings very carefully!
================================================================================


WARNING: The frozen-core approximation for MP2-gradient calculations is turned on by default.

INFO   : the flag for use of LIBINT has been found!

================================================================================
                                       INPUT FILE
================================================================================
NAME = 12h2o.su.etal.mol0,1,2,5,10,11-orca.engrad-mp2.def2tzvp.frozencore.inp
|  1> # 12h2o.su.etal.mol0,1,2,5,10,11
|  2> ! MP2 def2-TZVP EnGrad TightSCF
|  3> 
|  4> %pal
|  5>     nprocs 6
|  6> end
|  7> 
|  8> %maxcore 8000
|  9> 
| 10> %scf
| 11>     ConvForced true
| 12> end
| 13> 
| 14> *xyz 0 1
| 15> O   1.794470000   0.923410000   2.768350000
| 16> H   2.338250000   1.359750000   3.430940000
| 17> H   0.879480000   1.303000000   2.865760000
| 18> O  -1.794470000  -0.923410000   2.768350000
| 19> H  -2.338250000  -1.359750000   3.430940000
| 20> H  -0.879480000  -1.303000000   2.865760000
| 21> O   0.923410000  -1.794470000  -2.768350000
| 22> H   1.359750000  -2.338250000  -3.430940000
| 23> H   1.303000000  -0.879480000  -2.865760000
| 24> O   0.885520000  -1.737840000   0.052730000
| 25> H   1.284090000  -0.839590000   0.017130000
| 26> H   1.032320000  -2.090180000  -0.841890000
| 27> O  -0.923410000   1.794470000  -2.768350000
| 28> H  -1.359750000   2.338250000  -3.430940000
| 29> H  -1.303000000   0.879480000  -2.865760000
| 30> O  -0.741530000   1.752130000   2.896280000
| 31> H  -0.920500000   2.036450000   1.984040000
| 32> H  -1.242140000   0.921210000   2.984230000
| 33> *
| 34> 
| 35>                          ****END OF INPUT****
================================================================================

                     *******************************
                     * Energy+Gradient Calculation *
                     *******************************

---------------------------------
CARTESIAN COORDINATES (ANGSTROEM)
---------------------------------
  O      1.794470    0.923410    2.768350
  H      2.338250    1.359750    3.430940
  H      0.879480    1.303000    2.865760
  O     -1.794470   -0.923410    2.768350
  H     -2.338250   -1.359750    3.430940
  H     -0.879480   -1.303000    2.865760
  O      0.923410   -1.794470   -2.768350
  H      1.359750   -2.338250   -3.430940
  H      1.303000   -0.879480   -2.865760
  O      0.885520   -1.737840    0.052730
  H      1.284090   -0.839590    0.017130
  H      1.032320   -2.090180   -0.841890
  O     -0.923410    1.794470   -2.768350
  H     -1.359750    2.338250   -3.430940
  H     -1.303000    0.879480   -2.865760
  O     -0.741530    1.752130    2.896280
  H     -0.920500    2.036450    1.984040
  H     -1.242140    0.921210    2.984230

----------------------------
CARTESIAN COORDINATES (A.U.)
----------------------------
  NO LB      ZA    FRAG     MASS         X           Y           Z
   0 O     8.0000    0    15.999    3.391057    1.744992    5.231423
   1 H     1.0000    0     1.008    4.418652    2.569555    6.483537
   2 H     1.0000    0     1.008    1.661976    2.462313    5.415502
   3 O     8.0000    0    15.999   -3.391057   -1.744992    5.231423
   4 H     1.0000    0     1.008   -4.418652   -2.569555    6.483537
   5 H     1.0000    0     1.008   -1.661976   -2.462313    5.415502
   6 O     8.0000    0    15.999    1.744992   -3.391057   -5.231423
   7 H     1.0000    0     1.008    2.569555   -4.418652   -6.483537
   8 H     1.0000    0     1.008    2.462313   -1.661976   -5.415502
   9 O     8.0000    0    15.999    1.673390   -3.284042    0.099645
  10 H     1.0000    0     1.008    2.426578   -1.586595    0.032371
  11 H     1.0000    0     1.008    1.950802   -3.949868   -1.590942
  12 O     8.0000    0    15.999   -1.744992    3.391057   -5.231423
  13 H     1.0000    0     1.008   -2.569555    4.418652   -6.483537
  14 H     1.0000    0     1.008   -2.462313    1.661976   -5.415502
  15 O     8.0000    0    15.999   -1.401289    3.311046    5.473176
  16 H     1.0000    0     1.008   -1.739493    3.848333    3.749292
  17 H     1.0000    0     1.008   -2.347304    1.740835    5.639377

--------------------------------
INTERNAL COORDINATES (ANGSTROEM)
--------------------------------
 O      0   0   0     0.000000000000     0.00000000     0.00000000
 H      1   0   0     0.961828878803     0.00000000     0.00000000
 H      1   2   0     0.995381322057   106.21731035     0.00000000
 O      3   1   2     3.480861789658   117.35405144   223.81249033
 H      4   3   1     0.961828878803   134.84484566    98.22461471
 H      4   3   1     0.995381322057    62.29205096    12.66575463
 O      6   4   3     5.935920367146   102.58474291   273.48279218
 H      7   6   4     0.961828878803   146.97742434   224.01286022
 H      7   6   4     0.995381322057    97.62005672    87.72090689
 O      7   6   4     2.821902722526    17.32744736   169.52589616
 H     10   7   6     0.983350632989    88.66470709   258.45499027
 H     10   7   6     0.972645187106    21.75017499   124.29821266
 O      9   7   6     3.480861789658   117.35405144   293.09792988
 H     13   9   7     0.961828878803   134.84484566   261.77538529
 H     13   9   7     0.995381322057    62.29205096   347.33424537
 O      3   1   2     1.682356278379   171.61043709   195.73896161
 H     16   3   1     0.972136791249   103.79460456   289.35412162
 H     16   3   1     0.974050112161   105.61118924    38.30604821

---------------------------
INTERNAL COORDINATES (A.U.)
---------------------------
 O      0   0   0     0.000000000000     0.00000000     0.00000000
 H      1   0   0     1.817593168635     0.00000000     0.00000000
 H      1   2   0     1.880998097508   106.21731035     0.00000000
 O      3   1   2     6.577875492484   117.35405144   223.81249033
 H      4   3   1     1.817593168635   134.84484566    98.22461471
 H      4   3   1     1.880998097508    62.29205096    12.66575463
 O      6   4   3    11.217263846671   102.58474291   273.48279218
 H      7   6   4     1.817593168635   146.97742434   224.01286022
 H      7   6   4     1.880998097508    97.62005672    87.72090689
 O      7   6   4     5.332623322141    17.32744736   169.52589616
 H     10   7   6     1.858263389967    88.66470709   258.45499027
 H     10   7   6     1.838033029106    21.75017499   124.29821266
 O      9   7   6     6.577875492484   117.35405144   293.09792988
 H     13   9   7     1.817593168635   134.84484566   261.77538529
 H     13   9   7     1.880998097508    62.29205096   347.33424537
 O      3   1   2     3.179192625819   171.61043709   195.73896161
 H     16   3   1     1.837072300170   103.79460456   289.35412162
 H     16   3   1     1.840687952699   105.61118924    38.30604821

---------------------
BASIS SET INFORMATION
---------------------
There are 2 groups of distinct atoms

 Group   1 Type O   : 11s6p2d1f contracted to 5s3p2d1f pattern {62111/411/11/1}
 Group   2 Type H   : 5s1p contracted to 3s1p pattern {311/1}

Atom   0O    basis set group =>   1
Atom   1H    basis set group =>   2
Atom   2H    basis set group =>   2
Atom   3O    basis set group =>   1
Atom   4H    basis set group =>   2
Atom   5H    basis set group =>   2
Atom   6O    basis set group =>   1
Atom   7H    basis set group =>   2
Atom   8H    basis set group =>   2
Atom   9O    basis set group =>   1
Atom  10H    basis set group =>   2
Atom  11H    basis set group =>   2
Atom  12O    basis set group =>   1
Atom  13H    basis set group =>   2
Atom  14H    basis set group =>   2
Atom  15O    basis set group =>   1
Atom  16H    basis set group =>   2
Atom  17H    basis set group =>   2


           ************************************************************
           *        Program running with 6 parallel MPI-processes     *
           *              working on a common directory               *
           ************************************************************
------------------------------------------------------------------------------
                           ORCA GTO INTEGRAL CALCULATION
------------------------------------------------------------------------------

                         BASIS SET STATISTICS AND STARTUP INFO

 # of primitive gaussian shells          ...  192
 # of primitive gaussian functions       ...  372
 # of contracted shells                  ...  114
 # of contracted basis functions         ...  258
 Highest angular momentum                ...    3
 Maximum contraction depth               ...    6
 Integral package used                   ... LIBINT
 Integral threshhold            Thresh   ...  2.500e-11
 Primitive cut-off              TCut     ...  2.500e-12


------------------------------ INTEGRAL EVALUATION ----------------------------


 * One electron integrals 
 Pre-screening matrix                    ... done
 Shell pair data                         ... done (   0.001 sec)



           ************************************************************
           *        Program running with 6 parallel MPI-processes     *
           *              working on a common directory               *
           ************************************************************
-------------------------------------------------------------------------------
                                 ORCA SCF
-------------------------------------------------------------------------------

------------
SCF SETTINGS
------------
Hamiltonian:
 Ab initio Hamiltonian  Method          .... Hartree-Fock(GTOs)


General Settings:
 Integral files         IntName         .... 12h2o.su.etal.mol0,1,2,5,10,11-orca.engrad-mp2.def2tzvp.frozencore
 Hartree-Fock type      HFTyp           .... RHF
 Total Charge           Charge          ....    0
 Multiplicity           Mult            ....    1
 Number of Electrons    NEL             ....   60
 Basis Dimension        Dim             ....  258
 Nuclear Repulsion      ENuc            ....    236.6253275193 Eh

Convergence Acceleration:
 DIIS                   CNVDIIS         .... on
   Start iteration      DIISMaxIt       ....    12
   Startup error        DIISStart       ....  0.200000
   # of expansion vecs  DIISMaxEq       ....     5
   Bias factor          DIISBfac        ....   1.050
   Max. coefficient     DIISMaxC        ....  10.000
 Newton-Raphson         CNVNR           .... off
 SOSCF                  CNVSOSCF        .... on
   Start iteration      SOSCFMaxIt      ....   150
   Startup grad/error   SOSCFStart      ....  0.003300
 Level Shifting         CNVShift        .... on
   Level shift para.    LevelShift      ....    0.2500
   Turn off err/grad.   ShiftErr        ....    0.0010
 Zerner damping         CNVZerner       .... off
 Static damping         CNVDamp         .... on
   Fraction old density DampFac         ....    0.7000
   Max. Damping (<1)    DampMax         ....    0.9800
   Min. Damping (>=0)   DampMin         ....    0.0000
   Turn off err/grad.   DampErr         ....    0.1000
 Fernandez-Rico         CNVRico         .... off

SCF Procedure:
 Maximum # iterations   MaxIter         ....   125
 SCF integral mode      SCFMode         .... Direct
   Integral package                     .... LIBINT
 Reset frequency        DirectResetFreq ....    20
 Integral Threshold     Thresh          ....  2.500e-11 Eh
 Primitive CutOff       TCut            ....  2.500e-12 Eh

Convergence Tolerance:
 Convergence Check Mode ConvCheckMode   .... Total+1el-Energy
 Convergence forced     ConvForced      .... 1
 Energy Change          TolE            ....  1.000e-08 Eh
 1-El. energy change                    ....  1.000e-05 Eh
 Orbital Gradient       TolG            ....  1.000e-05
 Orbital Rotation angle TolX            ....  1.000e-05
 DIIS Error             TolErr          ....  5.000e-07


Diagonalization of the overlap matrix:
Smallest eigenvalue                        ... 4.374e-03
Time for diagonalization                   ...    0.010 sec
Threshold for overlap eigenvalues          ... 1.000e-08
Number of eigenvalues below threshold      ... 0
Time for construction of square roots      ...    0.005 sec
Total time needed                          ...    0.016 sec

-------------------
DFT GRID GENERATION
-------------------

General Integration Accuracy     IntAcc      ...  4.340
Radial Grid Type                 RadialGrid  ... Gauss-Chebyshev
Angular Grid (max. acc.)         AngularGrid ... Lebedev-110
Angular grid pruning method      GridPruning ... 3 (G Style)
Weight generation scheme         WeightScheme... Becke
Basis function cutoff            BFCut       ...    1.0000e-11
Integration weight cutoff        WCut        ...    1.0000e-14
Grids for H and He will be reduced by one unit

# of grid points (after initial pruning)     ...  19824 (   0.0 sec)
# of grid points (after weights+screening)   ...  18991 (   0.0 sec)
nearest neighbour list constructed           ...    0.0 sec
Grid point re-assignment to atoms done       ...    0.0 sec
Grid point division into batches done        ...    0.0 sec
Reduced shell lists constructed in    0.0 sec

Total number of grid points                  ...    18991
Total number of batches                      ...      307
Average number of points per batch           ...       61
Average number of grid points per atom       ...     1055
Average number of shells per batch           ...    51.75 (45.40%)
Average number of basis functions per batch  ...   105.04 (40.71%)
Average number of large shells per batch     ...    35.77 (69.12%)
Average number of large basis fcns per batch ...    73.81 (70.27%)
Maximum spatial batch extension              ...  12.83, 18.30, 14.52 au
Average spatial batch extension              ...   0.56,  0.68,  0.59 au

Time for grid setup =    0.055 sec

------------------------------
INITIAL GUESS: MODEL POTENTIAL
------------------------------
Loading Hartree-Fock densities                     ... done
Calculating cut-offs                               ... done
Setting up the integral package                    ... done
Initializing the effective Hamiltonian             ... done
Starting the Coulomb interaction                   ... done (   0.0 sec)
Reading the grid                                   ... done
Mapping shells                                     ... done
Starting the XC term evaluation                    ... done (   0.0 sec)
Transforming the Hamiltonian                       ... done (   0.0 sec)
Diagonalizing the Hamiltonian                      ... done (   0.0 sec)
Back transforming the eigenvectors                 ... done (   0.0 sec)
Now organizing SCF variables                       ... done
                      ------------------
                      INITIAL GUESS DONE (   0.2 sec)
                      ------------------
--------------
SCF ITERATIONS
--------------
ITER       Energy         Delta-E        Max-DP      RMS-DP      [F,P]     Damp
               ***  Starting incremental Fock matrix formation  ***
  0   -455.8009749970   0.000000000000 0.04401653  0.00098466  0.3502370 0.7000
  1   -456.0230735525  -0.222098555452 0.02938665  0.00067840  0.2163341 0.7000
                               ***Turning on DIIS***
  2   -456.1396164709  -0.116542918429 0.01649912  0.00037354  0.1638110 0.7000
  3   -457.1838011488  -1.044184677890 0.00756555  0.00016476  0.1218722 0.7000
  4   -456.9707462892   0.213054859587 0.01693151  0.00037836  0.0862296 0.0000
  5   -456.4086225141   0.562123775138 0.00210703  0.00006129  0.0052757 0.0000
                      *** Initiating the SOSCF procedure ***
                           *** Shutting down DIIS ***
                      *** Re-Reading the Fockian *** 
                      *** Removing any level shift *** 
ITER      Energy       Delta-E        Grad      Rot      Max-DP    RMS-DP
  6   -456.37445697   0.0341655395  0.000817  0.000817  0.001354  0.000037
               *** Restarting incremental Fock matrix formation ***
  7   -456.36323335   0.0112236280  0.000306  0.000437  0.000676  0.000016
  8   -456.36324215  -0.0000088039  0.000146  0.000369  0.000501  0.000014
  9   -456.36324427  -0.0000021153  0.000069  0.000045  0.000098  0.000002
 10   -456.36324444  -0.0000001755  0.000009  0.000008  0.000019  0.000000
                  ***Gradient check signals convergence***
              ***Rediagonalizing the Fockian in SOSCF/NRSCF***

               *****************************************************
               *                     SUCCESS                       *
               *           SCF CONVERGED AFTER  11 CYCLES          *
               *****************************************************


----------------
TOTAL SCF ENERGY
----------------

Total Energy       :         -456.36324444 Eh          -12418.27521 eV

Components:
Nuclear Repulsion  :          236.62532752 Eh            6438.90251 eV
Electronic Energy  :         -692.98857196 Eh          -18857.17772 eV
One Electron Energy:        -1102.09923596 Eh          -29989.64485 eV
Two Electron Energy:          409.11066400 Eh           11132.46713 eV

Virial components:
Potential Energy   :         -912.01538811 Eh          -24817.20039 eV
Kinetic Energy     :          455.65214366 Eh           12398.92518 eV
Virial Ratio       :            2.00156062


---------------
SCF CONVERGENCE
---------------

  Last Energy change         ...   -3.5295e-09  Tolerance :   1.0000e-08
  Last MAX-Density change    ...    4.7591e-06  Tolerance :   1.0000e-07
  Last RMS-Density change    ...    1.3790e-07  Tolerance :   5.0000e-09
  Last Orbital Gradient      ...    2.0867e-06  Tolerance :   1.0000e-05
  Last Orbital Rotation      ...    2.7303e-06  Tolerance :   1.0000e-05

             **** THE GBW FILE WAS UPDATED (12h2o.su.etal.mol0,1,2,5,10,11-orca.engrad-mp2.def2tzvp.frozencore.gbw) ****
             **** DENSITY FILE WAS UPDATED (12h2o.su.etal.mol0,1,2,5,10,11-orca.engrad-mp2.def2tzvp.frozencore.scfp) ****
             **** ENERGY FILE WAS UPDATED (12h2o.su.etal.mol0,1,2,5,10,11-orca.engrad-mp2.def2tzvp.frozencore.en.tmp) ****
             **** THE GBW FILE WAS UPDATED (12h2o.su.etal.mol0,1,2,5,10,11-orca.engrad-mp2.def2tzvp.frozencore.gbw) ****
             **** DENSITY FILE WAS UPDATED (12h2o.su.etal.mol0,1,2,5,10,11-orca.engrad-mp2.def2tzvp.frozencore.scfp) ****
----------------
ORBITAL ENERGIES
----------------

  NO   OCC          E(Eh)            E(eV) 
   0   2.0000     -20.587796      -560.2224 
   1   2.0000     -20.575759      -559.8949 
   2   2.0000     -20.567635      -559.6738 
   3   2.0000     -20.556918      -559.3822 
   4   2.0000     -20.520248      -558.3843 
   5   2.0000     -20.507564      -558.0392 
   6   2.0000      -1.365621       -37.1604 
   7   2.0000      -1.355810       -36.8935 
   8   2.0000      -1.343358       -36.5546 
   9   2.0000      -1.342938       -36.5432 
  10   2.0000      -1.299349       -35.3571 
  11   2.0000      -1.289352       -35.0851 
  12   2.0000      -0.732480       -19.9318 
  13   2.0000      -0.722462       -19.6592 
  14   2.0000      -0.711032       -19.3482 
  15   2.0000      -0.704802       -19.1786 
  16   2.0000      -0.676745       -18.4152 
  17   2.0000      -0.669567       -18.2198 
  18   2.0000      -0.602739       -16.4013 
  19   2.0000      -0.601327       -16.3630 
  20   2.0000      -0.579329       -15.7643 
  21   2.0000      -0.576787       -15.6952 
  22   2.0000      -0.551995       -15.0205 
  23   2.0000      -0.537653       -14.6303 
  24   2.0000      -0.518721       -14.1151 
  25   2.0000      -0.516112       -14.0441 
  26   2.0000      -0.510920       -13.9028 
  27   2.0000      -0.489758       -13.3270 
  28   2.0000      -0.466027       -12.6813 
  29   2.0000      -0.458240       -12.4693 
  30   0.0000       0.100054         2.7226 
  31   0.0000       0.123902         3.3715 
  32   0.0000       0.135135         3.6772 
  33   0.0000       0.159743         4.3468 
  34   0.0000       0.182931         4.9778 
  35   0.0000       0.187634         5.1058 
  36   0.0000       0.203191         5.5291 
  37   0.0000       0.209717         5.7067 
  38   0.0000       0.231259         6.2929 
  39   0.0000       0.281536         7.6610 
  40   0.0000       0.292646         7.9633 
  41   0.0000       0.351407         9.5623 
  42   0.0000       0.467954        12.7337 
  43   0.0000       0.488207        13.2848 
  44   0.0000       0.502493        13.6735 
  45   0.0000       0.515229        14.0201 
  46   0.0000       0.524728        14.2786 
  47   0.0000       0.543406        14.7868 
  48   0.0000       0.554766        15.0960 
  49   0.0000       0.558084        15.1862 
  50   0.0000       0.566710        15.4210 
  51   0.0000       0.575093        15.6491 
  52   0.0000       0.584292        15.8994 
  53   0.0000       0.599074        16.3016 
  54   0.0000       0.610438        16.6109 
  55   0.0000       0.619678        16.8623 
  56   0.0000       0.631899        17.1948 
  57   0.0000       0.639572        17.4036 
  58   0.0000       0.649692        17.6790 
  59   0.0000       0.658060        17.9067 
  60   0.0000       0.670971        18.2580 
  61   0.0000       0.692002        18.8303 
  62   0.0000       0.718070        19.5397 
  63   0.0000       0.734684        19.9918 
  64   0.0000       0.742959        20.2170 
  65   0.0000       0.754326        20.5263 
  66   0.0000       0.767279        20.8787 
  67   0.0000       0.778632        21.1876 
  68   0.0000       0.791515        21.5382 
  69   0.0000       0.797278        21.6951 
  70   0.0000       0.806070        21.9343 
  71   0.0000       0.842530        22.9264 
  72   0.0000       0.850869        23.1533 
  73   0.0000       0.886283        24.1170 
  74   0.0000       0.926991        25.2247 
  75   0.0000       0.936528        25.4842 
  76   0.0000       0.989393        26.9228 
  77   0.0000       1.060142        28.8479 
  78   0.0000       1.377593        37.4862 
  79   0.0000       1.390845        37.8468 
  80   0.0000       1.405986        38.2588 
  81   0.0000       1.413354        38.4593 
  82   0.0000       1.418853        38.6089 
  83   0.0000       1.428724        38.8775 
  84   0.0000       1.430059        38.9139 
  85   0.0000       1.441473        39.2245 
  86   0.0000       1.444429        39.3049 
  87   0.0000       1.491876        40.5960 
  88   0.0000       1.501843        40.8672 
  89   0.0000       1.521071        41.3904 
  90   0.0000       1.549485        42.1636 
  91   0.0000       1.553540        42.2740 
  92   0.0000       1.563233        42.5377 
  93   0.0000       1.611184        43.8425 
  94   0.0000       1.641076        44.6560 
  95   0.0000       1.645776        44.7838 
  96   0.0000       1.788851        48.6771 
  97   0.0000       1.815100        49.3914 
  98   0.0000       1.834677        49.9241 
  99   0.0000       1.844550        50.1928 
 100   0.0000       1.869109        50.8610 
 101   0.0000       1.873506        50.9807 
 102   0.0000       1.888594        51.3913 
 103   0.0000       1.893776        51.5323 
 104   0.0000       1.912106        52.0310 
 105   0.0000       1.978402        53.8350 
 106   0.0000       1.991930        54.2032 
 107   0.0000       1.995891        54.3110 
 108   0.0000       2.001298        54.4581 
 109   0.0000       2.024639        55.0932 
 110   0.0000       2.065467        56.2042 
 111   0.0000       2.083748        56.7017 
 112   0.0000       2.119355        57.6706 
 113   0.0000       2.169822        59.0438 
 114   0.0000       2.259328        61.4794 
 115   0.0000       2.280139        62.0457 
 116   0.0000       2.294152        62.4270 
 117   0.0000       2.317567        63.0642 
 118   0.0000       2.320306        63.1387 
 119   0.0000       2.324484        63.2524 
 120   0.0000       2.330894        63.4268 
 121   0.0000       2.342834        63.7518 
 122   0.0000       2.357992        64.1642 
 123   0.0000       2.379543        64.7507 
 124   0.0000       2.385405        64.9102 
 125   0.0000       2.388114        64.9839 
 126   0.0000       2.394380        65.1544 
 127   0.0000       2.404236        65.4226 
 128   0.0000       2.439527        66.3829 
 129   0.0000       2.488895        67.7263 
 130   0.0000       2.530216        68.8507 
 131   0.0000       2.568475        69.8918 
 132   0.0000       2.573247        70.0216 
 133   0.0000       2.579906        70.2028 
 134   0.0000       2.594377        70.5966 
 135   0.0000       2.622646        71.3658 
 136   0.0000       2.642607        71.9090 
 137   0.0000       2.670378        72.6647 
 138   0.0000       2.687770        73.1379 
 139   0.0000       2.694703        73.3266 
 140   0.0000       2.697891        73.4134 
 141   0.0000       2.711799        73.7918 
 142   0.0000       2.742863        74.6371 
 143   0.0000       2.804535        76.3153 
 144   0.0000       2.884168        78.4822 
 145   0.0000       2.897407        78.8424 
 146   0.0000       2.914914        79.3188 
 147   0.0000       2.946676        80.1831 
 148   0.0000       2.954269        80.3898 
 149   0.0000       2.960135        80.5494 
 150   0.0000       2.981427        81.1287 
 151   0.0000       2.986915        81.2781 
 152   0.0000       2.997284        81.5602 
 153   0.0000       3.012928        81.9860 
 154   0.0000       3.023222        82.2660 
 155   0.0000       3.038156        82.6724 
 156   0.0000       3.056024        83.1586 
 157   0.0000       3.064804        83.3976 
 158   0.0000       3.106463        84.5312 
 159   0.0000       3.116889        84.8149 
 160   0.0000       3.131738        85.2189 
 161   0.0000       3.141151        85.4751 
 162   0.0000       3.225731        87.7766 
 163   0.0000       3.238995        88.1375 
 164   0.0000       3.270576        88.9969 
 165   0.0000       3.284212        89.3679 
 166   0.0000       3.301889        89.8490 
 167   0.0000       3.535831        96.2149 
 168   0.0000       3.974646       108.1556 
 169   0.0000       3.980847       108.3244 
 170   0.0000       3.987080       108.4940 
 171   0.0000       4.050389       110.2167 
 172   0.0000       4.081384       111.0601 
 173   0.0000       4.131061       112.4119 
 174   0.0000       4.288115       116.6855 
 175   0.0000       4.301496       117.0497 
 176   0.0000       4.306245       117.1789 
 177   0.0000       4.326927       117.7417 
 178   0.0000       4.344109       118.2092 
 179   0.0000       4.417035       120.1936 
 180   0.0000       5.529342       150.4611 
 181   0.0000       5.535682       150.6336 
 182   0.0000       5.546271       150.9217 
 183   0.0000       5.547173       150.9463 
 184   0.0000       5.587910       152.0548 
 185   0.0000       5.597955       152.3281 
 186   0.0000       5.615198       152.7973 
 187   0.0000       5.632001       153.2545 
 188   0.0000       5.635433       153.3479 
 189   0.0000       5.684187       154.6746 
 190   0.0000       5.695011       154.9691 
 191   0.0000       5.700615       155.1216 
 192   0.0000       5.789769       157.5476 
 193   0.0000       5.801578       157.8690 
 194   0.0000       5.808666       158.0618 
 195   0.0000       5.826136       158.5372 
 196   0.0000       5.828029       158.5887 
 197   0.0000       5.837127       158.8363 
 198   0.0000       5.845174       159.0553 
 199   0.0000       5.858557       159.4194 
 200   0.0000       5.860873       159.4825 
 201   0.0000       5.885150       160.1431 
 202   0.0000       5.893366       160.3667 
 203   0.0000       5.896669       160.4565 
 204   0.0000       5.903784       160.6501 
 205   0.0000       5.905855       160.7065 
 206   0.0000       5.908831       160.7875 
 207   0.0000       5.913517       160.9150 
 208   0.0000       5.933828       161.4677 
 209   0.0000       5.979142       162.7007 
 210   0.0000       6.406995       174.3432 
 211   0.0000       6.419390       174.6805 
 212   0.0000       6.427258       174.8946 
 213   0.0000       6.489244       176.5813 
 214   0.0000       6.506637       177.0546 
 215   0.0000       6.519270       177.3984 
 216   0.0000       6.671923       181.5522 
 217   0.0000       6.688535       182.0043 
 218   0.0000       6.694400       182.1639 
 219   0.0000       6.716870       182.7753 
 220   0.0000       6.722289       182.9228 
 221   0.0000       6.769306       184.2022 
 222   0.0000       6.817208       185.5056 
 223   0.0000       6.849435       186.3826 
 224   0.0000       6.860231       186.6764 
 225   0.0000       6.862454       186.7369 
 226   0.0000       6.869559       186.9302 
 227   0.0000       6.885438       187.3623 
 228   0.0000       6.892691       187.5597 
 229   0.0000       6.896170       187.6543 
 230   0.0000       6.898462       187.7167 
 231   0.0000       6.903280       187.8478 
 232   0.0000       6.919446       188.2877 
 233   0.0000       6.930150       188.5790 
 234   0.0000       6.944225       188.9620 
 235   0.0000       6.949241       189.0985 
 236   0.0000       6.981817       189.9849 
 237   0.0000       6.996899       190.3953 
 238   0.0000       7.006126       190.6464 
 239   0.0000       7.104978       193.3363 
 240   0.0000       7.355322       200.1485 
 241   0.0000       7.369750       200.5411 
 242   0.0000       7.371673       200.5934 
 243   0.0000       7.406606       201.5440 
 244   0.0000       7.452869       202.8029 
 245   0.0000       7.472888       203.3476 
 246   0.0000       7.485936       203.7027 
 247   0.0000       7.487603       203.7480 
 248   0.0000       7.520926       204.6548 
 249   0.0000       7.549673       205.4371 
 250   0.0000       7.589406       206.5182 
 251   0.0000       7.598050       206.7535 
 252   0.0000      44.807986      1219.2873 
 253   0.0000      44.859129      1220.6790 
 254   0.0000      44.877032      1221.1661 
 255   0.0000      44.947521      1223.0842 
 256   0.0000      44.978512      1223.9275 
 257   0.0000      44.989219      1224.2189 

                    ********************************
                    * MULLIKEN POPULATION ANALYSIS *
                    ********************************

-----------------------
MULLIKEN ATOMIC CHARGES
-----------------------
   0 O :   -0.759168
   1 H :    0.329522
   2 H :    0.391977
   3 O :   -0.728517
   4 H :    0.356127
   5 H :    0.390236
   6 O :   -0.719501
   7 H :    0.358298
   8 H :    0.367418
   9 O :   -0.726384
  10 H :    0.342000
  11 H :    0.377162
  12 O :   -0.708778
  13 H :    0.348499
  14 H :    0.360721
  15 O :   -0.737098
  16 H :    0.363082
  17 H :    0.394407
Sum of atomic charges:   -0.0000000

--------------------------------
MULLIKEN REDUCED ORBITAL CHARGES
--------------------------------
  0 O s       :     3.809317  s :     3.809317
      pz      :     1.715789  p :     4.924604
      px      :     1.409116
      py      :     1.799699
      dz2     :     0.004024  d :     0.023785
      dxz     :     0.004686
      dyz     :     0.005591
      dx2y2   :     0.002303
      dxy     :     0.007181
      f0      :     0.000087  f :     0.001462
      f+1     :     0.000327
      f-1     :     0.000183
      f+2     :     0.000069
      f-2     :     0.000358
      f+3     :     0.000088
      f-3     :     0.000350
  1 H s       :     0.624328  s :     0.624328
      pz      :     0.017085  p :     0.046150
      px      :     0.013940
      py      :     0.015124
  2 H s       :     0.550893  s :     0.550893
      pz      :     0.010777  p :     0.057130
      px      :     0.032293
      py      :     0.014060
  3 O s       :     3.809883  s :     3.809883
      pz      :     1.732409  p :     4.892583
      px      :     1.382030
      py      :     1.778144
      dz2     :     0.004466  d :     0.024551
      dxz     :     0.005100
      dyz     :     0.005552
      dx2y2   :     0.002546
      dxy     :     0.006887
      f0      :     0.000093  f :     0.001500
      f+1     :     0.000352
      f-1     :     0.000184
      f+2     :     0.000060
      f-2     :     0.000355
      f+3     :     0.000091
      f-3     :     0.000365
  4 H s       :     0.598389  s :     0.598389
      pz      :     0.017350  p :     0.045485
      px      :     0.013302
      py      :     0.014833
  5 H s       :     0.568718  s :     0.568718
      pz      :     0.010851  p :     0.041046
      px      :     0.018219
      py      :     0.011975
  6 O s       :     3.811684  s :     3.811684
      pz      :     1.718956  p :     4.881456
      px      :     1.800932
      py      :     1.361567
      dz2     :     0.004097  d :     0.024847
      dxz     :     0.005817
      dyz     :     0.004416
      dx2y2   :     0.002507
      dxy     :     0.008012
      f0      :     0.000083  f :     0.001515
      f+1     :     0.000186
      f-1     :     0.000331
      f+2     :     0.000070
      f-2     :     0.000349
      f+3     :     0.000395
      f-3     :     0.000099
  7 H s       :     0.596254  s :     0.596254
      pz      :     0.017073  p :     0.045448
      px      :     0.014871
      py      :     0.013504
  8 H s       :     0.590909  s :     0.590909
      pz      :     0.010768  p :     0.041673
      px      :     0.013072
      py      :     0.017833
  9 O s       :     3.811422  s :     3.811422
      pz      :     1.576274  p :     4.888307
      px      :     1.874361
      py      :     1.437672
      dz2     :     0.011123  d :     0.025184
      dxz     :     0.002608
      dyz     :     0.002869
      dx2y2   :     0.003174
      dxy     :     0.005411
      f0      :     0.000166  f :     0.001471
      f+1     :     0.000126
      f-1     :     0.000444
      f+2     :     0.000079
      f-2     :     0.000041
      f+3     :     0.000487
      f-3     :     0.000129
 10 H s       :     0.614245  s :     0.614245
      pz      :     0.010368  p :     0.043755
      px      :     0.015201
      py      :     0.018186
 11 H s       :     0.573675  s :     0.573675
      pz      :     0.024243  p :     0.049163
      px      :     0.013560
      py      :     0.011360
 12 O s       :     3.814214  s :     3.814214
      pz      :     1.723023  p :     4.867564
      px      :     1.792722
      py      :     1.351819
      dz2     :     0.004430  d :     0.025453
      dxz     :     0.005921
      dyz     :     0.004852
      dx2y2   :     0.002546
      dxy     :     0.007704
      f0      :     0.000092  f :     0.001546
      f+1     :     0.000192
      f-1     :     0.000346
      f+2     :     0.000070
      f-2     :     0.000359
      f+3     :     0.000390
      f-3     :     0.000098
 13 H s       :     0.605705  s :     0.605705
      pz      :     0.017277  p :     0.045796
      px      :     0.014990
      py      :     0.013529
 14 H s       :     0.597120  s :     0.597120
      pz      :     0.011282  p :     0.042159
      px      :     0.013043
      py      :     0.017834
 15 O s       :     3.794737  s :     3.794737
      pz      :     1.522780  p :     4.916197
      px      :     1.795045
      py      :     1.598373
      dz2     :     0.012189  d :     0.024762
      dxz     :     0.002381
      dyz     :     0.001232
      dx2y2   :     0.002291
      dxy     :     0.006669
      f0      :     0.000253  f :     0.001402
      f+1     :     0.000158
      f-1     :     0.000389
      f+2     :     0.000052
      f-2     :     0.000056
      f+3     :     0.000445
      f-3     :     0.000049
 16 H s       :     0.593289  s :     0.593289
      pz      :     0.019253  p :     0.043629
      px      :     0.012675
      py      :     0.011701
 17 H s       :     0.556353  s :     0.556353
      pz      :     0.009495  p :     0.049240
      px      :     0.015475
      py      :     0.024271


                     *******************************
                     * LOEWDIN POPULATION ANALYSIS *
                     *******************************

----------------------
LOEWDIN ATOMIC CHARGES
----------------------
   0 O :   -0.374911
   1 H :    0.146308
   2 H :    0.151169
   3 O :   -0.317046
   4 H :    0.161040
   5 H :    0.196112
   6 O :   -0.316306
   7 H :    0.161655
   8 H :    0.186378
   9 O :   -0.351699
  10 H :    0.167254
  11 H :    0.152334
  12 O :   -0.341328
  13 H :    0.158018
  14 H :    0.183506
  15 O :   -0.294817
  16 H :    0.171594
  17 H :    0.160738

-------------------------------
LOEWDIN REDUCED ORBITAL CHARGES
-------------------------------
  0 O s       :     3.468140  s :     3.468140
      pz      :     1.704151  p :     4.874992
      px      :     1.392474
      py      :     1.778367
      dz2     :     0.004267  d :     0.029766
      dxz     :     0.007231
      dyz     :     0.005882
      dx2y2   :     0.003305
      dxy     :     0.009081
      f0      :     0.000073  f :     0.002013
      f+1     :     0.000441
      f-1     :     0.000267
      f+2     :     0.000034
      f-2     :     0.000634
      f+3     :     0.000084
      f-3     :     0.000480
  1 H s       :     0.689399  s :     0.689399
      pz      :     0.065467  p :     0.164293
      px      :     0.045524
      py      :     0.053302
  2 H s       :     0.653692  s :     0.653692
      pz      :     0.033491  p :     0.195139
      px      :     0.113933
      py      :     0.047715
  3 O s       :     3.467311  s :     3.467311
      pz      :     1.709694  p :     4.816162
      px      :     1.365525
      py      :     1.740943
      dz2     :     0.005004  d :     0.031511
      dxz     :     0.007352
      dyz     :     0.005573
      dx2y2   :     0.004201
      dxy     :     0.009381
      f0      :     0.000080  f :     0.002062
      f+1     :     0.000453
      f-1     :     0.000273
      f+2     :     0.000033
      f-2     :     0.000618
      f+3     :     0.000089
      f-3     :     0.000517
  4 H s       :     0.675574  s :     0.675574
      pz      :     0.066399  p :     0.163386
      px      :     0.044373
      py      :     0.052614
  5 H s       :     0.654939  s :     0.654939
      pz      :     0.033005  p :     0.148949
      px      :     0.072738
      py      :     0.043206
  6 O s       :     3.469089  s :     3.469089
      pz      :     1.682620  p :     4.812753
      px      :     1.774498
      py      :     1.355635
      dz2     :     0.005425  d :     0.032356
      dxz     :     0.005845
      dyz     :     0.006893
      dx2y2   :     0.003852
      dxy     :     0.010342
      f0      :     0.000091  f :     0.002107
      f+1     :     0.000273
      f-1     :     0.000450
      f+2     :     0.000036
      f-2     :     0.000610
      f+3     :     0.000556
      f-3     :     0.000092
  7 H s       :     0.674923  s :     0.674923
      pz      :     0.066480  p :     0.163422
      px      :     0.052789
      py      :     0.044153
  8 H s       :     0.665294  s :     0.665294
      pz      :     0.033396  p :     0.148328
      px      :     0.043594
      py      :     0.071338
  9 O s       :     3.472253  s :     3.472253
      pz      :     1.567222  p :     4.845698
      px      :     1.833998
      py      :     1.444478
      dz2     :     0.014400  d :     0.031658
      dxz     :     0.001678
      dyz     :     0.004023
      dx2y2   :     0.004489
      dxy     :     0.007068
      f0      :     0.000349  f :     0.002090
      f+1     :     0.000202
      f-1     :     0.000725
      f+2     :     0.000046
      f-2     :     0.000042
      f+3     :     0.000649
      f-3     :     0.000076
 10 H s       :     0.679442  s :     0.679442
      pz      :     0.030436  p :     0.153304
      px      :     0.049299
      py      :     0.073569
 11 H s       :     0.676670  s :     0.676670
      pz      :     0.092308  p :     0.170996
      px      :     0.043085
      py      :     0.035603
 12 O s       :     3.475595  s :     3.475595
      pz      :     1.707190  p :     4.831080
      px      :     1.772263
      py      :     1.351627
      dz2     :     0.005000  d :     0.032524
      dxz     :     0.005986
      dyz     :     0.007266
      dx2y2   :     0.003987
      dxy     :     0.010285
      f0      :     0.000078  f :     0.002129
      f+1     :     0.000277
      f-1     :     0.000463
      f+2     :     0.000036
      f-2     :     0.000624
      f+3     :     0.000558
      f-3     :     0.000094
 13 H s       :     0.679191  s :     0.679191
      pz      :     0.066114  p :     0.162792
      px      :     0.052715
      py      :     0.043963
 14 H s       :     0.668800  s :     0.668800
      pz      :     0.033396  p :     0.147694
      px      :     0.043632
      py      :     0.070666
 15 O s       :     3.453255  s :     3.453255
      pz      :     1.516860  p :     4.808016
      px      :     1.734379
      py      :     1.556777
      dz2     :     0.016061  d :     0.031439
      dxz     :     0.001918
      dyz     :     0.002068
      dx2y2   :     0.003322
      dxy     :     0.008070
      f0      :     0.000466  f :     0.002107
      f+1     :     0.000335
      f-1     :     0.000575
      f+2     :     0.000021
      f-2     :     0.000051
      f+3     :     0.000633
      f-3     :     0.000026
 16 H s       :     0.669215  s :     0.669215
      pz      :     0.080660  p :     0.159190
      px      :     0.041944
      py      :     0.036586
 17 H s       :     0.664269  s :     0.664269
      pz      :     0.029446  p :     0.174993
      px      :     0.058100
      py      :     0.087447


                      *****************************
                      * MAYER POPULATION ANALYSIS *
                      *****************************

  NA   - Mulliken gross atomic population
  ZA   - Total nuclear charge
  QA   - Mulliken gross atomic charge
  VA   - Mayer's total valence
  BVA  - Mayer's bonded valence
  FA   - Mayer's free valence

  ATOM       NA         ZA         QA         VA         BVA        FA
  0 O      8.7592     8.0000    -0.7592     1.6931     1.6931     0.0000
  1 H      0.6705     1.0000     0.3295     0.9069     0.9069    -0.0000
  2 H      0.6080     1.0000     0.3920     0.8841     0.8841     0.0000
  3 O      8.7285     8.0000    -0.7285     1.7637     1.7637    -0.0000
  4 H      0.6439     1.0000     0.3561     0.8878     0.8878     0.0000
  5 H      0.6098     1.0000     0.3902     0.8628     0.8628    -0.0000
  6 O      8.7195     8.0000    -0.7195     1.7673     1.7673     0.0000
  7 H      0.6417     1.0000     0.3583     0.8865     0.8865    -0.0000
  8 H      0.6326     1.0000     0.3674     0.8812     0.8812     0.0000
  9 O      8.7264     8.0000    -0.7264     1.7488     1.7488    -0.0000
 10 H      0.6580     1.0000     0.3420     0.8993     0.8993    -0.0000
 11 H      0.6228     1.0000     0.3772     0.8842     0.8842    -0.0000
 12 O      8.7088     8.0000    -0.7088     1.7663     1.7663    -0.0000
 13 H      0.6515     1.0000     0.3485     0.8934     0.8934     0.0000
 14 H      0.6393     1.0000     0.3607     0.8835     0.8835    -0.0000
 15 O      8.7371     8.0000    -0.7371     1.7394     1.7394    -0.0000
 16 H      0.6369     1.0000     0.3631     0.8815     0.8815    -0.0000
 17 H      0.6056     1.0000     0.3944     0.8785     0.8785     0.0000

  Mayer bond orders larger than 0.100000
B(  0-O ,  1-H ) :   0.9009 B(  0-O ,  2-H ) :   0.8104 B(  3-O ,  4-H ) :   0.8803 
B(  3-O ,  5-H ) :   0.8506 B(  6-O ,  7-H ) :   0.8787 B(  6-O ,  8-H ) :   0.8680 
B(  9-O , 10-H ) :   0.8897 B(  9-O , 11-H ) :   0.8577 B( 12-O , 13-H ) :   0.8877 
B( 12-O , 14-H ) :   0.8756 B( 15-O , 16-H ) :   0.8766 B( 15-O , 17-H ) :   0.8287 


-------
TIMINGS
-------

Total SCF time: 0 days 0 hours 0 min 8 sec 

Total time                  ....       8.600 sec
Sum of individual times     ....       8.345 sec  ( 97.0%)

Fock matrix formation       ....       7.979 sec  ( 92.8%)
Diagonalization             ....       0.078 sec  (  0.9%)
Density matrix formation    ....       0.009 sec  (  0.1%)
Population analysis         ....       0.026 sec  (  0.3%)
Initial guess               ....       0.136 sec  (  1.6%)
Orbital Transformation      ....       0.000 sec  (  0.0%)
Orbital Orthonormalization  ....       0.000 sec  (  0.0%)
DIIS solution               ....       0.028 sec  (  0.3%)
SOSCF solution              ....       0.034 sec  (  0.4%)


           ************************************************************
           *        Program running with 6 parallel MPI-processes     *
           *              working on a common directory               *
           ************************************************************

------------------------------------------------------------------------------
                                ORCA  MP2 
------------------------------------------------------------------------------

Freezing NCore=12 chemical core electrons
MP2 will be done in the AO integral direct mode
The Q1-step will be done using symmetric double matrices
Dimension of the basis                    ...  258
Memory devoted for MP2                    ... 8000 MB   
Memory needed for all in one shot         ...  264 MB
Number of MOs that can be treated together...  120      
MP2 density construction                  ... relaxed
The MP2 gradient is requested => amplitudes will be stored on disk
Total number of MOs              ...   24
Number of MOs treated per batch  ...    4 
Number of batches necessary      ...    1 
OPERATORS   0/  0 PASS   0
-----------------------------------------------
 MP2 CORRELATION ENERGY   :     -1.543315905 Eh
-----------------------------------------------


---------------------
MP2 DENSITY FORMATION
---------------------

Completing the external part of the density      ... done
Storing the unrelaxed density                    ... done

Calculating G(D)                                 ... done
Completing the Lagrangian                        ... done
Solving the Z-vector equations                   ... 

------------------------------------------------------------------------------
                           ORCA CP-SCF CALCULATION
------------------------------------------------------------------------------

Input orbitals are from        ... 12h2o.su.etal.mol0,1,2,5,10,11-orca.engrad-mp2.def2tzvp.frozencore.gbw
Input Perturbation             ... 12h2o.su.etal.mol0,1,2,5,10,11-orca.engrad-mp2.def2tzvp.frozencore.pin.tmp
Wavefunction output            ... 12h2o.su.etal.mol0,1,2,5,10,11-orca.engrad-mp2.def2tzvp.frozencore.pout.tmp
Perturbation mode              ... Real perturbation (singlet)
Solver                         ... POPLE
Max. number of iterations      ... 128
Convergence tolerance          ... 1.000e-08
Integral handling              ... Direct
Number of perturbations        ... 1
Number of operators            ... 1
Orbital ranges used for CP-SCF:
 Operator 0:  Orbitals   0... 29  to  30...257
Variables per vector in CP-SCF ... 6840
Number of vectors sought       ... 1
     CP-SCF ITERATION   0: 
     CP-SCF ITERATION   1:      0.000722120776
     CP-SCF ITERATION   2:      0.000016512150
     CP-SCF ITERATION   3:      0.000000769767
     CP-SCF ITERATION   4:      0.000000063043
     CP-SCF ITERATION   5:      0.000000004812
                                                 ... done
Finalizing the relaxed density                   ... done
Transforming P to the AO basis                   ... done
Storing the relaxed density                      ... done

------------------------------------
ENERGY WEIGHTED DENSITY FINALIZATION
------------------------------------

Gathering the parts of the W-matrix              ...                                                      done
Forming the Z-density                            ... done
Transforming Z to the AO basis                   ... done
Calculating G(Z)                                 ... done
Finalizing the W-matrix                          ...                                                      done
Transforming W to the AO basis and storing       ... done

                *********************************************
                * UNRELAXED MP2 DENSITY POPULATION ANALYSIS *
                *********************************************

------------------------------------------------------------------------------
                           ORCA POPULATION ANALYSIS
------------------------------------------------------------------------------
Input electron density              ... 12h2o.su.etal.mol0,1,2,5,10,11-orca.engrad-mp2.def2tzvp.frozencore.pmp2ur
BaseName (.gbw .S,...)              ... 12h2o.su.etal.mol0,1,2,5,10,11-orca.engrad-mp2.def2tzvp.frozencore

                    ********************************
                    * MULLIKEN POPULATION ANALYSIS *
                    ********************************

-----------------------
MULLIKEN ATOMIC CHARGES
-----------------------
   0 O :   -0.753684
   1 H :    0.327272
   2 H :    0.387418
   3 O :   -0.722885
   4 H :    0.353943
   5 H :    0.387424
   6 O :   -0.714285
   7 H :    0.356095
   8 H :    0.364557
   9 O :   -0.721044
  10 H :    0.339342
  11 H :    0.374297
  12 O :   -0.703936
  13 H :    0.346358
  14 H :    0.358038
  15 O :   -0.730589
  16 H :    0.360667
  17 H :    0.391013
Sum of atomic charges:   -0.0000000

--------------------------------
MULLIKEN REDUCED ORBITAL CHARGES
--------------------------------
  0 O s       :     3.804395  s :     3.804395
      pz      :     1.705386  p :     4.894446
      px      :     1.400664
      py      :     1.788396
      dz2     :     0.009497  d :     0.050815
      dxz     :     0.010051
      dyz     :     0.010925
      dx2y2   :     0.007806
      dxy     :     0.012536
      f0      :     0.000455  f :     0.004029
      f+1     :     0.000691
      f-1     :     0.000546
      f+2     :     0.000438
      f-2     :     0.000723
      f+3     :     0.000461
      f-3     :     0.000716
  1 H s       :     0.624842  s :     0.624842
      pz      :     0.017600  p :     0.047886
      px      :     0.014409
      py      :     0.015878
  2 H s       :     0.553778  s :     0.553778
      pz      :     0.011610  p :     0.058804
      px      :     0.032395
      py      :     0.014799
  3 O s       :     3.805010  s :     3.805010
      pz      :     1.721780  p :     4.862435
      px      :     1.374312
      py      :     1.766344
      dz2     :     0.009850  d :     0.051386
      dxz     :     0.010379
      dyz     :     0.010939
      dx2y2   :     0.007998
      dxy     :     0.012220
      f0      :     0.000462  f :     0.004055
      f+1     :     0.000712
      f-1     :     0.000549
      f+2     :     0.000428
      f-2     :     0.000718
      f+3     :     0.000462
      f-3     :     0.000724
  4 H s       :     0.598994  s :     0.598994
      pz      :     0.017839  p :     0.047063
      px      :     0.013698
      py      :     0.015526
  5 H s       :     0.570062  s :     0.570062
      pz      :     0.011675  p :     0.042515
      px      :     0.018144
      py      :     0.012696
  6 O s       :     3.806861  s :     3.806861
      pz      :     1.708136  p :     4.851732
      px      :     1.789636
      py      :     1.353960
      dz2     :     0.009603  d :     0.051626
      dxz     :     0.011191
      dyz     :     0.009767
      dx2y2   :     0.007848
      dxy     :     0.013217
      f0      :     0.000454  f :     0.004067
      f+1     :     0.000551
      f-1     :     0.000692
      f+2     :     0.000437
      f-2     :     0.000713
      f+3     :     0.000753
      f-3     :     0.000467
  7 H s       :     0.596882  s :     0.596882
      pz      :     0.017548  p :     0.047023
      px      :     0.015584
      py      :     0.013892
  8 H s       :     0.592222  s :     0.592222
      pz      :     0.011599  p :     0.043221
      px      :     0.013850
      py      :     0.017771
  9 O s       :     3.806592  s :     3.806592
      pz      :     1.566570  p :     4.858570
      px      :     1.862737
      py      :     1.429263
      dz2     :     0.016266  d :     0.051854
      dxz     :     0.008119
      dyz     :     0.008175
      dx2y2   :     0.008558
      dxy     :     0.010737
      f0      :     0.000549  f :     0.004027
      f+1     :     0.000498
      f-1     :     0.000809
      f+2     :     0.000440
      f-2     :     0.000405
      f+3     :     0.000836
      f-3     :     0.000490
 10 H s       :     0.615229  s :     0.615229
      pz      :     0.011226  p :     0.045429
      px      :     0.015976
      py      :     0.018227
 11 H s       :     0.574977  s :     0.574977
      pz      :     0.024349  p :     0.050726
      px      :     0.014419
      py      :     0.011958
 12 O s       :     3.809427  s :     3.809427
      pz      :     1.712585  p :     4.838616
      px      :     1.781568
      py      :     1.344462
      dz2     :     0.009770  d :     0.051810
      dxz     :     0.011194
      dyz     :     0.010090
      dx2y2   :     0.007855
      dxy     :     0.012901
      f0      :     0.000458  f :     0.004084
      f+1     :     0.000554
      f-1     :     0.000704
      f+2     :     0.000435
      f-2     :     0.000721
      f+3     :     0.000746
      f-3     :     0.000465
 13 H s       :     0.606222  s :     0.606222
      pz      :     0.017773  p :     0.047420
      px      :     0.015718
      py      :     0.013929
 14 H s       :     0.598220  s :     0.598220
      pz      :     0.012134  p :     0.043743
      px      :     0.013825
      py      :     0.017784
 15 O s       :     3.789517  s :     3.789517
      pz      :     1.513652  p :     4.884958
      px      :     1.782538
      py      :     1.588768
      dz2     :     0.017322  d :     0.052115
      dxz     :     0.007966
      dyz     :     0.006674
      dx2y2   :     0.008006
      dxy     :     0.012147
      f0      :     0.000633  f :     0.003999
      f+1     :     0.000534
      f-1     :     0.000756
      f+2     :     0.000415
      f-2     :     0.000424
      f+3     :     0.000811
      f-3     :     0.000427
 16 H s       :     0.594113  s :     0.594113
      pz      :     0.019332  p :     0.045220
      px      :     0.013498
      py      :     0.012390
 17 H s       :     0.558267  s :     0.558267
      pz      :     0.010236  p :     0.050720
      px      :     0.016029
      py      :     0.024454


                     *******************************
                     * LOEWDIN POPULATION ANALYSIS *
                     *******************************

----------------------
LOEWDIN ATOMIC CHARGES
----------------------
   0 O :   -0.372487
   1 H :    0.144999
   2 H :    0.148639
   3 O :   -0.313214
   4 H :    0.159899
   5 H :    0.194421
   6 O :   -0.312758
   7 H :    0.160498
   8 H :    0.184576
   9 O :   -0.348702
  10 H :    0.165564
  11 H :    0.150421
  12 O :   -0.338557
  13 H :    0.156921
  14 H :    0.181845
  15 O :   -0.290870
  16 H :    0.170197
  17 H :    0.158607

-------------------------------
LOEWDIN REDUCED ORBITAL CHARGES
-------------------------------
  0 O s       :     3.464498  s :     3.464498
      pz      :     1.693743  p :     4.845341
      px      :     1.384193
      py      :     1.767405
      dz2     :     0.009820  d :     0.057872
      dxz     :     0.012821
      dyz     :     0.011538
      dx2y2   :     0.008910
      dxy     :     0.014783
      f0      :     0.000451  f :     0.004775
      f+1     :     0.000853
      f-1     :     0.000649
      f+2     :     0.000410
      f-2     :     0.001043
      f+3     :     0.000471
      f-3     :     0.000898
  1 H s       :     0.687353  s :     0.687353
      pz      :     0.066792  p :     0.167647
      px      :     0.046514
      py      :     0.054342
  2 H s       :     0.653763  s :     0.653763
      pz      :     0.034325  p :     0.197599
      px      :     0.114678
      py      :     0.048595
  3 O s       :     3.463527  s :     3.463527
      pz      :     1.699121  p :     4.785494
      px      :     1.357469
      py      :     1.728904
      dz2     :     0.010511  d :     0.059383
      dxz     :     0.012848
      dyz     :     0.011242
      dx2y2   :     0.009744
      dxy     :     0.015038
      f0      :     0.000457  f :     0.004809
      f+1     :     0.000860
      f-1     :     0.000657
      f+2     :     0.000408
      f-2     :     0.001024
      f+3     :     0.000473
      f-3     :     0.000929
  4 H s       :     0.673672  s :     0.673672
      pz      :     0.067631  p :     0.166429
      px      :     0.045212
      py      :     0.053586
  5 H s       :     0.653769  s :     0.653769
      pz      :     0.033814  p :     0.151810
      px      :     0.073863
      py      :     0.044133
  6 O s       :     3.465325  s :     3.465325
      pz      :     1.671341  p :     4.782360
      px      :     1.763443
      py      :     1.347575
      dz2     :     0.011029  d :     0.060219
      dxz     :     0.011512
      dyz     :     0.012454
      dx2y2   :     0.009317
      dxy     :     0.015908
      f0      :     0.000473  f :     0.004854
      f+1     :     0.000657
      f-1     :     0.000859
      f+2     :     0.000409
      f-2     :     0.001017
      f+3     :     0.000966
      f-3     :     0.000473
  7 H s       :     0.673049  s :     0.673049
      pz      :     0.067701  p :     0.166453
      px      :     0.053775
      py      :     0.044976
  8 H s       :     0.664020  s :     0.664020
      pz      :     0.034233  p :     0.151404
      px      :     0.044581
      py      :     0.072591
  9 O s       :     3.468497  s :     3.468497
      pz      :     1.557410  p :     4.815921
      px      :     1.822784
      py      :     1.435727
      dz2     :     0.020157  d :     0.059445
      dxz     :     0.007118
      dyz     :     0.009369
      dx2y2   :     0.010086
      dxy     :     0.012715
      f0      :     0.000762  f :     0.004839
      f+1     :     0.000590
      f-1     :     0.001159
      f+2     :     0.000414
      f-2     :     0.000413
      f+3     :     0.001053
      f-3     :     0.000448
 10 H s       :     0.677827  s :     0.677827
      pz      :     0.031271  p :     0.156609
      px      :     0.050276
      py      :     0.075062
 11 H s       :     0.675665  s :     0.675665
      pz      :     0.093676  p :     0.173914
      px      :     0.043882
      py      :     0.036356
 12 O s       :     3.471853  s :     3.471853
      pz      :     1.696820  p :     4.801926
      px      :     1.761355
      py      :     1.343750
      dz2     :     0.010426  d :     0.059920
      dxz     :     0.011543
      dyz     :     0.012720
      dx2y2   :     0.009411
      dxy     :     0.015820
      f0      :     0.000454  f :     0.004858
      f+1     :     0.000658
      f-1     :     0.000869
      f+2     :     0.000408
      f-2     :     0.001029
      f+3     :     0.000967
      f-3     :     0.000474
 13 H s       :     0.677192  s :     0.677192
      pz      :     0.067363  p :     0.165886
      px      :     0.053714
      py      :     0.044810
 14 H s       :     0.667340  s :     0.667340
      pz      :     0.034227  p :     0.150815
      px      :     0.044623
      py      :     0.071965
 15 O s       :     3.449471  s :     3.449471
      pz      :     1.507476  p :     4.776695
      px      :     1.721971
      py      :     1.547248
      dz2     :     0.021889  d :     0.059802
      dxz     :     0.007430
      dyz     :     0.007451
      dx2y2   :     0.008989
      dxy     :     0.014042
      f0      :     0.000887  f :     0.004901
      f+1     :     0.000734
      f-1     :     0.000997
      f+2     :     0.000390
      f-2     :     0.000426
      f+3     :     0.001058
      f-3     :     0.000409
 16 H s       :     0.667514  s :     0.667514
      pz      :     0.082177  p :     0.162289
      px      :     0.042751
      py      :     0.037361
 17 H s       :     0.663693  s :     0.663693
      pz      :     0.030171  p :     0.177700
      px      :     0.058990
      py      :     0.088538


                      *****************************
                      * MAYER POPULATION ANALYSIS *
                      *****************************

  NA   - Mulliken gross atomic population
  ZA   - Total nuclear charge
  QA   - Mulliken gross atomic charge
  VA   - Mayer's total valence
  BVA  - Mayer's bonded valence
  FA   - Mayer's free valence

  ATOM       NA         ZA         QA         VA         BVA        FA
  0 O      8.7537     8.0000    -0.7537     2.0064     1.6145     0.3919
  1 H      0.6727     1.0000     0.3273     0.9130     0.8647     0.0483
  2 H      0.6126     1.0000     0.3874     0.8917     0.8456     0.0461
  3 O      8.7229     8.0000    -0.7229     2.0731     1.6834     0.3896
  4 H      0.6461     1.0000     0.3539     0.8934     0.8476     0.0458
  5 H      0.6126     1.0000     0.3874     0.8687     0.8228     0.0459
  6 O      8.7143     8.0000    -0.7143     2.0754     1.6860     0.3894
  7 H      0.6439     1.0000     0.3561     0.8922     0.8465     0.0457
  8 H      0.6354     1.0000     0.3646     0.8874     0.8394     0.0480
  9 O      8.7210     8.0000    -0.7210     2.0573     1.6677     0.3896
 10 H      0.6607     1.0000     0.3393     0.9056     0.8565     0.0492
 11 H      0.6257     1.0000     0.3743     0.8903     0.8455     0.0447
 12 O      8.7039     8.0000    -0.7039     2.0718     1.6847     0.3871
 13 H      0.6536     1.0000     0.3464     0.8991     0.8530     0.0461
 14 H      0.6420     1.0000     0.3580     0.8895     0.8415     0.0481
 15 O      8.7306     8.0000    -0.7306     2.0491     1.6613     0.3877
 16 H      0.6393     1.0000     0.3607     0.8872     0.8410     0.0462
 17 H      0.6090     1.0000     0.3910     0.8849     0.8409     0.0440

  Mayer bond orders larger than 0.100000
B(  0-O ,  1-H ) :   0.8593 B(  0-O ,  2-H ) :   0.7739 B(  3-O ,  4-H ) :   0.8406 
B(  3-O ,  5-H ) :   0.8112 B(  6-O ,  7-H ) :   0.8392 B(  6-O ,  8-H ) :   0.8269 
B(  9-O , 10-H ) :   0.8474 B(  9-O , 11-H ) :   0.8196 B( 12-O , 13-H ) :   0.8477 
B( 12-O , 14-H ) :   0.8340 B( 15-O , 16-H ) :   0.8366 B( 15-O , 17-H ) :   0.7926 



                *******************************************
                * RELAXED MP2 DENSITY POPULATION ANALYSIS *
                *******************************************

------------------------------------------------------------------------------
                           ORCA POPULATION ANALYSIS
------------------------------------------------------------------------------
Input electron density              ... 12h2o.su.etal.mol0,1,2,5,10,11-orca.engrad-mp2.def2tzvp.frozencore.pmp2re
BaseName (.gbw .S,...)              ... 12h2o.su.etal.mol0,1,2,5,10,11-orca.engrad-mp2.def2tzvp.frozencore

                    ********************************
                    * MULLIKEN POPULATION ANALYSIS *
                    ********************************

-----------------------
MULLIKEN ATOMIC CHARGES
-----------------------
   0 O :   -0.734527
   1 H :    0.321292
   2 H :    0.364533
   3 O :   -0.702376
   4 H :    0.347979
   5 H :    0.379454
   6 O :   -0.697217
   7 H :    0.349331
   8 H :    0.356977
   9 O :   -0.703122
  10 H :    0.332214
  11 H :    0.360426
  12 O :   -0.690522
  13 H :    0.340104
  14 H :    0.351021
  15 O :   -0.704012
  16 H :    0.355032
  17 H :    0.373412
Sum of atomic charges:   -0.0000000

--------------------------------
MULLIKEN REDUCED ORBITAL CHARGES
--------------------------------
  0 O s       :     3.805780  s :     3.805780
      pz      :     1.699636  p :     4.875893
      px      :     1.394325
      py      :     1.781931
      dz2     :     0.009292  d :     0.048891
      dxz     :     0.009478
      dyz     :     0.010600
      dx2y2   :     0.007687
      dxy     :     0.011834
      f0      :     0.000453  f :     0.003963
      f+1     :     0.000674
      f-1     :     0.000538
      f+2     :     0.000438
      f-2     :     0.000704
      f+3     :     0.000460
      f-3     :     0.000698
  1 H s       :     0.630023  s :     0.630023
      pz      :     0.017733  p :     0.048685
      px      :     0.014434
      py      :     0.016517
  2 H s       :     0.576416  s :     0.576416
      pz      :     0.012371  p :     0.059051
      px      :     0.031324
      py      :     0.015356
  3 O s       :     3.808245  s :     3.808245
      pz      :     1.716677  p :     4.840947
      px      :     1.371301
      py      :     1.752968
      dz2     :     0.009580  d :     0.049202
      dxz     :     0.009784
      dyz     :     0.010675
      dx2y2   :     0.007721
      dxy     :     0.011442
      f0      :     0.000460  f :     0.003981
      f+1     :     0.000694
      f-1     :     0.000540
      f+2     :     0.000428
      f-2     :     0.000697
      f+3     :     0.000459
      f-3     :     0.000703
  4 H s       :     0.604259  s :     0.604259
      pz      :     0.017983  p :     0.047761
      px      :     0.013624
      py      :     0.016154
  5 H s       :     0.577536  s :     0.577536
      pz      :     0.012496  p :     0.043010
      px      :     0.017186
      py      :     0.013328
  6 O s       :     3.811264  s :     3.811264
      pz      :     1.698668  p :     4.832581
      px      :     1.783636
      py      :     1.350277
      dz2     :     0.009366  d :     0.049377
      dxz     :     0.010907
      dyz     :     0.009172
      dx2y2   :     0.007599
      dxy     :     0.012333
      f0      :     0.000453  f :     0.003995
      f+1     :     0.000543
      f-1     :     0.000673
      f+2     :     0.000437
      f-2     :     0.000692
      f+3     :     0.000733
      f-3     :     0.000466
  7 H s       :     0.602955  s :     0.602955
      pz      :     0.017714  p :     0.047713
      px      :     0.016185
      py      :     0.013814
  8 H s       :     0.599186  s :     0.599186
      pz      :     0.012447  p :     0.043837
      px      :     0.014610
      py      :     0.016781
  9 O s       :     3.808490  s :     3.808490
      pz      :     1.561081  p :     4.841024
      px      :     1.858020
      py      :     1.421923
      dz2     :     0.015162  d :     0.049652
      dxz     :     0.008146
      dyz     :     0.007917
      dx2y2   :     0.008249
      dxy     :     0.010178
      f0      :     0.000536  f :     0.003956
      f+1     :     0.000492
      f-1     :     0.000780
      f+2     :     0.000440
      f-2     :     0.000403
      f+3     :     0.000815
      f-3     :     0.000489
 10 H s       :     0.621562  s :     0.621562
      pz      :     0.012043  p :     0.046225
      px      :     0.016763
      py      :     0.017418
 11 H s       :     0.588257  s :     0.588257
      pz      :     0.023645  p :     0.051316
      px      :     0.015348
      py      :     0.012323
 12 O s       :     3.814012  s :     3.814012
      pz      :     1.707084  p :     4.822975
      px      :     1.775024
      py      :     1.340867
      dz2     :     0.009479  d :     0.049524
      dxz     :     0.010914
      dyz     :     0.009503
      dx2y2   :     0.007589
      dxy     :     0.012039
      f0      :     0.000456  f :     0.004011
      f+1     :     0.000546
      f-1     :     0.000685
      f+2     :     0.000435
      f-2     :     0.000700
      f+3     :     0.000725
      f-3     :     0.000463
 13 H s       :     0.611773  s :     0.611773
      pz      :     0.017931  p :     0.048123
      px      :     0.016338
      py      :     0.013854
 14 H s       :     0.604606  s :     0.604606
      pz      :     0.013003  p :     0.044373
      px      :     0.014593
      py      :     0.016777
 15 O s       :     3.788918  s :     3.788918
      pz      :     1.508193  p :     4.860931
      px      :     1.764971
      py      :     1.587767
      dz2     :     0.016050  d :     0.050237
      dxz     :     0.007946
      dyz     :     0.006620
      dx2y2   :     0.008017
      dxy     :     0.011605
      f0      :     0.000615  f :     0.003927
      f+1     :     0.000524
      f-1     :     0.000735
      f+2     :     0.000416
      f-2     :     0.000422
      f+3     :     0.000788
      f-3     :     0.000427
 16 H s       :     0.599119  s :     0.599119
      pz      :     0.018568  p :     0.045849
      px      :     0.014369
      py      :     0.012912
 17 H s       :     0.575440  s :     0.575440
      pz      :     0.010824  p :     0.051148
      px      :     0.016363
      py      :     0.023961


                     *******************************
                     * LOEWDIN POPULATION ANALYSIS *
                     *******************************

----------------------
LOEWDIN ATOMIC CHARGES
----------------------
   0 O :   -0.374688
   1 H :    0.146958
   2 H :    0.141193
   3 O :   -0.310410
   4 H :    0.161927
   5 H :    0.195184
   6 O :   -0.311834
   7 H :    0.162108
   8 H :    0.185459
   9 O :   -0.350037
  10 H :    0.166957
  11 H :    0.146814
  12 O :   -0.341545
  13 H :    0.158675
  14 H :    0.183145
  15 O :   -0.285317
  16 H :    0.171898
  17 H :    0.153515

-------------------------------
LOEWDIN REDUCED ORBITAL CHARGES
-------------------------------
  0 O s       :     3.466134  s :     3.466134
      pz      :     1.693295  p :     4.846687
      px      :     1.387819
      py      :     1.765574
      dz2     :     0.009767  d :     0.057053
      dxz     :     0.012443
      dyz     :     0.011434
      dx2y2   :     0.008899
      dxy     :     0.014509
      f0      :     0.000454  f :     0.004814
      f+1     :     0.000865
      f-1     :     0.000650
      f+2     :     0.000411
      f-2     :     0.001044
      f+3     :     0.000476
      f-3     :     0.000914
  1 H s       :     0.685073  s :     0.685073
      pz      :     0.066895  p :     0.167969
      px      :     0.046130
      py      :     0.054944
  2 H s       :     0.660970  s :     0.660970
      pz      :     0.034996  p :     0.197838
      px      :     0.113644
      py      :     0.049198
  3 O s       :     3.465109  s :     3.465109
      pz      :     1.698351  p :     4.782290
      px      :     1.362536
      py      :     1.721403
      dz2     :     0.010362  d :     0.058186
      dxz     :     0.012452
      dyz     :     0.011202
      dx2y2   :     0.009534
      dxy     :     0.014637
      f0      :     0.000460  f :     0.004826
      f+1     :     0.000866
      f-1     :     0.000657
      f+2     :     0.000408
      f-2     :     0.001025
      f+3     :     0.000476
      f-3     :     0.000935
  4 H s       :     0.671789  s :     0.671789
      pz      :     0.067773  p :     0.166284
      px      :     0.044503
      py      :     0.054009
  5 H s       :     0.653273  s :     0.653273
      pz      :     0.034543  p :     0.151543
      px      :     0.072327
      py      :     0.044673
  6 O s       :     3.467388  s :     3.467388
      pz      :     1.666380  p :     4.780569
      px      :     1.761606
      py      :     1.352583
      dz2     :     0.010946  d :     0.059004
      dxz     :     0.011481
      dyz     :     0.012081
      dx2y2   :     0.009085
      dxy     :     0.015410
      f0      :     0.000477  f :     0.004873
      f+1     :     0.000657
      f-1     :     0.000865
      f+2     :     0.000410
      f-2     :     0.001017
      f+3     :     0.000972
      f-3     :     0.000476
  7 H s       :     0.671538  s :     0.671538
      pz      :     0.067798  p :     0.166354
      px      :     0.054389
      py      :     0.044167
  8 H s       :     0.663090  s :     0.663090
      pz      :     0.034935  p :     0.151451
      px      :     0.045351
      py      :     0.071166
  9 O s       :     3.469853  s :     3.469853
      pz      :     1.557938  p :     4.817075
      px      :     1.820575
      py      :     1.438562
      dz2     :     0.019636  d :     0.058249
      dxz     :     0.007177
      dyz     :     0.009146
      dx2y2   :     0.009874
      dxy     :     0.012416
      f0      :     0.000763  f :     0.004859
      f+1     :     0.000589
      f-1     :     0.001169
      f+2     :     0.000417
      f-2     :     0.000411
      f+3     :     0.001060
      f-3     :     0.000450
 10 H s       :     0.676087  s :     0.676087
      pz      :     0.031862  p :     0.156956
      px      :     0.051030
      py      :     0.074064
 11 H s       :     0.678863  s :     0.678863
      pz      :     0.093108  p :     0.174324
      px      :     0.044860
      py      :     0.036355
 12 O s       :     3.473966  s :     3.473966
      pz      :     1.696025  p :     4.804143
      px      :     1.759359
      py      :     1.348760
      dz2     :     0.010238  d :     0.058558
      dxz     :     0.011489
      dyz     :     0.012324
      dx2y2   :     0.009169
      dxy     :     0.015338
      f0      :     0.000457  f :     0.004878
      f+1     :     0.000658
      f-1     :     0.000876
      f+2     :     0.000408
      f-2     :     0.001028
      f+3     :     0.000974
      f-3     :     0.000477
 13 H s       :     0.675459  s :     0.675459
      pz      :     0.067497  p :     0.165866
      px      :     0.054321
      py      :     0.044048
 14 H s       :     0.665946  s :     0.665946
      pz      :     0.034993  p :     0.150909
      px      :     0.045412
      py      :     0.070504
 15 O s       :     3.450364  s :     3.450364
      pz      :     1.509636  p :     4.770974
      px      :     1.712053
      py      :     1.549285
      dz2     :     0.021273  d :     0.059055
      dxz     :     0.007461
      dyz     :     0.007317
      dx2y2   :     0.009100
      dxy     :     0.013904
      f0      :     0.000886  f :     0.004925
      f+1     :     0.000736
      f-1     :     0.001005
      f+2     :     0.000391
      f-2     :     0.000426
      f+3     :     0.001070
      f-3     :     0.000410
 16 H s       :     0.665807  s :     0.665807
      pz      :     0.081252  p :     0.162295
      px      :     0.043392
      py      :     0.037651
 17 H s       :     0.668334  s :     0.668334
      pz      :     0.030526  p :     0.178151
      px      :     0.059430
      py      :     0.088195


                      *****************************
                      * MAYER POPULATION ANALYSIS *
                      *****************************

  NA   - Mulliken gross atomic population
  ZA   - Total nuclear charge
  QA   - Mulliken gross atomic charge
  VA   - Mayer's total valence
  BVA  - Mayer's bonded valence
  FA   - Mayer's free valence

  ATOM       NA         ZA         QA         VA         BVA        FA
  0 O      8.7345     8.0000    -0.7345     2.0133     1.6261     0.3871
  1 H      0.6787     1.0000     0.3213     0.9165     0.8681     0.0484
  2 H      0.6355     1.0000     0.3645     0.9197     0.8744     0.0453
  3 O      8.7024     8.0000    -0.7024     2.0975     1.7135     0.3840
  4 H      0.6520     1.0000     0.3480     0.8977     0.8519     0.0459
  5 H      0.6205     1.0000     0.3795     0.8768     0.8310     0.0458
  6 O      8.6972     8.0000    -0.6972     2.0963     1.7125     0.3838
  7 H      0.6507     1.0000     0.3493     0.8972     0.8515     0.0457
  8 H      0.6430     1.0000     0.3570     0.8951     0.8472     0.0479
  9 O      8.7031     8.0000    -0.7031     2.0690     1.6846     0.3844
 10 H      0.6678     1.0000     0.3322     0.9118     0.8627     0.0492
 11 H      0.6396     1.0000     0.3604     0.9091     0.8646     0.0445
 12 O      8.6905     8.0000    -0.6905     2.0773     1.6950     0.3823
 13 H      0.6599     1.0000     0.3401     0.9037     0.8575     0.0462
 14 H      0.6490     1.0000     0.3510     0.8956     0.8475     0.0481
 15 O      8.7040     8.0000    -0.7040     2.0812     1.6992     0.3820
 16 H      0.6450     1.0000     0.3550     0.8908     0.8445     0.0463
 17 H      0.6266     1.0000     0.3734     0.9093     0.8659     0.0434

  Mayer bond orders larger than 0.100000
B(  0-O ,  1-H ) :   0.8622 B(  0-O ,  2-H ) :   0.7754 B(  3-O ,  4-H ) :   0.8439 
B(  3-O ,  5-H ) :   0.8150 B(  6-O ,  7-H ) :   0.8430 B(  6-O ,  8-H ) :   0.8303 
B(  9-O , 10-H ) :   0.8505 B(  9-O , 11-H ) :   0.8251 B( 12-O , 13-H ) :   0.8521 
B( 12-O , 14-H ) :   0.8383 B( 15-O , 16-H ) :   0.8397 B( 15-O , 17-H ) :   0.7953 



----------------------------------
MP2 DERIVATIVE INTEGRAL GENERATION
----------------------------------


Input Wavefunction Amplitudes       ... 12h2o.su.etal.mol0,1,2,5,10,11-orca.engrad-mp2.def2tzvp.frozencore.mp2tsaa.tmp
Input Correlated Electron Density   ... 12h2o.su.etal.mol0,1,2,5,10,11-orca.engrad-mp2.def2tzvp.frozencore.pmp2re
Input Energy Weighted Density       ... 12h2o.su.etal.mol0,1,2,5,10,11-orca.engrad-mp2.def2tzvp.frozencore.wmp2.tmp
Input SCF Electron Density          ... 12h2o.su.etal.mol0,1,2,5,10,11-orca.engrad-mp2.def2tzvp.frozencore.scfp

One-Electron Terms    ...
                        ... One-Electron Terms done
Prescreening matrices              ... done

Batch handling in the gradient evaluation:
Memory available                      ... 8000.0 MB
Memory per occupied orbital in Q2     ...   12.2 MB
Memory per occupied orbital in Q3     ...    0.1 MB
Total memory requirement per |i>      ...   12.3 MB
Max. Number of orbitals possible      ...    651
Number of orbitals treated per batch  ...     24
Number of batches to be done          ...      1
Batch   0: i=    6 ...    29

---------------------------------------
MP2 TOTAL ENERGY:     -457.906560350 Eh
---------------------------------------

The final MP2 gradient
  0:   0.00849696  -0.00244329   0.00049100
  1:   0.00192688  -0.00022609   0.00054091
  2:  -0.01625337   0.00495582  -0.00109074
  3:  -0.02605329   0.00339772  -0.00326691
  4:  -0.00134628   0.00225807  -0.00124014
  5:   0.02524613  -0.00703593   0.00475384
  6:  -0.00889025  -0.02570348   0.00150008
  7:  -0.00206007  -0.00164355   0.00237290
  8:   0.01021389   0.02687849   0.00008247
  9:  -0.00946822  -0.01481677   0.00203391
 10:   0.00737282   0.01801531  -0.00388605
 11:   0.00381747  -0.00427650  -0.00419909
 12:   0.00668905   0.02747438  -0.00012251
 13:   0.00189898   0.00244423   0.00110735
 14:  -0.00929796  -0.02851211  -0.00143743
 15:   0.00667238  -0.00369884   0.00837028
 16:  -0.00026245   0.00157490  -0.00755743
 17:   0.00129733   0.00135763   0.00154757

-----------------------------------
NORM OF THE MP2 GRADIENT:  0.077693
-----------------------------------

-------------------------   --------------------
FINAL SINGLE POINT ENERGY      -457.906560350116
-------------------------   --------------------


                            ***************************************
                            *     ORCA property calculations      *
                            ***************************************

                                    ---------------------
                                    Active property flags
                                    ---------------------
   (+) Dipole Moment


------------------------------------------------------------------------------
                       ORCA ELECTRIC PROPERTIES CALCULATION
------------------------------------------------------------------------------

Dipole Moment Calculation                       ... on
Quadrupole Moment Calculation                   ... off
Polarizability Calculation                      ... off
GBWName                                         ... 12h2o.su.etal.mol0,1,2,5,10,11-orca.engrad-mp2.def2tzvp.frozencore.gbw
Electron density file                           ... 12h2o.su.etal.mol0,1,2,5,10,11-orca.engrad-mp2.def2tzvp.frozencore.scfp
The origin for moment calculation is the CENTER OF MASS  = ( 0.042985,  0.004489  0.897884)

-------------
DIPOLE MOMENT
-------------
                                X             Y             Z
Electronic contribution:     -0.35835      -0.14790       0.01978
Nuclear contribution   :     -0.11171      -0.00057      -1.46039
                        -----------------------------------------
Total Dipole Moment    :     -0.47006      -0.14848      -1.44061
                        -----------------------------------------
Magnitude (a.u.)       :      1.52261
Magnitude (Debye)      :      3.87018



--------------------
Rotational spectrum 
--------------------
 
Rotational constants in cm-1:     0.040890     0.019428     0.017249 
Rotational constants in MHz :  1225.861449   582.426066   517.098944 

 Dipole components along the rotational axes: 
x,y,z [a.u.] :    -1.391100     0.387412     0.482810 
x,y,z [Debye]:    -3.535894     0.984723     1.227206 

 

                         *** MP2 UNRELAXED DENSITY ***

------------------------------------------------------------------------------
                       ORCA ELECTRIC PROPERTIES CALCULATION
------------------------------------------------------------------------------

Dipole Moment Calculation                       ... on
Quadrupole Moment Calculation                   ... off
Polarizability Calculation                      ... off
GBWName                                         ... 12h2o.su.etal.mol0,1,2,5,10,11-orca.engrad-mp2.def2tzvp.frozencore.gbw
Electron density file                           ... 12h2o.su.etal.mol0,1,2,5,10,11-orca.engrad-mp2.def2tzvp.frozencore.pmp2ur
The origin for moment calculation is the CENTER OF MASS  = ( 0.042985,  0.004489  0.897884)

-------------
DIPOLE MOMENT
-------------
                                X             Y             Z
Electronic contribution:     -0.36232      -0.14980       0.03264
Nuclear contribution   :     -0.11171      -0.00057      -1.46039
                        -----------------------------------------
Total Dipole Moment    :     -0.47403      -0.15037      -1.42775
                        -----------------------------------------
Magnitude (a.u.)       :      1.51188
Magnitude (Debye)      :      3.84289



--------------------
Rotational spectrum 
--------------------
 
Rotational constants in cm-1:     0.040890     0.019428     0.017249 
Rotational constants in MHz :  1225.861449   582.426066   517.098944 

 Dipole components along the rotational axes: 
x,y,z [a.u.] :    -1.378556     0.384641     0.487245 
x,y,z [Debye]:    -3.504010     0.977679     1.238479 

 

                           *** MP2 RELAXED DENSITY ***

------------------------------------------------------------------------------
                       ORCA ELECTRIC PROPERTIES CALCULATION
------------------------------------------------------------------------------

Dipole Moment Calculation                       ... on
Quadrupole Moment Calculation                   ... off
Polarizability Calculation                      ... off
GBWName                                         ... 12h2o.su.etal.mol0,1,2,5,10,11-orca.engrad-mp2.def2tzvp.frozencore.gbw
Electron density file                           ... 12h2o.su.etal.mol0,1,2,5,10,11-orca.engrad-mp2.def2tzvp.frozencore.pmp2re
The origin for moment calculation is the CENTER OF MASS  = ( 0.042985,  0.004489  0.897884)

-------------
DIPOLE MOMENT
-------------
                                X             Y             Z
Electronic contribution:     -0.37946      -0.15416       0.04234
Nuclear contribution   :     -0.11171      -0.00057      -1.46039
                        -----------------------------------------
Total Dipole Moment    :     -0.49117      -0.15474      -1.41805
                        -----------------------------------------
Magnitude (a.u.)       :      1.50866
Magnitude (Debye)      :      3.83471



--------------------
Rotational spectrum 
--------------------
 
Rotational constants in cm-1:     0.040890     0.019428     0.017249 
Rotational constants in MHz :  1225.861449   582.426066   517.098944 

 Dipole components along the rotational axes: 
x,y,z [a.u.] :    -1.368356     0.386056     0.504596 
x,y,z [Debye]:    -3.478084     0.981276     1.282580 

 

Timings for individual modules:

Sum of individual times         ...       45.208 sec (=   0.753 min)
GTO integral calculation        ...        0.985 sec (=   0.016 min)   2.2 %
SCF iterations                  ...        9.254 sec (=   0.154 min)  20.5 %
MP2 module                      ...       34.968 sec (=   0.583 min)  77.3 %
                             ****ORCA TERMINATED NORMALLY****
TOTAL RUN TIME: 0 days 0 hours 0 minutes 46 seconds 209 msec
