73
Energy:   -459.74295475
C   -1.67534663   3.04614628  -1.57997660
H   -0.93778803   2.56658934  -0.97093421
H   -1.92702694   3.99513815  -1.15457029
H   -1.28537383   3.18944114  -2.56602270
C   -2.93591969   2.16427184  -1.64964032
N   -3.87447363   1.50767624  -1.70150812
C    1.66270413   2.36797702  -3.12231263
H    1.52798973   1.96691527  -4.10511560
H    1.20689467   3.33438994  -3.06589544
H    1.20754669   1.71657594  -2.40578808
C    3.16770621   2.49182479  -2.82026880
N    4.28824867   2.58403509  -2.59538343
C   -3.60643017   0.77310999   1.75127714
H   -4.03277621   1.59947852   1.22189609
H   -4.26568359  -0.06750881   1.69091098
H   -2.66307878   0.51859872   1.31514499
C   -3.40169895   1.15992638   3.22777915
N   -3.24926725   1.44792876   4.32710202
C    2.92732049   2.31277711   0.88365174
H    2.31631887   1.44295684   1.00608498
H    3.30339528   2.62149333   1.83662663
H    3.74627575   2.08479271   0.23385602
C    2.08675461   3.44847662   0.27108695
N    1.46091510   4.29405653  -0.18499539
C   -0.64534720   3.21195133   2.40957762
H   -0.40136900   2.39239110   1.76638570
H   -0.85022309   2.84451079   3.39340302
H    0.17898115   3.89307331   2.44771832
C   -1.88804410   3.94003993   1.86442499
N   -2.81328844   4.48213499   1.45853407
C   -1.08731372  -0.53197359  -3.50510464
H   -1.70450795  -0.38844535  -2.64291492
H   -0.07448340  -0.68712471  -3.19688076
H   -1.42920649  -1.38691467  -4.05015892
C   -1.16466406   0.71523295  -4.40515618
N   -1.22225491   1.64383491  -5.07528546
C    0.58008812  -3.50795457  -1.91110332
H   -0.04503883  -4.37429394  -1.97087440
H    0.86641719  -3.20603686  -2.89688243
H    0.04366509  -2.71312803  -1.43634001
C    1.83975422  -3.83956596  -1.08959544
N    2.77763289  -4.08646571  -0.47794548
C   -0.72007483  -3.51052867   1.62456938
H   -0.91429523  -4.16634184   0.80171599
H   -0.22542424  -4.05235424   2.40344354
H   -0.09601626  -2.70471051   1.29882857
C   -2.05064991  -2.94659896   2.15669082
N   -3.04132354  -2.52672765   2.55287942
C   -3.56187914  -1.75104270  -0.84189634
H   -2.71671408  -1.16402962  -0.54861858
H   -4.24497515  -1.82736575  -0.02186358
H   -4.05063682  -1.28329823  -1.67088978
C   -3.09169089  -3.15925947  -1.25110111
N   -2.74161437  -4.20774086  -1.55577267
C   -0.19931810  -0.34749999   3.83949558
H   -0.61107014  -0.27895513   2.85427376
H   -0.90803692   0.02561042   4.54900622
H    0.02403502  -1.36991713   4.06237595
C    1.09186314   0.48836448   3.91553261
N    2.05320625   1.11070356   3.97214563
C    3.11179336  -1.71899069   1.92431686
H    2.34535448  -1.45897744   1.22441349
H    3.89745271  -2.23822177   1.41634289
H    3.50321886  -0.82920883   2.37150072
C    2.52076907  -2.62653316   3.01914880
N    2.08072463  -3.30223978   3.83430094
C    3.63131601  -0.75315050  -1.59633234
H    2.90207481  -0.33602983  -0.93367269
H    4.44770390  -0.06989641  -1.70391374
H    3.99051668  -1.67770013  -1.19498219
C    2.98890832  -1.00620768  -2.97287672
N    2.51060659  -1.19462025  -3.99777658
Cl   0.06617181  -0.08486491  -0.05609170
