73
Energy:   -464.76586753
C   -2.80377786  -0.49583291  -2.75289166
H   -3.70048514  -0.44557614  -2.17126422
H   -1.97470896  -0.71253390  -2.11212295
H   -2.89803461  -1.26794465  -3.48764210
C   -2.57076945   0.85498851  -3.45473821
N   -2.39728410   1.86073646  -3.97729487
C    0.34453574   3.14318597  -2.48361725
H   -0.53371594   3.63208181  -2.85043467
H    0.06282121   2.27232533  -1.92941715
H    0.96377521   2.85658826  -3.30781585
C    1.12277943   4.10541790  -1.56707677
N    1.70221724   4.82184331  -0.88467072
C   -2.35046601   1.06570887   3.00337972
H   -1.93773539   0.60027276   2.13279208
H   -2.75370449   2.02112369   2.73978848
H   -3.12772030   0.44853364   3.40321669
C   -1.24546049   1.24877709   4.06028503
N   -0.42273365   1.38507971   4.84719906
C    1.26014422   3.12489340   2.08031684
H    1.51161627   2.75276660   3.05149325
H    2.02303545   3.79727613   1.74745421
H    1.18122710   2.30735347   1.39453287
C   -0.08620140   3.86939702   2.14863852
N   -1.08861691   4.42371380   2.19950713
C   -2.67092227   2.89676774  -0.40046655
H   -2.54020950   3.18245251  -1.42330504
H   -1.80302143   2.36923345  -0.06378451
H   -2.81135791   3.77180681   0.19910292
C   -3.90605923   1.98544652  -0.27584583
N   -4.82567483   1.30692644  -0.18306004
C    0.92283600  -0.43957418  -3.82567628
H    1.33753291   0.33661509  -4.43432796
H    0.66151473  -0.04056342  -2.86786591
H    0.04786670  -0.83442646  -4.29834899
C    1.96139328  -1.56269360  -3.64790810
N    2.73464639  -2.39890706  -3.51555162
C    3.44024651  -1.95041418  -0.21462864
H    4.13425067  -1.22160628   0.14882351
H    2.54048858  -1.46206673  -0.52583841
H    3.87035370  -2.46912246  -1.04580168
C    3.11734473  -2.95565761   0.90645123
N    2.87692968  -3.70410705   1.74114615
C   -3.57856518  -1.72485835   0.62088901
H   -2.74647222  -1.09535985   0.38371158
H   -3.84322335  -1.59378995   1.64932288
H   -4.41142732  -1.46332799   0.00214705
C   -3.19654752  -3.19591695   0.37259667
N   -2.91211800  -4.29118695   0.18773174
C    0.16750977  -3.75099531  -1.25804217
H   -0.23282519  -4.58238739  -0.71636024
H    0.09499425  -2.86705497  -0.65946881
H    1.19425497  -3.93942586  -1.49296195
C   -0.62968599  -3.55542605  -2.56105083
N   -1.22323448  -3.40981584  -3.53120001
C    2.03441663  -0.45057119   3.36802012
H    2.10641563  -1.51531100   3.44577264
H    1.23718969  -0.19470239   2.70179233
H    1.83899981  -0.03478828   4.33437199
C    3.35945919   0.11518284   2.82415932
N    4.34601362   0.53641243   2.41923023
C   -0.35285204  -3.11122778   2.52239730
H   -0.04546000  -2.33902256   1.84852089
H   -0.67547795  -3.96472884   1.96351668
H    0.46957659  -3.38559087   3.14948194
C   -1.51461115  -2.59934386   3.39411436
N   -2.37959362  -2.21822302   4.04314733
C    3.58687080   1.69289186  -0.65966348
H    3.55490013   2.70189764  -0.30500112
H    4.47554386   1.21681580  -0.30117936
H    2.72910098   1.16205398  -0.30281456
C    3.58840711   1.68988118  -2.19965978
N    3.58955096   1.68763960  -3.34625701
Cl  -0.00000587  -0.00000573   0.00000352
