73
Energy:   -459.37149566
C   -3.05818913  -0.63437803  -2.31015154
H   -3.82850180  -0.33613646  -1.63002615
H   -2.19321394  -0.93815247  -1.75839244
H   -3.40592738  -1.45176034  -2.90669438
C   -2.69394861   0.55000678  -3.22457020
N   -2.42275499   1.43183510  -3.90539645
C    0.46096359   2.84778657  -2.76047664
H   -0.36755249   3.20126388  -3.33798428
H    0.15606155   2.00249318  -2.17960408
H    1.25659439   2.56165987  -3.41622220
C    0.94712568   3.96744461  -1.82153453
N    1.30909545   4.80108092  -1.12244945
C   -2.08311620   1.30625479   3.16384047
H   -3.10886157   1.20545123   2.87646397
H   -1.47508556   1.40062976   2.28845987
H   -1.96762902   2.17763982   3.77396334
C   -1.64813368   0.06136189   3.95922205
N   -1.32426942  -0.86551747   4.55141979
C    0.75161408   3.61429680   1.99965647
H    1.12042494   3.27024560   2.94332352
H    1.45754034   4.29161432   1.56628805
H    0.61088480   2.77913251   1.34574900
C   -0.59266140   4.33665598   2.20634621
N   -1.59353560   4.87448523   2.36023611
C   -2.49202076   3.07831575  -0.55456341
H   -2.54613562   3.12616162  -1.62212256
H   -1.56262503   2.63476558  -0.26407087
H   -2.55766212   4.06648867  -0.14946519
C   -3.65729851   2.22560227  -0.01920604
N   -4.52490075   1.59071833   0.37939186
C    0.87729495  -0.61406757  -3.79135822
H    1.36337978   0.21380789  -4.26384520
H    0.74694750  -0.40432773  -2.75024448
H   -0.07838743  -0.77312644  -4.24552841
C    1.74076880  -1.87853434  -3.95609043
N    2.38366434  -2.81998732  -4.07874105
C    3.23832686  -2.05535085  -0.73709121
H    2.26305913  -1.65835665  -0.54696325
H    3.19235065  -3.12430489  -0.74816111
H    3.58801246  -1.70355742  -1.68517372
C    4.20487056  -1.59454973   0.36973109
N    4.92450628  -1.25146236   1.19381060
C   -3.52764062  -1.54172122   1.25135923
H   -2.76521894  -0.87851086   0.89955618
H   -3.47017362  -1.61789446   2.31709572
H   -4.48796459  -1.16123234   0.97224423
C   -3.32551843  -2.93423789   0.62554459
N   -3.17502928  -3.97102984   0.15959715
C   -0.16346574  -3.70022972  -1.48778424
H   -0.59838666  -4.45364743  -0.86480293
H   -0.13880186  -2.77048893  -0.95875414
H    0.83305766  -3.98705190  -1.75155165
C   -1.00725252  -3.54119333  -2.76619392
N   -1.63549013  -3.42278351  -3.71802803
C    2.17957000  -0.64955082   3.19367762
H    2.95286181  -1.38485383   3.27273108
H    1.78218466  -0.65525825   2.20022334
H    1.40001509  -0.87540016   3.89094752
C    2.76052306   0.74200696   3.50618440
N    3.19306902   1.77808497   3.73885991
C   -0.20591903  -3.25325028   2.31269550
H   -0.14231032  -3.05038517   3.36136125
H   -1.02487872  -3.91628438   2.12671185
H   -0.36046090  -2.33764222   1.78102098
C    1.10364878  -3.90874324   1.83629115
N    2.07868155  -4.39678755   1.48158646
C    3.36740246   1.84709994   0.06647505
H    3.25009172   2.90700367   0.15446634
H    4.25248306   1.54198388   0.58458276
H    2.51732692   1.35747875   0.49372411
C    3.48586130   1.46545775  -1.42077636
N    3.57405930   1.18130780  -2.52810263
Cl  -0.11340017   0.07412471   0.07728253
