73
Energy:   -459.37458101
C   -0.34690897  -2.38326711  -3.18000276
H    0.61674293  -2.50571932  -3.62864588
H   -0.89805766  -3.29655386  -3.26391659
H   -0.22984723  -2.13097712  -2.14678187
C   -1.10908799  -1.25568423  -3.90058586
N   -1.67656492  -0.41614753  -4.43709273
C   -2.11151296   2.31898208  -2.51300316
H   -2.91006969   2.61248303  -1.86410831
H   -1.53857333   1.54526829  -2.04609177
H   -2.51596987   1.95640616  -3.43487755
C   -1.20467577   3.53197005  -2.79212053
N   -0.52949427   4.43509473  -2.99993609
C   -2.73066416  -0.35303981   2.80001400
H   -1.85913863  -0.27627426   2.18401847
H   -2.43640731  -0.43911164   3.82514991
H   -3.33433749   0.52143649   2.67444014
C   -3.53968240  -1.59824013   2.39188944
N   -4.14203326  -2.52534836   2.08802215
C    1.62477148   3.56418630  -0.47238231
H    2.53388851   3.42203495  -1.01845867
H    1.14289327   4.45843969  -0.80854202
H    0.97723553   2.72780536  -0.63382338
C    1.94183520   3.68548511   1.02973526
N    2.17790356   3.77579759   2.14813007
C   -1.90531258   3.18580286   1.10922650
H   -2.81572233   3.41723765   0.59688658
H   -1.56588238   2.21539105   0.81260023
H   -1.16185642   3.91461546   0.86223616
C   -2.15355041   3.20043206   2.62901727
N   -2.33837475   3.21132416   3.76057057
C    1.62138998   1.35605464  -3.49861554
H    2.46576280   1.90623876  -3.13912679
H    1.02926307   1.02935941  -2.66942616
H    1.03097190   1.98327009  -4.13336460
C    2.10810598   0.13167414  -4.29586076
N    2.47048816  -0.77993279  -4.88944607
C    3.02970431  -2.09838977  -1.63445888
H    3.97714513  -1.80730737  -1.23131236
H    2.32110056  -1.31081339  -1.48444802
H    3.13192537  -2.29147420  -2.68191692
C    2.53883469  -3.37295711  -0.92303417
N    2.17335994  -4.32193042  -0.39334613
C   -3.54674540  -1.02891161  -1.16730569
H   -2.50565275  -1.12837731  -0.94117996
H   -3.67746305  -0.97100072  -2.22771048
H   -4.07670262  -1.87773716  -0.78843946
C   -4.09426361   0.25257279  -0.51185048
N   -4.50191580   1.20669618  -0.02383429
C   -1.19313324  -3.77927060   0.70725730
H   -0.29800061  -4.36396860   0.74928125
H   -1.77496381  -3.95400342   1.58807551
H   -0.93889279  -2.74161829   0.64777140
C   -2.00997165  -4.17970228  -0.53533253
N   -2.61814497  -4.47784186  -1.46049714
C    0.57554415   1.26360415   3.79645980
H    0.54910999   2.31637239   3.98588113
H   -0.20175595   0.78165635   4.35182451
H    0.43030975   1.08548024   2.75143447
C    1.94135207   0.69841368   4.22858069
N    2.95825815   0.27760369   4.55031434
C    1.72921907  -2.47953638   2.54890326
H    2.60194444  -2.09144274   3.03122467
H    1.52362648  -1.90677851   1.66880145
H    1.89569229  -3.50137068   2.27864334
C    0.52944747  -2.39176658   3.51038366
N   -0.36383703  -2.32641798   4.22624952
C    3.70597520   0.59235007   1.20379712
H    4.16551087  -0.33919209   1.46061680
H    2.64177957   0.48672384   1.23886623
H    4.01279067   1.34518465   1.89950068
C    4.13464939   1.00157892  -0.21760015
N    4.45381681   1.30626840  -1.27589502
Cl   0.09281932  -0.01919022  -0.07143281
