13
Energy:   -563.03743769
O    1.24790803   1.05283677   1.59231036
H    0.80807560   0.95791445   2.43715888
H    2.17292558   1.15975853   1.81399060
O    1.82191865   0.30230322  -0.85969840
H    2.62103662  -0.20955513  -0.73462505
H    1.77641717   0.44919862  -1.80446462
O   -0.34316499  -0.70204908   0.36744290
H   -1.24920518  -0.42529352   0.23058757
H   -0.36474304  -1.65348411   0.26479002
O   -2.88788851  -0.50206433  -0.87465091
H   -3.47471641   0.21749477  -1.10724406
H   -2.76161796  -0.98276288  -1.69270745
H    0.81340296   0.28564975   0.27526403
