13
Energy:   -574.24255685
O    0.06125071  -0.90435702   0.92090942
H    0.36180348  -1.58498875   1.52310567
H    0.60613157  -1.01554888   0.14182466
O   -1.57728011   1.07805985   1.70354881
H   -1.32682265   1.93414269   2.05086002
H   -2.43011555   0.89863195   2.09941392
O   -0.41544318   0.90545993  -1.09458758
H   -0.95311767   1.21981709  -1.82144215
H    0.35457543   0.52168101  -1.51413129
O    1.74336822  -0.89119989  -1.48896225
H    1.66498775  -1.65538530  -2.06002180
H    2.68353707  -0.80484611  -1.33129991
H   -0.75594692   0.22097097   0.95705504
