42
Energy:   -153.42774711
C   -2.54375572   0.81841053  -1.01305630
H   -1.83419394   0.25922357  -0.43970458
H   -3.48575762   0.31096216  -1.00779618
H   -2.66063802   1.79188915  -0.58459744
C   -2.04099169   0.95248679  -2.46248787
N   -1.66666102   1.05231265  -3.54165556
C   -2.37934835  -3.09210432   1.63934849
H   -1.32451216  -3.14018963   1.81228951
H   -2.82341005  -4.03570839   1.87876372
H   -2.80749798  -2.32970084   2.25605581
C   -2.64219210  -2.76210342   0.15826356
N   -2.83789122  -2.51640276  -0.94447149
C    3.05055165   0.67803535   0.24105056
H    3.50046051   1.28229874   1.00088473
H    3.69426992   0.64092447  -0.61285146
H    2.89853384  -0.31236131   0.61642255
C    1.69533572   1.28719164  -0.16381782
N    0.68631587   1.74073619  -0.46526074
C    0.99925695  -1.72928809   3.62568185
H    1.54786894  -2.38320573   2.98045570
H   -0.03182863  -1.72857918   3.33974282
H    1.08878750  -2.06810798   4.63666378
C    1.56480218  -0.30150591   3.51080520
N    1.98587630   0.76154282   3.42527431
C   -0.80186697   2.71412238   2.37807943
H    0.24760290   2.68774353   2.58500292
H   -1.29547341   3.31419911   3.11371499
H   -0.96359426   3.13479585   1.40762737
C   -1.36912937   1.28296839   2.41822456
N   -1.79148201   0.21740919   2.44811444
C    0.35832688  -1.74639301  -2.32935266
H    1.13463846  -2.20564580  -2.90496310
H    0.34174616  -0.69503764  -2.52753455
H   -0.58501145  -2.17469147  -2.59688267
C    0.62258487  -1.98214890  -0.83062424
N    0.81933695  -2.15767987   0.28524720
C    1.29904848   2.47155013  -4.03644671
H    0.72000131   2.80264848  -3.19979957
H    0.64384913   2.14557008  -4.81705539
H    1.90462176   3.27850545  -4.39282183
C    2.20386963   1.30276910  -3.60418568
N    2.87755009   0.43255850  -3.28234769
