42
Energy:   -154.26357067
C    2.76461291  -2.11851942  -1.60899047
H    2.75329000  -1.36453052  -2.36811675
H    2.07713875  -2.89628914  -1.86851434
H    3.75025991  -2.52664411  -1.52632666
C    2.35176268  -1.49689724  -0.26186740
N    2.04437692  -1.03407126   0.74112695
C   -0.33178028   0.57250488   2.61501115
H   -1.00668175   0.67634165   3.43879881
H    0.44036710   1.30928286   2.69146850
H    0.10441664  -0.40439555   2.63224130
C   -1.09954055   0.76865475   1.29453041
N   -1.67117297   0.91469724   0.31137247
C   -2.33837721   4.49815678   0.35758458
H   -2.01025225   5.10542863  -0.46000645
H   -3.11289422   5.00758773   0.89190901
H   -2.71491226   3.56918356  -0.01675379
C   -1.15397524   4.22796602   1.30404584
N   -0.27213413   4.02679672   2.00872928
C   -1.38076426  -2.55997415  -0.62961042
H   -1.85237884  -1.66429435  -0.97636331
H   -1.87657273  -3.40987673  -1.05001337
H   -0.35376064  -2.56154018  -0.92987729
C   -1.46651590  -2.62360531   0.90668309
N   -1.53036190  -2.67098160   2.05052343
C    1.51823380  -3.98909326   2.81347341
H    2.29648111  -4.53811506   3.30112735
H    0.58412975  -4.19043409   3.29494051
H    1.73063974  -2.94195675   2.87081383
C    1.43684509  -4.41622658   1.33613357
N    1.37624750  -4.73424676   0.23618690
C   -1.95107127   1.28413478  -3.17058267
H   -2.62772124   0.76298756  -3.81513722
H   -1.65276823   2.20156916  -3.63343097
H   -2.43573623   1.49509376  -2.24026268
C   -0.70897707   0.41015274  -2.91571526
N    0.21581852  -0.24056661  -2.72595488
C    1.66804231   2.29202350  -0.52315649
H    1.70927341   2.68331822   0.47187548
H    2.65045143   2.29137885  -0.94715060
H    1.28998178   1.29136757  -0.49752406
C    0.73888852   3.16997752  -1.38191722
N    0.04709129   3.82365418  -2.02130362
