42
Energy:   -153.60218152
C    3.21586307   1.31402036  -2.48406531
H    3.49527611   0.70245988  -3.31642480
H    4.00013529   2.01106632  -2.27443923
H    2.31818960   1.84703749  -2.71853101
C    2.97692976   0.42383733  -1.25033720
N    2.79903306  -0.23894439  -0.33177053
C   -3.37775162   1.91296904  -0.79321936
H   -2.62844394   2.19363820  -1.50361573
H   -4.33505578   2.24927456  -1.13287569
H   -3.38996197   0.84806703  -0.68961569
C   -3.06081781   2.55765068   0.56896218
N   -2.82484619   3.03764547   1.58316825
C    0.69050423   2.13322192   1.54986650
H   -0.21403736   2.18841417   2.11877643
H    1.33914345   2.93590001   1.83248664
H    1.17543067   1.19870635   1.74072274
C    0.36088020   2.24353394   0.04960677
N    0.11546013   2.32566626  -1.06740479
C   -1.02242467  -0.85412091  -2.44491881
H   -0.93699559  -0.06483733  -1.72753921
H   -1.20714522  -1.77823220  -1.93816864
H   -1.83306377  -0.64441532  -3.11109214
C    0.28719748  -0.96188926  -3.24796041
N    1.26227069  -1.04212770  -3.84586139
C    3.14540806  -3.33106740  -1.85470186
H    3.14937703  -2.74639267  -2.75082678
H    3.59547316  -4.28245729  -2.04756915
H    3.69969781  -2.82189897  -1.09416949
C    1.69417295  -3.53609400  -1.38196436
N    0.61366244  -3.68874563  -1.02998980
C    0.41706310  -1.99228273   1.84354723
H    1.28297740  -1.75512513   1.26143996
H    0.21558155  -3.04072310   1.77229367
H    0.59248451  -1.73150425   2.86634780
C   -0.79170124  -1.19996667   1.31182924
N   -1.69168124  -0.61005134   0.91594103
C   -3.03767781   0.77766901   4.03942435
H   -3.33306180   0.43077840   3.07127386
H   -3.25395114   1.82205121   4.12539387
H   -3.57608001   0.23889974   4.79092274
C   -1.52637436   0.54922714   4.22750993
N   -0.40114024   0.37914178   4.36754819
