4
Energy:   -231.27878760
O    0.03151014  -0.00602882  -0.03228436
H   -0.15794878   0.82447842  -0.46885612
H   -0.26329512  -0.67480132  -0.65039847
H    0.42021527  -0.15832346   1.31883581
