4
Energy:   -233.82409620
O    0.01413842  -0.07105993   0.01499538
H   -0.43766195  -0.51204305  -0.70447814
H   -0.67222503   0.10161902   0.65944789
H    1.22730884   0.58689007   0.02464309
