4
Energy:   -230.63476833
O    0.04936870  -0.04218560  -0.04042969
H   -0.28222371   0.16153656   0.83408480
H    0.70855031  -0.72084679   0.10493347
H   -0.56699937   0.70447936  -0.98871552
