4
Energy:   -232.74651253
O    0.00663247  -0.05389110   0.02510295
H    0.51231394  -0.18363755  -0.77719622
H   -0.78382770  -0.57854576  -0.10194844
H    0.29470394   0.95373674   0.94790684
