4
Energy:   -231.79194857
O    0.10370173  -0.05588039   0.05569685
H   -0.29681041  -0.73752422  -0.48391743
H    0.68764619   0.41111640  -0.54192738
H   -0.62172080   0.46564601   1.06003137
