4
Energy:   -232.79310835
O   -0.01050731   0.03541517   0.03393293
H   -0.27601747   0.92694851   0.25955324
H   -0.12275652  -0.01545529  -0.91530053
H    0.46814637  -1.08993856   0.68051264
