4
Energy:   -224.79272731
O    0.08317219   0.08899810  -0.00526088
H   -0.02652398  -0.76310855  -0.42729509
H    0.07418580   0.71734948  -0.72728971
H   -0.19881340  -0.10359376   1.31156043
