4
Energy:   -232.85944322
O    0.00806454   0.06595874  -0.02608775
H    0.67232834  -0.40248275  -0.53160534
H    0.50414171   0.53817334   0.64260699
H   -1.34113677  -0.26809107  -0.07971479
