4
Energy:   -224.33213995
O    0.00691571   0.10120091  -0.00205356
H    0.54517951  -0.40264749   0.60838950
H   -0.54006792   0.65168878   0.55830691
H   -0.01782677  -0.45741351  -1.31246627
