4
Energy:   -234.03575769
O   -0.08585285   0.01259870  -0.00843200
H   -0.05783477  -0.68789628   0.64329924
H   -0.14635809   0.81721126   0.50651421
H    0.38005729  -0.16784069  -1.28229823
