4
Energy:   -223.78383425
O    0.07080700  -0.12522084   0.01842389
H    0.60075203   0.64610249   0.21954682
H   -0.25570453  -0.42034945   0.86843634
H   -0.51270345  -0.03627004  -1.25938897
