
                                 *****************
                                 * O   R   C   A *
                                 *****************

           --- An Ab Initio, DFT and Semiempirical electronic structure package ---

                  #######################################################
                  #                        -***-                        #
                  #          Department of theory and spectroscopy      #
                  #               Directorship: Frank Neese             #
                  #        Max Planck Institute fuer Kohlenforschung    #
                  #                Kaiser Wilhelm Platz 1               #
                  #                 D-45470 Muelheim/Ruhr               #
                  #                      Germany                        #
                  #                                                     #
                  #                  All rights reserved                #
                  #                        -***-                        #
                  #######################################################


                         Program Version 4.2.0 -  RELEASE  -


 With contributions from (in alphabetic order):
   Daniel Aravena         : Magnetic Suceptibility
   Michael Atanasov       : Ab Initio Ligand Field Theory (pilot matlab implementation)
   Alexander A. Auer      : GIAO ZORA, VPT2
   Ute Becker             : Parallelization
   Giovanni Bistoni       : ED, misc. LED, open-shell LED, HFLED
   Martin Brehm           : Molecular dynamics
   Dmytro Bykov           : SCF Hessian
   Vijay G. Chilkuri      : MRCI spin determinant printing, contributions to CSF-ICE
   Dipayan Datta          : RHF DLPNO-CCSD density
   Achintya Kumar Dutta   : EOM-CC, STEOM-CC
   Dmitry Ganyushin       : Spin-Orbit,Spin-Spin,Magnetic field MRCI
   Miquel Garcia          : C-PCM Hessian, Gaussian charge scheme
   Yang Guo               : DLPNO-NEVPT2, CIM, IAO-localization
   Andreas Hansen         : Spin unrestricted coupled pair/coupled cluster methods
   Benjamin Helmich-Paris : CASSCF linear response (MC-RPA)
   Lee Huntington         : MR-EOM, pCC
   Robert Izsak           : Overlap fitted RIJCOSX, COSX-SCS-MP3, EOM
   Christian Kollmar      : KDIIS, OOCD, Brueckner-CCSD(T), CCSD density
   Simone Kossmann        : Meta GGA functionals, TD-DFT gradient, OOMP2, MP2 Hessian
   Martin Krupicka        : AUTO-CI
   Lucas Lang             : DCDCAS
   Dagmar Lenk            : GEPOL surface, SMD
   Dimitrios Liakos       : Extrapolation schemes; Compound Job, initial MDCI parallelization
   Dimitrios Manganas     : Further ROCIS development; embedding schemes
   Dimitrios Pantazis     : SARC Basis sets
   Taras Petrenko         : DFT Hessian,TD-DFT gradient, ASA, ECA, R-Raman, ABS, FL, XAS/XES, NRVS
   Peter Pinski           : DLPNO-MP2, DLPNO-MP2 Gradient
   Christoph Reimann      : Effective Core Potentials
   Marius Retegan         : Local ZFS, SOC
   Christoph Riplinger    : Optimizer, TS searches, QM/MM, DLPNO-CCSD(T), (RO)-DLPNO pert. Triples
   Tobias Risthaus        : Range-separated hybrids, TD-DFT gradient, RPA, STAB
   Michael Roemelt        : Original ROCIS implementation
   Masaaki Saitow         : Open-shell DLPNO-CCSD energy and density
   Barbara Sandhoefer     : DKH picture change effects
   Avijit Sen             : IP-ROCIS
   Kantharuban Sivalingam : CASSCF convergence, NEVPT2, FIC-MRCI
   Bernardo de Souza      : ESD, SOC TD-DFT
   Georgi Stoychev        : AutoAux, RI-MP2 NMR
   Willem Van den Heuvel  : Paramagnetic NMR
   Boris Wezisla          : Elementary symmetry handling
   Frank Wennmohs         : Technical directorship


 We gratefully acknowledge several colleagues who have allowed us to
 interface, adapt or use parts of their codes:
   Stefan Grimme, W. Hujo, H. Kruse,             : VdW corrections, initial TS optimization,
                  C. Bannwarth                     DFT functionals, gCP, sTDA/sTD-DF
   Ed Valeev, F. Pavosevic, A. Kumar             : LibInt (2-el integral package), F12 methods
   Garnet Chan, S. Sharma, J. Yang, R. Olivares  : DMRG
   Ulf Ekstrom                                   : XCFun DFT Library
   Mihaly Kallay                                 : mrcc  (arbitrary order and MRCC methods)
   Andreas Klamt, Michael Diedenhofen            : otool_cosmo (COSMO solvation model)
   Jiri Pittner, Ondrej Demel                    : Mk-CCSD
   Frank Weinhold                                : gennbo (NPA and NBO analysis)
   Christopher J. Cramer and Donald G. Truhlar   : smd solvation model
   Lars Goerigk                                  : TD-DFT with DH, B97 family of functionals
   V. Asgeirsson, H. Jonsson                     : NEB implementation
   FAccTs GmbH                                   : IRC, NEB, NEB-TS, Multilevel, MM, QM/MM, CI optimization
   S Lehtola, MJT Oliveira, MAL Marques          : LibXC Library


 Your calculation uses the libint2 library for the computation of 2-el integrals
 For citations please refer to: http://libint.valeyev.net

 Your ORCA version has been built with support for libXC version: 4.2.3
 For citations please refer to: https://tddft.org/programs/libxc/

 This ORCA versions uses:
   CBLAS   interface :  Fast vector & matrix operations
   LAPACKE interface :  Fast linear algebra routines
   SCALAPACK package :  Parallel linear algebra routines


----- Orbital basis set information -----
Your calculation utilizes the basis: def2-TZVP
   F. Weigend and R. Ahlrichs, Phys. Chem. Chem. Phys. 7, 3297 (2005).

================================================================================
                                        WARNINGS
                       Please study these warnings very carefully!
================================================================================


WARNING: The frozen-core approximation for MP2-gradient calculations is turned on by default.

INFO   : the flag for use of LIBINT has been found!

================================================================================
                                       INPUT FILE
================================================================================
NAME = 12h2o.su.etal.mol1,6,9-orca.engrad-mp2.def2tzvp.frozencore.inp
|  1> # 12h2o.su.etal.mol1,6,9
|  2> ! MP2 def2-TZVP EnGrad TightSCF
|  3> 
|  4> %pal
|  5>     nprocs 6
|  6> end
|  7> 
|  8> %maxcore 8000
|  9> 
| 10> %scf
| 11>     ConvForced true
| 12> end
| 13> 
| 14> *xyz 0 1
| 15> O  -1.794470000  -0.923410000   2.768350000
| 16> H  -2.338250000  -1.359750000   3.430940000
| 17> H  -0.879480000  -1.303000000   2.865760000
| 18> O   1.737840000   0.885520000  -0.052730000
| 19> H   2.090180000   1.032320000   0.841890000
| 20> H   0.839590000   1.284090000  -0.017130000
| 21> O   0.741530000  -1.752130000   2.896280000
| 22> H   0.920500000  -2.036450000   1.984040000
| 23> H   1.242140000  -0.921210000   2.984230000
| 24> *
| 25> 
| 26>                          ****END OF INPUT****
================================================================================

                     *******************************
                     * Energy+Gradient Calculation *
                     *******************************

---------------------------------
CARTESIAN COORDINATES (ANGSTROEM)
---------------------------------
  O     -1.794470   -0.923410    2.768350
  H     -2.338250   -1.359750    3.430940
  H     -0.879480   -1.303000    2.865760
  O      1.737840    0.885520   -0.052730
  H      2.090180    1.032320    0.841890
  H      0.839590    1.284090   -0.017130
  O      0.741530   -1.752130    2.896280
  H      0.920500   -2.036450    1.984040
  H      1.242140   -0.921210    2.984230

----------------------------
CARTESIAN COORDINATES (A.U.)
----------------------------
  NO LB      ZA    FRAG     MASS         X           Y           Z
   0 O     8.0000    0    15.999   -3.391057   -1.744992    5.231423
   1 H     1.0000    0     1.008   -4.418652   -2.569555    6.483537
   2 H     1.0000    0     1.008   -1.661976   -2.462313    5.415502
   3 O     8.0000    0    15.999    3.284042    1.673390   -0.099645
   4 H     1.0000    0     1.008    3.949868    1.950802    1.590942
   5 H     1.0000    0     1.008    1.586595    2.426578   -0.032371
   6 O     8.0000    0    15.999    1.401289   -3.311046    5.473176
   7 H     1.0000    0     1.008    1.739493   -3.848333    3.749292
   8 H     1.0000    0     1.008    2.347304   -1.740835    5.639377

--------------------------------
INTERNAL COORDINATES (ANGSTROEM)
--------------------------------
 O      0   0   0     0.000000000000     0.00000000     0.00000000
 H      1   0   0     0.961828878803     0.00000000     0.00000000
 H      1   2   0     0.995381322057   106.21731035     0.00000000
 O      3   1   2     4.489717992580   106.64087787   183.22071482
 H      4   3   1     0.972645187106    71.75107181   120.01152132
 H      4   3   1     0.983350632989    68.99381625     6.85262224
 O      3   1   2     1.682356278379   171.61043709   195.73896161
 H      7   3   1     0.972136791249   103.79460456   289.35412162
 H      7   3   1     0.974050112161   105.61118924    38.30604821

---------------------------
INTERNAL COORDINATES (A.U.)
---------------------------
 O      0   0   0     0.000000000000     0.00000000     0.00000000
 H      1   0   0     1.817593168635     0.00000000     0.00000000
 H      1   2   0     1.880998097508   106.21731035     0.00000000
 O      3   1   2     8.484337424516   106.64087787   183.22071482
 H      4   3   1     1.838033029106    71.75107181   120.01152132
 H      4   3   1     1.858263389967    68.99381625     6.85262224
 O      3   1   2     3.179192625819   171.61043709   195.73896161
 H      7   3   1     1.837072300170   103.79460456   289.35412162
 H      7   3   1     1.840687952699   105.61118924    38.30604821

---------------------
BASIS SET INFORMATION
---------------------
There are 2 groups of distinct atoms

 Group   1 Type O   : 11s6p2d1f contracted to 5s3p2d1f pattern {62111/411/11/1}
 Group   2 Type H   : 5s1p contracted to 3s1p pattern {311/1}

Atom   0O    basis set group =>   1
Atom   1H    basis set group =>   2
Atom   2H    basis set group =>   2
Atom   3O    basis set group =>   1
Atom   4H    basis set group =>   2
Atom   5H    basis set group =>   2
Atom   6O    basis set group =>   1
Atom   7H    basis set group =>   2
Atom   8H    basis set group =>   2


           ************************************************************
           *        Program running with 6 parallel MPI-processes     *
           *              working on a common directory               *
           ************************************************************
------------------------------------------------------------------------------
                           ORCA GTO INTEGRAL CALCULATION
------------------------------------------------------------------------------

                         BASIS SET STATISTICS AND STARTUP INFO

 # of primitive gaussian shells          ...   96
 # of primitive gaussian functions       ...  186
 # of contracted shells                  ...   57
 # of contracted basis functions         ...  129
 Highest angular momentum                ...    3
 Maximum contraction depth               ...    6
 Integral package used                   ... LIBINT
 Integral threshhold            Thresh   ...  2.500e-11
 Primitive cut-off              TCut     ...  2.500e-12


------------------------------ INTEGRAL EVALUATION ----------------------------


 * One electron integrals 
 Pre-screening matrix                    ... done
 Shell pair data                         ... done (   0.000 sec)



           ************************************************************
           *        Program running with 6 parallel MPI-processes     *
           *              working on a common directory               *
           ************************************************************
-------------------------------------------------------------------------------
                                 ORCA SCF
-------------------------------------------------------------------------------

------------
SCF SETTINGS
------------
Hamiltonian:
 Ab initio Hamiltonian  Method          .... Hartree-Fock(GTOs)


General Settings:
 Integral files         IntName         .... 12h2o.su.etal.mol1,6,9-orca.engrad-mp2.def2tzvp.frozencore
 Hartree-Fock type      HFTyp           .... RHF
 Total Charge           Charge          ....    0
 Multiplicity           Mult            ....    1
 Number of Electrons    NEL             ....   30
 Basis Dimension        Dim             ....  129
 Nuclear Repulsion      ENuc            ....     71.4592658865 Eh

Convergence Acceleration:
 DIIS                   CNVDIIS         .... on
   Start iteration      DIISMaxIt       ....    12
   Startup error        DIISStart       ....  0.200000
   # of expansion vecs  DIISMaxEq       ....     5
   Bias factor          DIISBfac        ....   1.050
   Max. coefficient     DIISMaxC        ....  10.000
 Newton-Raphson         CNVNR           .... off
 SOSCF                  CNVSOSCF        .... on
   Start iteration      SOSCFMaxIt      ....   150
   Startup grad/error   SOSCFStart      ....  0.003300
 Level Shifting         CNVShift        .... on
   Level shift para.    LevelShift      ....    0.2500
   Turn off err/grad.   ShiftErr        ....    0.0010
 Zerner damping         CNVZerner       .... off
 Static damping         CNVDamp         .... on
   Fraction old density DampFac         ....    0.7000
   Max. Damping (<1)    DampMax         ....    0.9800
   Min. Damping (>=0)   DampMin         ....    0.0000
   Turn off err/grad.   DampErr         ....    0.1000
 Fernandez-Rico         CNVRico         .... off

SCF Procedure:
 Maximum # iterations   MaxIter         ....   125
 SCF integral mode      SCFMode         .... Direct
   Integral package                     .... LIBINT
 Reset frequency        DirectResetFreq ....    20
 Integral Threshold     Thresh          ....  2.500e-11 Eh
 Primitive CutOff       TCut            ....  2.500e-12 Eh

Convergence Tolerance:
 Convergence Check Mode ConvCheckMode   .... Total+1el-Energy
 Convergence forced     ConvForced      .... 1
 Energy Change          TolE            ....  1.000e-08 Eh
 1-El. energy change                    ....  1.000e-05 Eh
 Orbital Gradient       TolG            ....  1.000e-05
 Orbital Rotation angle TolX            ....  1.000e-05
 DIIS Error             TolErr          ....  5.000e-07


Diagonalization of the overlap matrix:
Smallest eigenvalue                        ... 4.768e-03
Time for diagonalization                   ...    0.003 sec
Threshold for overlap eigenvalues          ... 1.000e-08
Number of eigenvalues below threshold      ... 0
Time for construction of square roots      ...    0.001 sec
Total time needed                          ...    0.004 sec

-------------------
DFT GRID GENERATION
-------------------

General Integration Accuracy     IntAcc      ...  4.340
Radial Grid Type                 RadialGrid  ... Gauss-Chebyshev
Angular Grid (max. acc.)         AngularGrid ... Lebedev-110
Angular grid pruning method      GridPruning ... 3 (G Style)
Weight generation scheme         WeightScheme... Becke
Basis function cutoff            BFCut       ...    1.0000e-11
Integration weight cutoff        WCut        ...    1.0000e-14
Grids for H and He will be reduced by one unit

# of grid points (after initial pruning)     ...   9912 (   0.0 sec)
# of grid points (after weights+screening)   ...   9666 (   0.0 sec)
nearest neighbour list constructed           ...    0.0 sec
Grid point re-assignment to atoms done       ...    0.0 sec
Grid point division into batches done        ...    0.0 sec
Reduced shell lists constructed in    0.0 sec

Total number of grid points                  ...     9666
Total number of batches                      ...      153
Average number of points per batch           ...       63
Average number of grid points per atom       ...     1074
Average number of shells per batch           ...    32.81 (57.57%)
Average number of basis functions per batch  ...    68.44 (53.06%)
Average number of large shells per batch     ...    24.44 (74.49%)
Average number of large basis fcns per batch ...    49.56 (72.40%)
Maximum spatial batch extension              ...  12.95, 19.62, 15.12 au
Average spatial batch extension              ...   0.95,  1.10,  0.92 au

Time for grid setup =    0.021 sec

------------------------------
INITIAL GUESS: MODEL POTENTIAL
------------------------------
Loading Hartree-Fock densities                     ... done
Calculating cut-offs                               ... done
Setting up the integral package                    ... done
Initializing the effective Hamiltonian             ... done
Starting the Coulomb interaction                   ... done (   0.0 sec)
Reading the grid                                   ... done
Mapping shells                                     ... done
Starting the XC term evaluation                    ... done (   0.0 sec)
Transforming the Hamiltonian                       ... done (   0.0 sec)
Diagonalizing the Hamiltonian                      ... done (   0.0 sec)
Back transforming the eigenvectors                 ... done (   0.0 sec)
Now organizing SCF variables                       ... done
                      ------------------
                      INITIAL GUESS DONE (   0.1 sec)
                      ------------------
--------------
SCF ITERATIONS
--------------
ITER       Energy         Delta-E        Max-DP      RMS-DP      [F,P]     Damp
               ***  Starting incremental Fock matrix formation  ***
  0   -227.8879967240   0.000000000000 0.04404214  0.00140280  0.3499380 0.7000
  1   -228.0016993857  -0.113702661687 0.02928658  0.00096703  0.2165694 0.7000
                               ***Turning on DIIS***
  2   -228.0613595411  -0.059660155433 0.01634784  0.00053276  0.1638650 0.7000
  3   -228.5755419945  -0.514182453401 0.00696749  0.00023662  0.1218855 0.7000
  4   -228.4696566102   0.105885384308 0.01516224  0.00054611  0.0862571 0.0000
  5   -228.1983177088   0.271338901380 0.00207703  0.00008836  0.0055000 0.0000
                      *** Initiating the SOSCF procedure ***
                           *** Shutting down DIIS ***
                      *** Re-Reading the Fockian *** 
                      *** Removing any level shift *** 
ITER      Energy       Delta-E        Grad      Rot      Max-DP    RMS-DP
  6   -228.18092749   0.0173902155  0.000844  0.000844  0.001299  0.000053
               *** Restarting incremental Fock matrix formation ***
  7   -228.17586220   0.0050652949  0.000262  0.000375  0.000633  0.000023
  8   -228.17586655  -0.0000043554  0.000161  0.000283  0.000465  0.000019
  9   -228.17586758  -0.0000010307  0.000075  0.000043  0.000104  0.000003
 10   -228.17586767  -0.0000000851  0.000009  0.000007  0.000019  0.000001
                  ***Gradient check signals convergence***
              ***Rediagonalizing the Fockian in SOSCF/NRSCF***

               *****************************************************
               *                     SUCCESS                       *
               *           SCF CONVERGED AFTER  11 CYCLES          *
               *****************************************************


----------------
TOTAL SCF ENERGY
----------------

Total Energy       :         -228.17586767 Eh           -6208.98102 eV

Components:
Nuclear Repulsion  :           71.45926589 Eh            1944.50548 eV
Electronic Energy  :         -299.63513356 Eh           -8153.48650 eV
One Electron Energy:         -456.91924577 Eh          -12433.40478 eV
Two Electron Energy:          157.28411221 Eh            4279.91828 eV

Virial components:
Potential Energy   :         -456.03005564 Eh          -12409.20869 eV
Kinetic Energy     :          227.85418797 Eh            6200.22767 eV
Virial Ratio       :            2.00141178


---------------
SCF CONVERGENCE
---------------

  Last Energy change         ...   -1.5912e-09  Tolerance :   1.0000e-08
  Last MAX-Density change    ...    5.3287e-06  Tolerance :   1.0000e-07
  Last RMS-Density change    ...    1.8423e-07  Tolerance :   5.0000e-09
  Last Orbital Gradient      ...    2.4703e-06  Tolerance :   1.0000e-05
  Last Orbital Rotation      ...    3.1421e-06  Tolerance :   1.0000e-05

             **** THE GBW FILE WAS UPDATED (12h2o.su.etal.mol1,6,9-orca.engrad-mp2.def2tzvp.frozencore.gbw) ****
             **** DENSITY FILE WAS UPDATED (12h2o.su.etal.mol1,6,9-orca.engrad-mp2.def2tzvp.frozencore.scfp) ****
             **** ENERGY FILE WAS UPDATED (12h2o.su.etal.mol1,6,9-orca.engrad-mp2.def2tzvp.frozencore.en.tmp) ****
             **** THE GBW FILE WAS UPDATED (12h2o.su.etal.mol1,6,9-orca.engrad-mp2.def2tzvp.frozencore.gbw) ****
             **** DENSITY FILE WAS UPDATED (12h2o.su.etal.mol1,6,9-orca.engrad-mp2.def2tzvp.frozencore.scfp) ****
----------------
ORBITAL ENERGIES
----------------

  NO   OCC          E(Eh)            E(eV) 
   0   2.0000     -20.601481      -560.5948 
   1   2.0000     -20.575984      -559.9010 
   2   2.0000     -20.521138      -558.4085 
   3   2.0000      -1.386686       -37.7337 
   4   2.0000      -1.351786       -36.7840 
   5   2.0000      -1.303566       -35.4718 
   6   2.0000      -0.744279       -20.2528 
   7   2.0000      -0.713806       -19.4237 
   8   2.0000      -0.694771       -18.9057 
   9   2.0000      -0.621459       -16.9108 
  10   2.0000      -0.590711       -16.0741 
  11   2.0000      -0.561763       -15.2863 
  12   2.0000      -0.518686       -14.1142 
  13   2.0000      -0.517907       -14.0930 
  14   2.0000      -0.471524       -12.8308 
  15   0.0000       0.085503         2.3267 
  16   0.0000       0.148853         4.0505 
  17   0.0000       0.165433         4.5017 
  18   0.0000       0.177293         4.8244 
  19   0.0000       0.218159         5.9364 
  20   0.0000       0.323938         8.8148 
  21   0.0000       0.475382        12.9358 
  22   0.0000       0.475957        12.9515 
  23   0.0000       0.506393        13.7797 
  24   0.0000       0.545311        14.8387 
  25   0.0000       0.564293        15.3552 
  26   0.0000       0.587125        15.9765 
  27   0.0000       0.588987        16.0272 
  28   0.0000       0.623343        16.9620 
  29   0.0000       0.632964        17.2238 
  30   0.0000       0.645658        17.5692 
  31   0.0000       0.687972        18.7207 
  32   0.0000       0.731065        19.8933 
  33   0.0000       0.739725        20.1289 
  34   0.0000       0.763241        20.7688 
  35   0.0000       0.786131        21.3917 
  36   0.0000       0.793152        21.5828 
  37   0.0000       0.935028        25.4434 
  38   0.0000       1.002180        27.2707 
  39   0.0000       1.355194        36.8767 
  40   0.0000       1.377403        37.4810 
  41   0.0000       1.392334        37.8873 
  42   0.0000       1.429773        38.9061 
  43   0.0000       1.484911        40.4065 
  44   0.0000       1.488048        40.4919 
  45   0.0000       1.534546        41.7571 
  46   0.0000       1.587232        43.1908 
  47   0.0000       1.604301        43.6552 
  48   0.0000       1.775101        48.3030 
  49   0.0000       1.781901        48.4880 
  50   0.0000       1.808258        49.2052 
  51   0.0000       1.882577        51.2275 
  52   0.0000       1.909830        51.9691 
  53   0.0000       1.986873        54.0656 
  54   0.0000       2.007027        54.6140 
  55   0.0000       2.056149        55.9507 
  56   0.0000       2.128142        57.9097 
  57   0.0000       2.237622        60.8888 
  58   0.0000       2.296349        62.4868 
  59   0.0000       2.319290        63.1111 
  60   0.0000       2.332088        63.4593 
  61   0.0000       2.340207        63.6803 
  62   0.0000       2.365133        64.3585 
  63   0.0000       2.394500        65.1577 
  64   0.0000       2.502652        68.1006 
  65   0.0000       2.526993        68.7630 
  66   0.0000       2.563045        69.7440 
  67   0.0000       2.573584        70.0308 
  68   0.0000       2.614483        71.1437 
  69   0.0000       2.656307        72.2818 
  70   0.0000       2.664244        72.4978 
  71   0.0000       2.772206        75.4356 
  72   0.0000       2.892836        78.7181 
  73   0.0000       2.914529        79.3084 
  74   0.0000       2.918852        79.4260 
  75   0.0000       2.943637        80.1004 
  76   0.0000       2.955094        80.4122 
  77   0.0000       3.016930        82.0948 
  78   0.0000       3.056234        83.1643 
  79   0.0000       3.087045        84.0028 
  80   0.0000       3.132492        85.2394 
  81   0.0000       3.180746        86.5525 
  82   0.0000       3.225577        87.7724 
  83   0.0000       3.494729        95.0964 
  84   0.0000       3.996456       108.7491 
  85   0.0000       4.007156       109.0403 
  86   0.0000       4.103387       111.6588 
  87   0.0000       4.268922       116.1633 
  88   0.0000       4.284456       116.5860 
  89   0.0000       4.397803       119.6703 
  90   0.0000       5.507626       149.8701 
  91   0.0000       5.536244       150.6489 
  92   0.0000       5.584772       151.9694 
  93   0.0000       5.639433       153.4568 
  94   0.0000       5.649544       153.7319 
  95   0.0000       5.678446       154.5184 
  96   0.0000       5.795415       157.7013 
  97   0.0000       5.800706       157.8452 
  98   0.0000       5.804192       157.9401 
  99   0.0000       5.836483       158.8188 
 100   0.0000       5.849968       159.1857 
 101   0.0000       5.867092       159.6517 
 102   0.0000       5.874926       159.8649 
 103   0.0000       5.889427       160.2595 
 104   0.0000       5.964219       162.2946 
 105   0.0000       6.447556       175.4469 
 106   0.0000       6.455724       175.6692 
 107   0.0000       6.498051       176.8210 
 108   0.0000       6.668226       181.4517 
 109   0.0000       6.688652       182.0075 
 110   0.0000       6.743866       183.5099 
 111   0.0000       6.816828       185.4953 
 112   0.0000       6.828617       185.8161 
 113   0.0000       6.871856       186.9927 
 114   0.0000       6.879045       187.1883 
 115   0.0000       6.894133       187.5989 
 116   0.0000       6.933822       188.6789 
 117   0.0000       6.950858       189.1425 
 118   0.0000       6.984723       190.0640 
 119   0.0000       7.055666       191.9944 
 120   0.0000       7.336884       199.6468 
 121   0.0000       7.403238       201.4523 
 122   0.0000       7.467312       203.1959 
 123   0.0000       7.491825       203.8629 
 124   0.0000       7.499162       204.0626 
 125   0.0000       7.568699       205.9548 
 126   0.0000      44.814606      1219.4674 
 127   0.0000      44.888014      1221.4650 
 128   0.0000      44.956363      1223.3248 

                    ********************************
                    * MULLIKEN POPULATION ANALYSIS *
                    ********************************

-----------------------
MULLIKEN ATOMIC CHARGES
-----------------------
   0 O :   -0.756111
   1 H :    0.334995
   2 H :    0.388151
   3 O :   -0.693195
   4 H :    0.336041
   5 H :    0.358831
   6 O :   -0.702387
   7 H :    0.374267
   8 H :    0.359408
Sum of atomic charges:   -0.0000000

--------------------------------
MULLIKEN REDUCED ORBITAL CHARGES
--------------------------------
  0 O s       :     3.807506  s :     3.807506
      pz      :     1.719731  p :     4.923068
      px      :     1.401120
      py      :     1.802216
      dz2     :     0.004100  d :     0.024062
      dxz     :     0.004709
      dyz     :     0.005687
      dx2y2   :     0.002367
      dxy     :     0.007200
      f0      :     0.000088  f :     0.001475
      f+1     :     0.000330
      f-1     :     0.000184
      f+2     :     0.000070
      f-2     :     0.000360
      f+3     :     0.000089
      f-3     :     0.000353
  1 H s       :     0.618935  s :     0.618935
      pz      :     0.017111  p :     0.046070
      px      :     0.013820
      py      :     0.015139
  2 H s       :     0.554853  s :     0.554853
      pz      :     0.011009  p :     0.056996
      px      :     0.031832
      py      :     0.014155
  3 O s       :     3.817671  s :     3.817671
      pz      :     1.521368  p :     4.847464
      px      :     1.453194
      py      :     1.872901
      dz2     :     0.012002  d :     0.026546
      dxz     :     0.003033
      dyz     :     0.002787
      dx2y2   :     0.003273
      dxy     :     0.005450
      f0      :     0.000185  f :     0.001514
      f+1     :     0.000460
      f-1     :     0.000130
      f+2     :     0.000078
      f-2     :     0.000042
      f+3     :     0.000129
      f-3     :     0.000491
  4 H s       :     0.618824  s :     0.618824
      pz      :     0.018383  p :     0.045135
      px      :     0.012243
      py      :     0.014509
  5 H s       :     0.597728  s :     0.597728
      pz      :     0.010039  p :     0.043441
      px      :     0.018529
      py      :     0.014872
  6 O s       :     3.800734  s :     3.800734
      pz      :     1.533073  p :     4.874144
      px      :     1.790457
      py      :     1.550615
      dz2     :     0.012543  d :     0.026052
      dxz     :     0.002534
      dyz     :     0.001221
      dx2y2   :     0.002532
      dxy     :     0.007222
      f0      :     0.000249  f :     0.001457
      f+1     :     0.000165
      f-1     :     0.000394
      f+2     :     0.000052
      f-2     :     0.000057
      f+3     :     0.000484
      f-3     :     0.000055
  7 H s       :     0.582187  s :     0.582187
      pz      :     0.019550  p :     0.043546
      px      :     0.012435
      py      :     0.011560
  8 H s       :     0.596946  s :     0.596946
      pz      :     0.010373  p :     0.043646
      px      :     0.014914
      py      :     0.018358


                     *******************************
                     * LOEWDIN POPULATION ANALYSIS *
                     *******************************

----------------------
LOEWDIN ATOMIC CHARGES
----------------------
   0 O :   -0.372761
   1 H :    0.148697
   2 H :    0.150365
   3 O :   -0.335554
   4 H :    0.159564
   5 H :    0.177492
   6 O :   -0.277333
   7 H :    0.177382
   8 H :    0.172147

-------------------------------
LOEWDIN REDUCED ORBITAL CHARGES
-------------------------------
  0 O s       :     3.468290  s :     3.468290
      pz      :     1.705605  p :     4.872435
      px      :     1.387747
      py      :     1.779082
      dz2     :     0.004378  d :     0.030015
      dxz     :     0.007157
      dyz     :     0.005867
      dx2y2   :     0.003419
      dxy     :     0.009193
      f0      :     0.000074  f :     0.002022
      f+1     :     0.000444
      f-1     :     0.000267
      f+2     :     0.000034
      f-2     :     0.000631
      f+3     :     0.000085
      f-3     :     0.000488
  1 H s       :     0.687004  s :     0.687004
      pz      :     0.065592  p :     0.164299
      px      :     0.045476
      py      :     0.053231
  2 H s       :     0.656607  s :     0.656607
      pz      :     0.033820  p :     0.193028
      px      :     0.111582
      py      :     0.047626
  3 O s       :     3.480269  s :     3.480269
      pz      :     1.535565  p :     4.819349
      px      :     1.449742
      py      :     1.834042
      dz2     :     0.016003  d :     0.033752
      dxz     :     0.004447
      dyz     :     0.001889
      dx2y2   :     0.004455
      dxy     :     0.006958
      f0      :     0.000395  f :     0.002185
      f+1     :     0.000776
      f-1     :     0.000206
      f+2     :     0.000050
      f-2     :     0.000044
      f+3     :     0.000074
      f-3     :     0.000640
  4 H s       :     0.682989  s :     0.682989
      pz      :     0.078916  p :     0.157447
      px      :     0.035139
      py      :     0.043392
  5 H s       :     0.669891  s :     0.669891
      pz      :     0.028948  p :     0.152617
      px      :     0.074547
      py      :     0.049122
  6 O s       :     3.459447  s :     3.459447
      pz      :     1.521679  p :     4.781857
      px      :     1.730049
      py      :     1.530129
      dz2     :     0.016665  d :     0.033815
      dxz     :     0.002016
      dyz     :     0.001927
      dx2y2   :     0.003775
      dxy     :     0.009433
      f0      :     0.000449  f :     0.002214
      f+1     :     0.000349
      f-1     :     0.000592
      f+2     :     0.000023
      f-2     :     0.000048
      f+3     :     0.000725
      f-3     :     0.000027
  7 H s       :     0.663815  s :     0.663815
      pz      :     0.081883  p :     0.158803
      px      :     0.041493
      py      :     0.035427
  8 H s       :     0.670399  s :     0.670399
      pz      :     0.029932  p :     0.157454
      px      :     0.055101
      py      :     0.072421


                      *****************************
                      * MAYER POPULATION ANALYSIS *
                      *****************************

  NA   - Mulliken gross atomic population
  ZA   - Total nuclear charge
  QA   - Mulliken gross atomic charge
  VA   - Mayer's total valence
  BVA  - Mayer's bonded valence
  FA   - Mayer's free valence

  ATOM       NA         ZA         QA         VA         BVA        FA
  0 O      8.7561     8.0000    -0.7561     1.7014     1.7014    -0.0000
  1 H      0.6650     1.0000     0.3350     0.9032     0.9032    -0.0000
  2 H      0.6118     1.0000     0.3882     0.8839     0.8839     0.0000
  3 O      8.6932     8.0000    -0.6932     1.7809     1.7809     0.0000
  4 H      0.6640     1.0000     0.3360     0.9020     0.9020     0.0000
  5 H      0.6412     1.0000     0.3588     0.8847     0.8847     0.0000
  6 O      8.7024     8.0000    -0.7024     1.7806     1.7806    -0.0000
  7 H      0.6257     1.0000     0.3743     0.8752     0.8752    -0.0000
  8 H      0.6406     1.0000     0.3594     0.8877     0.8877    -0.0000

  Mayer bond orders larger than 0.100000
B(  0-O ,  1-H ) :   0.8978 B(  0-O ,  2-H ) :   0.8240 B(  3-O ,  4-H ) :   0.8957 
B(  3-O ,  5-H ) :   0.8799 B(  6-O ,  7-H ) :   0.8672 B(  6-O ,  8-H ) :   0.8774 


-------
TIMINGS
-------

Total SCF time: 0 days 0 hours 0 min 2 sec 

Total time                  ....       2.328 sec
Sum of individual times     ....       2.154 sec  ( 92.5%)

Fock matrix formation       ....       2.006 sec  ( 86.2%)
Diagonalization             ....       0.016 sec  (  0.7%)
Density matrix formation    ....       0.003 sec  (  0.1%)
Population analysis         ....       0.002 sec  (  0.1%)
Initial guess               ....       0.094 sec  (  4.0%)
Orbital Transformation      ....       0.000 sec  (  0.0%)
Orbital Orthonormalization  ....       0.000 sec  (  0.0%)
DIIS solution               ....       0.005 sec  (  0.2%)
SOSCF solution              ....       0.006 sec  (  0.2%)


           ************************************************************
           *        Program running with 6 parallel MPI-processes     *
           *              working on a common directory               *
           ************************************************************

------------------------------------------------------------------------------
                                ORCA  MP2 
------------------------------------------------------------------------------

Freezing NCore=6 chemical core electrons
MP2 will be done in the AO integral direct mode
The Q1-step will be done using symmetric double matrices
Dimension of the basis                    ...  129
Memory devoted for MP2                    ... 8000 MB   
Memory needed for all in one shot         ...   18 MB
Number of MOs that can be treated together...  968      
MP2 density construction                  ... relaxed
The MP2 gradient is requested => amplitudes will be stored on disk
Total number of MOs              ...   12
Number of MOs treated per batch  ...    2 
Number of batches necessary      ...    1 
OPERATORS   0/  0 PASS   0
-----------------------------------------------
 MP2 CORRELATION ENERGY   :     -0.770779473 Eh
-----------------------------------------------


---------------------
MP2 DENSITY FORMATION
---------------------

Completing the external part of the density      ... done
Storing the unrelaxed density                    ... done

Calculating G(D)                                 ... done
Completing the Lagrangian                        ... done
Solving the Z-vector equations                   ... 

------------------------------------------------------------------------------
                           ORCA CP-SCF CALCULATION
------------------------------------------------------------------------------

Input orbitals are from        ... 12h2o.su.etal.mol1,6,9-orca.engrad-mp2.def2tzvp.frozencore.gbw
Input Perturbation             ... 12h2o.su.etal.mol1,6,9-orca.engrad-mp2.def2tzvp.frozencore.pin.tmp
Wavefunction output            ... 12h2o.su.etal.mol1,6,9-orca.engrad-mp2.def2tzvp.frozencore.pout.tmp
Perturbation mode              ... Real perturbation (singlet)
Solver                         ... POPLE
Max. number of iterations      ... 128
Convergence tolerance          ... 1.000e-08
Integral handling              ... Direct
Number of perturbations        ... 1
Number of operators            ... 1
Orbital ranges used for CP-SCF:
 Operator 0:  Orbitals   0... 14  to  15...128
Variables per vector in CP-SCF ... 1710
Number of vectors sought       ... 1
     CP-SCF ITERATION   0: 
     CP-SCF ITERATION   1:      0.000345248418
     CP-SCF ITERATION   2:      0.000007474847
     CP-SCF ITERATION   3:      0.000000366742
     CP-SCF ITERATION   4:      0.000000028025
     CP-SCF ITERATION   5:      0.000000001910
                                                 ... done
Finalizing the relaxed density                   ... done
Transforming P to the AO basis                   ... done
Storing the relaxed density                      ... done

------------------------------------
ENERGY WEIGHTED DENSITY FINALIZATION
------------------------------------

Gathering the parts of the W-matrix              ...                                                      done
Forming the Z-density                            ... done
Transforming Z to the AO basis                   ... done
Calculating G(Z)                                 ... done
Finalizing the W-matrix                          ...                                                      done
Transforming W to the AO basis and storing       ... done

                *********************************************
                * UNRELAXED MP2 DENSITY POPULATION ANALYSIS *
                *********************************************

------------------------------------------------------------------------------
                           ORCA POPULATION ANALYSIS
------------------------------------------------------------------------------
Input electron density              ... 12h2o.su.etal.mol1,6,9-orca.engrad-mp2.def2tzvp.frozencore.pmp2ur
BaseName (.gbw .S,...)              ... 12h2o.su.etal.mol1,6,9-orca.engrad-mp2.def2tzvp.frozencore

                    ********************************
                    * MULLIKEN POPULATION ANALYSIS *
                    ********************************

-----------------------
MULLIKEN ATOMIC CHARGES
-----------------------
   0 O :   -0.750759
   1 H :    0.332750
   2 H :    0.383888
   3 O :   -0.688200
   4 H :    0.333629
   5 H :    0.356347
   6 O :   -0.696378
   7 H :    0.371833
   8 H :    0.356891
Sum of atomic charges:   -0.0000000

--------------------------------
MULLIKEN REDUCED ORBITAL CHARGES
--------------------------------
  0 O s       :     3.802589  s :     3.802589
      pz      :     1.709334  p :     4.893108
      px      :     1.392787
      py      :     1.790987
      dz2     :     0.009556  d :     0.051021
      dxz     :     0.010068
      dyz     :     0.011009
      dx2y2   :     0.007852
      dxy     :     0.012536
      f0      :     0.000456  f :     0.004040
      f+1     :     0.000694
      f-1     :     0.000547
      f+2     :     0.000438
      f-2     :     0.000725
      f+3     :     0.000462
      f-3     :     0.000719
  1 H s       :     0.619455  s :     0.619455
      pz      :     0.017625  p :     0.047795
      px      :     0.014282
      py      :     0.015888
  2 H s       :     0.557414  s :     0.557414
      pz      :     0.011856  p :     0.058698
      px      :     0.031939
      py      :     0.014903
  3 O s       :     3.812826  s :     3.812826
      pz      :     1.512274  p :     4.818520
      px      :     1.444931
      py      :     1.861315
      dz2     :     0.016954  d :     0.052799
      dxz     :     0.008250
      dyz     :     0.008213
      dx2y2   :     0.008630
      dxy     :     0.010752
      f0      :     0.000562  f :     0.004054
      f+1     :     0.000821
      f-1     :     0.000499
      f+2     :     0.000437
      f-2     :     0.000404
      f+3     :     0.000491
      f-3     :     0.000841
  4 H s       :     0.619549  s :     0.619549
      pz      :     0.018548  p :     0.046822
      px      :     0.012873
      py      :     0.015401
  5 H s       :     0.598615  s :     0.598615
      pz      :     0.010856  p :     0.045038
      px      :     0.018557
      py      :     0.015625
  6 O s       :     3.795578  s :     3.795578
      pz      :     1.523916  p :     4.843755
      px      :     1.778311
      py      :     1.541528
      dz2     :     0.017612  d :     0.053007
      dxz     :     0.008073
      dyz     :     0.006591
      dx2y2   :     0.008139
      dxy     :     0.012593
      f0      :     0.000629  f :     0.004038
      f+1     :     0.000541
      f-1     :     0.000758
      f+2     :     0.000414
      f-2     :     0.000423
      f+3     :     0.000844
      f-3     :     0.000430
  7 H s       :     0.583103  s :     0.583103
      pz      :     0.019607  p :     0.045064
      px      :     0.013242
      py      :     0.012215
  8 H s       :     0.597893  s :     0.597893
      pz      :     0.011142  p :     0.045216
      px      :     0.015544
      py      :     0.018530


                     *******************************
                     * LOEWDIN POPULATION ANALYSIS *
                     *******************************

----------------------
LOEWDIN ATOMIC CHARGES
----------------------
   0 O :   -0.370431
   1 H :    0.147438
   2 H :    0.147929
   3 O :   -0.332559
   4 H :    0.158123
   5 H :    0.176055
   6 O :   -0.273232
   7 H :    0.176023
   8 H :    0.170655

-------------------------------
LOEWDIN REDUCED ORBITAL CHARGES
-------------------------------
  0 O s       :     3.464638  s :     3.464638
      pz      :     1.695256  p :     4.842972
      px      :     1.379505
      py      :     1.768211
      dz2     :     0.009912  d :     0.058038
      dxz     :     0.012735
      dyz     :     0.011507
      dx2y2   :     0.009006
      dxy     :     0.014878
      f0      :     0.000452  f :     0.004783
      f+1     :     0.000855
      f-1     :     0.000649
      f+2     :     0.000410
      f-2     :     0.001040
      f+3     :     0.000472
      f-3     :     0.000906
  1 H s       :     0.684961  s :     0.684961
      pz      :     0.066899  p :     0.167601
      px      :     0.046441
      py      :     0.054261
  2 H s       :     0.656503  s :     0.656503
      pz      :     0.034666  p :     0.195568
      px      :     0.112380
      py      :     0.048522
  3 O s       :     3.476456  s :     3.476456
      pz      :     1.526092  p :     4.790088
      px      :     1.441123
      py      :     1.822873
      dz2     :     0.021611  d :     0.061100
      dxz     :     0.009683
      dyz     :     0.007244
      dx2y2   :     0.010004
      dxy     :     0.012558
      f0      :     0.000802  f :     0.004916
      f+1     :     0.001204
      f-1     :     0.000590
      f+2     :     0.000417
      f-2     :     0.000412
      f+3     :     0.000447
      f-3     :     0.001044
  4 H s       :     0.681137  s :     0.681137
      pz      :     0.080629  p :     0.160740
      px      :     0.035907
      py      :     0.044204
  5 H s       :     0.668218  s :     0.668218
      pz      :     0.029729  p :     0.155727
      px      :     0.075937
      py      :     0.050061
  6 O s       :     3.455566  s :     3.455566
      pz      :     1.512309  p :     4.750895
      px      :     1.717797
      py      :     1.520789
      dz2     :     0.022423  d :     0.061780
      dxz     :     0.007481
      dyz     :     0.007235
      dx2y2   :     0.009354
      dxy     :     0.015287
      f0      :     0.000869  f :     0.004991
      f+1     :     0.000748
      f-1     :     0.001011
      f+2     :     0.000390
      f-2     :     0.000421
      f+3     :     0.001145
      f-3     :     0.000407
  7 H s       :     0.662238  s :     0.662238
      pz      :     0.083305  p :     0.161739
      px      :     0.042291
      py      :     0.036143
  8 H s       :     0.668811  s :     0.668811
      pz      :     0.030664  p :     0.160534
      px      :     0.056132
      py      :     0.073738


                      *****************************
                      * MAYER POPULATION ANALYSIS *
                      *****************************

  NA   - Mulliken gross atomic population
  ZA   - Total nuclear charge
  QA   - Mulliken gross atomic charge
  VA   - Mayer's total valence
  BVA  - Mayer's bonded valence
  FA   - Mayer's free valence

  ATOM       NA         ZA         QA         VA         BVA        FA
  0 O      8.7508     8.0000    -0.7508     2.0134     1.6227     0.3907
  1 H      0.6673     1.0000     0.3327     0.9093     0.8616     0.0477
  2 H      0.6161     1.0000     0.3839     0.8912     0.8453     0.0459
  3 O      8.6882     8.0000    -0.6882     2.0844     1.6978     0.3866
  4 H      0.6664     1.0000     0.3336     0.9082     0.8597     0.0485
  5 H      0.6437     1.0000     0.3563     0.8906     0.8433     0.0472
  6 O      8.6964     8.0000    -0.6964     2.0854     1.7001     0.3853
  7 H      0.6282     1.0000     0.3718     0.8809     0.8357     0.0452
  8 H      0.6431     1.0000     0.3569     0.8936     0.8470     0.0467

  Mayer bond orders larger than 0.100000
B(  0-O ,  1-H ) :   0.8567 B(  0-O ,  2-H ) :   0.7868 B(  3-O ,  4-H ) :   0.8538 
B(  3-O ,  5-H ) :   0.8389 B(  6-O ,  7-H ) :   0.8282 B(  6-O ,  8-H ) :   0.8373 



                *******************************************
                * RELAXED MP2 DENSITY POPULATION ANALYSIS *
                *******************************************

------------------------------------------------------------------------------
                           ORCA POPULATION ANALYSIS
------------------------------------------------------------------------------
Input electron density              ... 12h2o.su.etal.mol1,6,9-orca.engrad-mp2.def2tzvp.frozencore.pmp2re
BaseName (.gbw .S,...)              ... 12h2o.su.etal.mol1,6,9-orca.engrad-mp2.def2tzvp.frozencore

                    ********************************
                    * MULLIKEN POPULATION ANALYSIS *
                    ********************************

-----------------------
MULLIKEN ATOMIC CHARGES
-----------------------
   0 O :   -0.732809
   1 H :    0.326701
   2 H :    0.363194
   3 O :   -0.674218
   4 H :    0.327304
   5 H :    0.349701
   6 O :   -0.674637
   7 H :    0.364868
   8 H :    0.349895
Sum of atomic charges:   -0.0000000

--------------------------------
MULLIKEN REDUCED ORBITAL CHARGES
--------------------------------
  0 O s       :     3.803179  s :     3.803179
      pz      :     1.704425  p :     4.876536
      px      :     1.386405
      py      :     1.785706
      dz2     :     0.009350  d :     0.049119
      dxz     :     0.009508
      dyz     :     0.010712
      dx2y2   :     0.007724
      dxy     :     0.011824
      f0      :     0.000454  f :     0.003975
      f+1     :     0.000677
      f-1     :     0.000539
      f+2     :     0.000438
      f-2     :     0.000706
      f+3     :     0.000460
      f-3     :     0.000701
  1 H s       :     0.624711  s :     0.624711
      pz      :     0.017779  p :     0.048588
      px      :     0.014264
      py      :     0.016545
  2 H s       :     0.577793  s :     0.577793
      pz      :     0.012643  p :     0.059012
      px      :     0.030911
      py      :     0.015458
  3 O s       :     3.818203  s :     3.818203
      pz      :     1.504971  p :     4.801589
      px      :     1.440226
      py      :     1.856392
      dz2     :     0.015665  d :     0.050446
      dxz     :     0.007980
      dyz     :     0.008263
      dx2y2   :     0.008322
      dxy     :     0.010217
      f0      :     0.000547  f :     0.003980
      f+1     :     0.000791
      f-1     :     0.000493
      f+2     :     0.000437
      f-2     :     0.000403
      f+3     :     0.000490
      f-3     :     0.000820
  4 H s       :     0.625063  s :     0.625063
      pz      :     0.017876  p :     0.047633
      px      :     0.013297
      py      :     0.016460
  5 H s       :     0.604607  s :     0.604607
      pz      :     0.011579  p :     0.045692
      px      :     0.017749
      py      :     0.016364
  6 O s       :     3.798418  s :     3.798418
      pz      :     1.519005  p :     4.821360
      px      :     1.764101
      py      :     1.538254
      dz2     :     0.016286  d :     0.050897
      dxz     :     0.008055
      dyz     :     0.006539
      dx2y2   :     0.008109
      dxy     :     0.011908
      f0      :     0.000610  f :     0.003962
      f+1     :     0.000531
      f-1     :     0.000736
      f+2     :     0.000414
      f-2     :     0.000421
      f+3     :     0.000819
      f-3     :     0.000430
  7 H s       :     0.589498  s :     0.589498
      pz      :     0.018838  p :     0.045634
      px      :     0.014078
      py      :     0.012718
  8 H s       :     0.604250  s :     0.604250
      pz      :     0.011813  p :     0.045854
      px      :     0.016051
      py      :     0.017990


                     *******************************
                     * LOEWDIN POPULATION ANALYSIS *
                     *******************************

----------------------
LOEWDIN ATOMIC CHARGES
----------------------
   0 O :   -0.372821
   1 H :    0.149204
   2 H :    0.141108
   3 O :   -0.335089
   4 H :    0.159723
   5 H :    0.177704
   6 O :   -0.268737
   7 H :    0.177116
   8 H :    0.171792

-------------------------------
LOEWDIN REDUCED ORBITAL CHARGES
-------------------------------
  0 O s       :     3.466234  s :     3.466234
      pz      :     1.694870  p :     4.844559
      px      :     1.383022
      py      :     1.766667
      dz2     :     0.009853  d :     0.057208
      dxz     :     0.012369
      dyz     :     0.011419
      dx2y2   :     0.008973
      dxy     :     0.014594
      f0      :     0.000454  f :     0.004820
      f+1     :     0.000867
      f-1     :     0.000650
      f+2     :     0.000411
      f-2     :     0.001040
      f+3     :     0.000476
      f-3     :     0.000922
  1 H s       :     0.682905  s :     0.682905
      pz      :     0.067007  p :     0.167891
      px      :     0.046015
      py      :     0.054869
  2 H s       :     0.663047  s :     0.663047
      pz      :     0.035409  p :     0.195846
      px      :     0.111304
      py      :     0.049133
  3 O s       :     3.478839  s :     3.478839
      pz      :     1.526957  p :     4.791599
      px      :     1.444292
      py      :     1.820349
      dz2     :     0.020880  d :     0.059717
      dxz     :     0.009424
      dyz     :     0.007320
      dx2y2   :     0.009802
      dxy     :     0.012292
      f0      :     0.000799  f :     0.004933
      f+1     :     0.001214
      f-1     :     0.000589
      f+2     :     0.000419
      f-2     :     0.000411
      f+3     :     0.000449
      f-3     :     0.001052
  4 H s       :     0.679211  s :     0.679211
      pz      :     0.080092  p :     0.161066
      px      :     0.035760
      py      :     0.045214
  5 H s       :     0.666579  s :     0.666579
      pz      :     0.030135  p :     0.155718
      px      :     0.074815
      py      :     0.050768
  6 O s       :     3.457052  s :     3.457052
      pz      :     1.514349  p :     4.745923
      px      :     1.708653
      py      :     1.522921
      dz2     :     0.021730  d :     0.060752
      dxz     :     0.007519
      dyz     :     0.007103
      dx2y2   :     0.009415
      dxy     :     0.014986
      f0      :     0.000869  f :     0.005009
      f+1     :     0.000748
      f-1     :     0.001018
      f+2     :     0.000391
      f-2     :     0.000421
      f+3     :     0.001153
      f-3     :     0.000409
  7 H s       :     0.661304  s :     0.661304
      pz      :     0.082310  p :     0.161580
      px      :     0.042983
      py      :     0.036287
  8 H s       :     0.667628  s :     0.667628
      pz      :     0.030996  p :     0.160581
      px      :     0.056620
      py      :     0.072966


                      *****************************
                      * MAYER POPULATION ANALYSIS *
                      *****************************

  NA   - Mulliken gross atomic population
  ZA   - Total nuclear charge
  QA   - Mulliken gross atomic charge
  VA   - Mayer's total valence
  BVA  - Mayer's bonded valence
  FA   - Mayer's free valence

  ATOM       NA         ZA         QA         VA         BVA        FA
  0 O      8.7328     8.0000    -0.7328     2.0199     1.6338     0.3861
  1 H      0.6733     1.0000     0.3267     0.9129     0.8651     0.0477
  2 H      0.6368     1.0000     0.3632     0.9168     0.8714     0.0454
  3 O      8.6742     8.0000    -0.6742     2.0909     1.7095     0.3814
  4 H      0.6727     1.0000     0.3273     0.9131     0.8645     0.0485
  5 H      0.6503     1.0000     0.3497     0.8956     0.8483     0.0473
  6 O      8.6746     8.0000    -0.6746     2.1140     1.7345     0.3796
  7 H      0.6351     1.0000     0.3649     0.8873     0.8421     0.0451
  8 H      0.6501     1.0000     0.3499     0.9004     0.8538     0.0466

  Mayer bond orders larger than 0.100000
B(  0-O ,  1-H ) :   0.8600 B(  0-O ,  2-H ) :   0.7900 B(  3-O ,  4-H ) :   0.8576 
B(  3-O ,  5-H ) :   0.8436 B(  6-O ,  7-H ) :   0.8322 B(  6-O ,  8-H ) :   0.8408 



----------------------------------
MP2 DERIVATIVE INTEGRAL GENERATION
----------------------------------


Input Wavefunction Amplitudes       ... 12h2o.su.etal.mol1,6,9-orca.engrad-mp2.def2tzvp.frozencore.mp2tsaa.tmp
Input Correlated Electron Density   ... 12h2o.su.etal.mol1,6,9-orca.engrad-mp2.def2tzvp.frozencore.pmp2re
Input Energy Weighted Density       ... 12h2o.su.etal.mol1,6,9-orca.engrad-mp2.def2tzvp.frozencore.wmp2.tmp
Input SCF Electron Density          ... 12h2o.su.etal.mol1,6,9-orca.engrad-mp2.def2tzvp.frozencore.scfp

One-Electron Terms    ...
                        ... One-Electron Terms done
Prescreening matrices              ... done

Batch handling in the gradient evaluation:
Memory available                      ... 8000.0 MB
Memory per occupied orbital in Q2     ...    1.5 MB
Memory per occupied orbital in Q3     ...    0.0 MB
Total memory requirement per |i>      ...    1.6 MB
Max. Number of orbitals possible      ...   5089
Number of orbitals treated per batch  ...     12
Number of batches to be done          ...      1
Batch   0: i=    3 ...    14

---------------------------------------
MP2 TOTAL ENERGY:     -228.946647144 Eh
---------------------------------------

The final MP2 gradient
  0:  -0.01156730   0.00363217  -0.00005231
  1:  -0.00182149   0.00021272   0.00053276
  2:   0.02181200  -0.00629961  -0.00135090
  3:   0.01399940  -0.00689667  -0.01149269
  4:   0.00284304  -0.00059846   0.00951118
  5:  -0.01652281   0.00769381   0.00114183
  6:  -0.01329281  -0.00564199   0.00774779
  7:   0.00027722  -0.00082840  -0.00568391
  8:   0.00427275   0.00872643  -0.00035375

-----------------------------------
NORM OF THE MP2 GRADIENT:  0.043268
-----------------------------------

-------------------------   --------------------
FINAL SINGLE POINT ENERGY      -228.946647144080
-------------------------   --------------------


                            ***************************************
                            *     ORCA property calculations      *
                            ***************************************

                                    ---------------------
                                    Active property flags
                                    ---------------------
   (+) Dipole Moment


------------------------------------------------------------------------------
                       ORCA ELECTRIC PROPERTIES CALCULATION
------------------------------------------------------------------------------

Dipole Moment Calculation                       ... on
Quadrupole Moment Calculation                   ... off
Polarizability Calculation                      ... off
GBWName                                         ... 12h2o.su.etal.mol1,6,9-orca.engrad-mp2.def2tzvp.frozencore.gbw
Electron density file                           ... 12h2o.su.etal.mol1,6,9-orca.engrad-mp2.def2tzvp.frozencore.scfp
The origin for moment calculation is the CENTER OF MASS  = ( 0.449219, -1.117820  3.565505)

-------------
DIPOLE MOMENT
-------------
                                X             Y             Z
Electronic contribution:      0.21890      -0.11057      -0.14156
Nuclear contribution   :      0.42024       0.22976       0.72077
                        -----------------------------------------
Total Dipole Moment    :      0.63914       0.11920       0.57921
                        -----------------------------------------
Magnitude (a.u.)       :      0.87074
Magnitude (Debye)      :      2.21324



--------------------
Rotational spectrum 
--------------------
 
Rotational constants in cm-1:     0.291777     0.073481     0.059438 
Rotational constants in MHz :  8747.244683  2202.892955  1781.904797 

 Dipole components along the rotational axes: 
x,y,z [a.u.] :    -0.083988     0.618460     0.607158 
x,y,z [Debye]:    -0.213480     1.572000     1.543274 

 

                         *** MP2 UNRELAXED DENSITY ***

------------------------------------------------------------------------------
                       ORCA ELECTRIC PROPERTIES CALCULATION
------------------------------------------------------------------------------

Dipole Moment Calculation                       ... on
Quadrupole Moment Calculation                   ... off
Polarizability Calculation                      ... off
GBWName                                         ... 12h2o.su.etal.mol1,6,9-orca.engrad-mp2.def2tzvp.frozencore.gbw
Electron density file                           ... 12h2o.su.etal.mol1,6,9-orca.engrad-mp2.def2tzvp.frozencore.pmp2ur
The origin for moment calculation is the CENTER OF MASS  = ( 0.449219, -1.117820  3.565505)

-------------
DIPOLE MOMENT
-------------
                                X             Y             Z
Electronic contribution:      0.21725      -0.11371      -0.14913
Nuclear contribution   :      0.42024       0.22976       0.72077
                        -----------------------------------------
Total Dipole Moment    :      0.63749       0.11606       0.57164
                        -----------------------------------------
Magnitude (a.u.)       :      0.86408
Magnitude (Debye)      :      2.19633



--------------------
Rotational spectrum 
--------------------
 
Rotational constants in cm-1:     0.291777     0.073481     0.059438 
Rotational constants in MHz :  8747.244683  2202.892955  1781.904797 

 Dipole components along the rotational axes: 
x,y,z [a.u.] :    -0.086285     0.616373     0.599399 
x,y,z [Debye]:    -0.219319     1.566696     1.523552 

 

                           *** MP2 RELAXED DENSITY ***

------------------------------------------------------------------------------
                       ORCA ELECTRIC PROPERTIES CALCULATION
------------------------------------------------------------------------------

Dipole Moment Calculation                       ... on
Quadrupole Moment Calculation                   ... off
Polarizability Calculation                      ... off
GBWName                                         ... 12h2o.su.etal.mol1,6,9-orca.engrad-mp2.def2tzvp.frozencore.gbw
Electron density file                           ... 12h2o.su.etal.mol1,6,9-orca.engrad-mp2.def2tzvp.frozencore.pmp2re
The origin for moment calculation is the CENTER OF MASS  = ( 0.449219, -1.117820  3.565505)

-------------
DIPOLE MOMENT
-------------
                                X             Y             Z
Electronic contribution:      0.22319      -0.11659      -0.15870
Nuclear contribution   :      0.42024       0.22976       0.72077
                        -----------------------------------------
Total Dipole Moment    :      0.64344       0.11318       0.56206
                        -----------------------------------------
Magnitude (a.u.)       :      0.86182
Magnitude (Debye)      :      2.19057



--------------------
Rotational spectrum 
--------------------
 
Rotational constants in cm-1:     0.291777     0.073481     0.059438 
Rotational constants in MHz :  8747.244683  2202.892955  1781.904797 

 Dipole components along the rotational axes: 
x,y,z [a.u.] :    -0.094658     0.619257     0.591856 
x,y,z [Debye]:    -0.240602     1.574027     1.504379 

 

Timings for individual modules:

Sum of individual times         ...        8.761 sec (=   0.146 min)
GTO integral calculation        ...        0.992 sec (=   0.017 min)  11.3 %
SCF iterations                  ...        3.088 sec (=   0.051 min)  35.2 %
MP2 module                      ...        4.681 sec (=   0.078 min)  53.4 %
                             ****ORCA TERMINATED NORMALLY****
TOTAL RUN TIME: 0 days 0 hours 0 minutes 9 seconds 767 msec
