30
Energy:   -381.57341868
O    0.02846796  -1.06921636  -3.71396091
H    0.68513505  -1.65716908  -3.34068919
H   -0.53875985  -1.64065736  -4.23158978
O    1.90219313   0.97380267   1.54010597
H    1.48692825   1.67037086   1.03159865
H    1.87798825   0.20938988   0.96450276
O   -1.77015341   2.07056509   1.65149971
H   -1.05733627   2.41434554   1.11304027
H   -2.27255264   2.84422858   1.90698294
O   -2.28856819  -0.15308268   0.05430075
H   -1.88833690  -0.85057211   0.57348786
H   -2.29132625   0.60738408   0.63560493
O    0.34693068   2.71439535   0.00424787
H    0.74080575   3.43602020  -0.48600906
H    0.15379391   2.05125496  -0.65845482
O    1.28346920  -1.12261445  -0.14729415
H    0.77256730  -0.51562608  -0.68280907
H    0.64465123  -1.51193534   0.44984293
O   -0.72004276  -1.84274915   1.60642481
H   -0.54531004  -1.14143009   2.23400101
H   -0.90889342  -2.60854802   2.14875254
O   -0.21281257   0.30512601   3.12771654
H    0.63155700   0.55238763   2.75071048
H   -0.82679663   0.95687015   2.78936022
O    1.82205729  -2.62144634  -2.36255180
H    1.69668388  -2.18744258  -1.51865957
H    2.76063890  -2.80540302  -2.40071389
O   -0.26622227   0.59164715  -1.57648842
H   -1.07664880   0.30076680  -1.15836247
H   -0.23853965   0.11319779  -2.40507259
