30
Energy:   -380.76143519
O    0.76881530  -1.28933066   2.31809395
H    0.54064939  -1.72304680   3.14032413
H    0.40536327  -0.40787873   2.40281086
O   -1.48326894   1.04284297  -0.13484189
H   -0.82604986   1.47721125  -0.67855057
H   -2.22960369   0.91130600  -0.71957628
O    1.70168250  -0.60193971  -1.43997187
H    2.31386195  -0.59424752  -0.70416687
H    0.92442165  -1.04589755  -1.10085705
O   -2.67713429  -2.34766378  -1.62505403
H   -2.36296191  -2.98999175  -2.26140482
H   -1.92696685  -2.19142325  -1.05140819
O    3.01730751  -0.40932747   0.99390468
H    2.31303201  -0.78884989   1.51944308
H    3.82130217  -0.72822389   1.40394064
O   -0.18892366   1.20905853   2.31972155
H   -0.82101227   1.26216367   1.60287032
H    0.57057650   1.70051032   2.00688534
O   -3.48791513   0.25430578  -1.80182036
H   -3.27384742  -0.67856015  -1.81478242
H   -4.44270807   0.28058471  -1.73927661
O    0.77410152   1.92333974  -1.46782234
H    0.94626754   2.35176937  -2.30629640
H    1.13461137   1.04251889  -1.56989639
O   -0.53751181  -1.49586171  -0.12577165
H   -0.14032239  -1.61157542   0.73741011
H   -0.90631022  -0.61283405  -0.10382323
O    2.00463703   2.18428771   1.02086801
H    2.49881601   1.36469240   1.00405973
H    1.62818007   2.25556971   0.14369591
