30
Energy:   -381.27869919
O    0.20989344  -1.15282116  -2.28594390
H    0.48050189  -1.80398006  -1.63864567
H   -0.69847697  -0.95283102  -2.05989305
O    1.19689478   1.22260369   2.01485716
H    1.76586990   0.56442982   1.61572519
H    1.00188673   1.83382377   1.30449547
O   -2.05200458   1.84750869   0.07622089
H   -1.17635387   2.20153890  -0.07911838
H   -2.63535662   2.60068955  -0.01678903
O   -2.22157448  -0.62169371  -1.17679146
H   -2.24168599   0.25986554  -0.80439294
H   -2.10718788  -1.19866300  -0.42163982
O    0.54499384   2.70186972  -0.25340540
H    1.02473311   3.52721622  -0.32329988
H    0.99889104   2.10899231  -0.85232572
O    2.56292324  -0.54926270   0.44646944
H    2.04060601  -1.34196034   0.32380317
H    2.44783487  -0.05778719  -0.36681916
O   -1.56132378  -2.11534831   1.07797435
H   -2.23265271  -2.59925518   1.55899770
H   -1.45374098  -1.30114948   1.56964299
O   -1.34604574   0.28007678   2.25330763
H   -0.43716504   0.56610028   2.34473122
H   -1.72069385   0.87504973   1.60378641
O    0.86634961  -2.68142758  -0.06892161
H    0.03551658  -2.53628457   0.38371713
H    1.06708938  -3.60410874   0.08790586
O    1.87052388   0.89451971  -1.82866212
H    1.24988085   0.20323082  -2.05921312
H    2.48130488   0.92405847  -2.56507633
