30
Energy:   -381.69192756
O    2.68729859  -0.38048731  -0.95589593
H    1.95062632  -0.54329224  -1.54499726
H    2.42324551  -0.77767576  -0.12598680
O    0.36450442  -0.63280212  -2.42711310
H    0.06080935   0.21359911  -2.09907939
H    0.35047714  -0.54004873  -3.37970529
O   -1.68197807  -1.76646155  -0.94406135
H   -2.25132807  -0.99844684  -0.89688246
H   -0.96528668  -1.49891979  -1.51939317
O    0.68491494   1.40908391   1.15986217
H    1.43643829   1.90431840   0.83399825
H    1.02799333   0.52993296   1.31993301
O   -2.99948857   0.63238671  -0.42966206
H   -3.87680424   1.01086807  -0.37220849
H   -2.68124985   0.62608565   0.47306506
O    1.60949927  -1.16099303   1.49490872
H    2.08360622  -1.44404541   2.27678838
H    0.76732448  -1.61280259   1.54821539
O   -0.94335606  -2.13532970   1.60921899
H   -1.19821731  -2.08201273   0.68811373
H   -1.38385975  -2.92019540   1.93506278
O   -0.56739903   1.60620837  -1.29932821
H   -0.11607576   1.62668315  -0.45545622
H   -1.47803280   1.40933669  -1.07973880
O    2.90817544   2.23455970  -0.19165190
H    3.08830771   2.77329589  -0.96207226
H    2.94810802   1.33409101  -0.51382169
O   -1.82134023   0.48646968   1.98133569
H   -1.00322392   0.96918855   1.86343729
H   -1.55519703  -0.43239113   2.01441835
