30
Energy:   -381.54781955
O    1.92970449   1.96471173  -0.45110954
H    2.55034943   2.61284363  -0.11800784
H    1.42232427   1.70153629   0.31670284
O    0.34642273  -1.52977445   0.44406192
H    0.35448541  -0.65774969   0.83870057
H   -0.44445124  -1.54192908  -0.09501366
O    1.94643200  -0.57072575  -1.58432708
H    1.53497013  -1.04608484  -0.86254823
H    2.12619040   0.29901900  -1.22730770
O    0.01287759  -2.63182509   2.92024707
H    0.68705650  -3.29768290   3.05570194
H    0.12072032  -2.36325072   2.00784935
O   -1.94402370   1.31493719  -0.02650868
H   -2.07632331   0.44636162  -0.40638386
H   -1.52359305   1.81981771  -0.72261612
O   -0.34986267   2.31464854  -2.01086323
H   -0.30489116   1.53222597  -2.56043062
H    0.48818119   2.33177281  -1.54867160
O   -0.32971814  -0.10637309   3.89889555
H   -1.10808367  -0.09857972   4.45595767
H   -0.21205931  -1.02676413   3.66380286
O   -1.79557441  -1.17610223  -1.27023397
H   -2.51696630  -1.68952182  -1.63386277
H   -1.30739179  -0.87255060  -2.03558748
O   -0.13734112  -0.18206867  -3.22354727
H    0.12421682  -0.29150450  -4.13779181
H    0.65882757  -0.36073210  -2.72312079
O    0.27417766   0.97914716   1.47424649
H    0.07766623   0.74301845   2.38081052
H   -0.57870953   1.17754600   1.08765473
