30
Energy:   -381.02354768
O    1.24936758   1.48093078  -3.04431726
H    1.90168431   1.37038836  -3.73605066
H    1.76395588   1.60923326  -2.24746771
O   -0.10594176  -0.35688955   2.82666527
H    0.24222392   0.39820741   2.35249115
H    0.13883383  -0.20115865   3.73884105
O    0.49741048  -2.50563238   1.19380618
H    0.33671667  -1.82891921   1.85142965
H   -0.31585275  -2.54949385   0.69090367
O   -1.72701510   1.67478216  -0.01967051
H   -2.11365979   1.01608153   0.55726208
H   -2.41085594   2.33698518  -0.12007329
O    1.71150915  -1.10273289  -0.79060184
H    1.44055361  -1.67215437  -0.07048093
H    0.89192215  -0.83536233  -1.20656094
O    0.67500341   1.77021170   1.34936711
H    1.36858203   1.73855476   0.69044497
H   -0.12909167   1.89606314   0.84555726
O   -1.75562399  -2.17477860  -0.41627459
H   -2.16456607  -2.83982240  -0.97009312
H   -1.41172538  -1.52785453  -1.03227364
O   -2.54880205  -0.35387109   1.52691484
H   -1.79781438  -0.40379634   2.11831727
H   -2.42643001  -1.08501887   0.92137389
O   -0.64289643  -0.07780954  -1.83239525
H   -1.04360222   0.57804319  -1.26184822
H   -0.09449343   0.42839935  -2.43176036
O    2.59706004   1.41360323  -0.61500180
H    2.38855654   0.47949130  -0.62889563
H    3.51225550   1.45110715  -0.33707631
