30
Energy:   -381.01110300
O   -1.18390421  -3.07633085  -1.21384780
H   -1.38569037  -2.32817964  -0.65190122
H   -2.02077827  -3.30552097  -1.61800809
O    0.55271830  -1.23064228   2.21481829
H    1.27836479  -1.32997750   1.59853789
H    0.67777381  -1.93693107   2.84865511
O    0.07459420   0.52858310  -1.62504192
H    0.82557912   0.88446883  -1.15006944
H   -0.40954025   0.02813265  -0.96823524
O    0.47886187   1.54880643   2.10788753
H    0.50184839   0.62179001   2.34525647
H   -0.43070247   1.70977750   1.85686386
O   -1.67388203   2.59439605  -1.42731184
H   -1.83992079   3.02360620  -2.26662205
H   -1.03937087   1.90715024  -1.63058659
O    2.11598101   1.44212480  -0.02804823
H    2.74056367   2.16746203  -0.02427294
H    1.58815118   1.57583575   0.75919309
O   -1.36477922  -0.78391564   0.31493319
H   -1.79917399   0.00615523   0.63636910
H   -0.75044710  -1.01971439   1.01007839
O   -2.11614187   1.75625765   1.11836865
H   -2.85896880   2.21547895   1.51023060
H   -2.02042019   2.15062256   0.25145139
O    1.22525069  -1.97116593  -1.98793433
H    0.46009868  -2.51680748  -1.80613903
H    0.86808690  -1.09269279  -2.11812965
O    2.47182493  -1.29192895   0.34644690
H    2.15531044  -1.65806358  -0.47938351
H    2.56171092  -0.35458389   0.17458480
