30
Energy:   -381.26508162
O    1.01660725  -3.78408607  -1.02305258
H    0.27990938  -3.83765944  -0.41425213
H    1.60731389  -4.48496480  -0.74725098
O    0.39402559   1.06575930   2.40984633
H    0.80229196   1.00015673   3.27312307
H    1.12624590   1.02727549   1.79453806
O   -0.98951176   2.92664515   0.92100064
H   -0.54330030   2.35001003   1.54117733
H   -1.29452957   3.66142856   1.45324994
O   -0.99146117  -0.89776379   1.02188753
H   -0.57051704  -0.30396805   1.64353415
H   -1.55637986  -0.33254007   0.49499013
O    1.00811207   2.82721223  -1.01066122
H    0.29994972   3.02528445  -0.39787632
H    0.61148262   2.23987048  -1.65404803
O   -0.20343619   0.81061683  -2.49049145
H    0.24932859   0.09771095  -2.03993501
H   -0.15272224   0.57895892  -3.41785037
O    0.95024675  -1.05980446  -0.88487236
H    1.09873565  -1.99117871  -1.04834987
H    0.27311085  -1.03981647  -0.20861849
O   -2.20492089   0.92329081  -0.56595979
H   -1.65579108   0.91653663  -1.34995129
H   -1.93920441   1.71229958  -0.09363389
O   -1.03645291  -3.64411748   0.77675945
H   -1.07552741  -2.70587053   0.96222556
H   -1.95015350  -3.92918198   0.78777353
O    2.27093541   0.94171296   0.50627280
H    2.01484398   1.67975938  -0.04684247
H    2.04383287   0.16664847  -0.00746967
