30
Energy:   -382.53774881
O   -0.77927867   0.07327286  -2.62407035
H   -0.20845161  -0.66460827  -2.40978137
H   -1.43377366   0.08110409  -1.92563866
O    0.50910766  -2.33032707   0.83451320
H    1.17122822  -1.75349931   1.21543044
H    0.67070839  -2.29156021  -0.10815014
O   -1.12128210   2.48832011   0.34618596
H   -1.61330922   3.30427443   0.25475452
H   -1.70586406   1.81523189  -0.00230798
O   -2.57593404   0.31039398  -0.51668684
H   -3.47171725   0.08162118  -0.76461285
H   -2.36720592  -0.28388504   0.20407447
O    1.04994456  -1.82830623  -1.81958411
H    1.67654419  -1.15949875  -1.54335722
H    1.52747639  -2.35418280  -2.46118292
O    2.12087484  -0.28971517   1.80418233
H    1.34221312   0.20414752   2.06112087
H    2.73597045  -0.16066138   2.52614796
O   -1.81283685  -1.24078696   1.60517531
H   -2.21057758  -1.83815064   2.23857155
H   -1.02141453  -1.69300848   1.31297974
O    0.82791165   2.01677166  -1.56865138
H    0.29202916   1.42972895  -2.10198304
H    0.24561413   2.29872444  -0.86319828
O   -0.22465869   0.89266152   2.41826131
H   -0.47895073   1.56819899   1.78959882
H   -0.84402740   0.17870364   2.26700525
O    2.64732508   0.10617169  -0.88607987
H    2.13571323   0.87854251  -1.12676321
H    2.56650118   0.05195148   0.06615934
