30
Energy:   -382.76802484
O    0.40545997  -0.24299291   1.89630766
H    1.12733204  -0.65595905   1.42239677
H   -0.28814387  -0.90264160   1.89933584
O   -1.63283091  -2.02232851   1.28661601
H   -2.23389511  -2.65425949   1.68109912
H   -2.20063026  -1.41424438   0.81325629
O   -0.95670142   1.66158299   0.45149898
H   -0.51409872   1.72580677  -0.39479293
H   -0.45037624   1.01135333   0.93839533
O    0.10700294  -2.50652515  -0.83913008
H   -0.46115124  -2.49019367  -0.06895739
H    0.94734132  -2.17320630  -0.52454813
O    1.49407594   2.39799630   1.75260691
H    1.31738339   1.56607708   2.19183578
H    0.64202810   2.67893699   1.41896240
O   -2.93693896  -0.07041968  -0.14981381
H   -2.32737492   0.62818788   0.08811690
H   -3.78810367   0.36349513  -0.20870708
O   -1.21083587  -0.61224707  -2.28585328
H   -1.94457234  -0.49498682  -1.68243577
H   -0.72353125  -1.35512994  -1.92963550
O    2.34909872  -1.30466568   0.27525800
H    2.52362807  -0.42898624  -0.06964324
H    3.21615657  -1.68976240   0.40231327
O    0.30340145   1.58755758  -1.99076495
H   -0.17445527   0.78452003  -2.19816673
H    0.26592798   2.10386117  -2.79590978
O    2.60192912   1.25290660  -0.49264270
H    1.88983245   1.40974691  -1.11276470
H    2.36709097   1.76959947   0.27814351
