30
Energy:   -381.16836019
O    0.19810934  -1.12654889  -2.35813925
H    0.50430806  -1.70735555  -1.66162089
H   -0.69529767  -0.89625049  -2.10315219
O    1.13821044   1.11851348   2.06297273
H    1.71155670   1.52365571   2.71363831
H    1.72021764   0.56625684   1.54094585
O   -2.22751577   2.09152339  -0.00220039
H   -1.31473306   2.35648975  -0.11556883
H   -2.73027572   2.89195781  -0.15309454
O   -2.13896462  -0.49840025  -1.04632523
H   -1.89802487  -0.90503377  -0.21396169
H   -2.31789342   0.41530157  -0.82414216
O    0.42689909   2.62840563  -0.15461928
H    0.70595193   2.20538776   0.65742582
H    0.84924008   2.12038850  -0.84727974
O    2.60065234  -0.33874594   0.35074808
H    2.14651374  -1.17170028   0.22355911
H    2.44336306   0.14647428  -0.45922308
O   -1.34704103  -2.38452520   1.14925760
H   -2.22342779  -2.74845026   1.27470340
H   -1.37105589  -1.54023470   1.59962265
O   -1.45147674   0.19767971   1.89852192
H   -0.56263087   0.50907217   2.06945933
H   -1.85328710   0.89290941   1.37752677
O    1.02913148  -2.60413378  -0.14794449
H    0.19912575  -2.57825461   0.32813597
H    1.21110210  -3.53686853  -0.26250643
O    1.77420076   0.95618546  -1.91910748
H    2.27473117   1.15722414  -2.70985687
H    1.19710662   0.23725953  -2.17667245
