30
Energy:   -380.81601470
O    2.89778203  -1.42594993  -0.43575500
H    2.74621797  -1.75970978   0.44847605
H    2.70941736  -0.48947749  -0.37435496
O   -0.08690760   2.84948902   1.26130838
H   -0.00853871   3.72101861   1.64928562
H   -0.52990884   2.99767452   0.42583078
O   -1.17804018   0.49743871   2.29032442
H   -0.83360395   1.36001273   2.05889065
H   -0.40064106  -0.05090886   2.39614217
O    0.84090219  -2.03332142  -2.08108407
H    1.12054669  -2.63372444  -2.77213183
H    1.63444069  -1.86655249  -1.57244214
O   -1.18074380   2.95923667  -1.23512016
H   -1.03952825   2.05946046  -1.52955653
H   -1.42688954   3.43541446  -2.02815159
O   -0.42831978  -2.68471476   0.29325427
H   -0.04996441  -2.60267575  -0.58215915
H   -1.21937717  -2.14655504   0.26419947
O    1.43066370   0.90312955   0.00790182
H    0.73903849   0.72528054  -0.62948043
H    1.12089382   1.66946428   0.49060830
O   -2.37330042  -0.72298099   0.21741677
H   -2.03052618  -0.27333882   0.98978947
H   -3.31243212  -0.80390684   0.38389350
O    1.06025608  -1.06081807   1.88658716
H    1.22505030  -0.37514493   1.23934141
H    0.56054340  -1.72451581   1.41116693
O   -0.64708490   0.28014316  -1.66824318
H   -0.20091012  -0.49383182  -2.01193291
H   -1.32207944  -0.07027053  -1.08701649
