30
Energy:   -381.97916071
O   -0.65344358  -1.27378841  -2.45059048
H    0.17295792  -1.52505302  -2.03808775
H   -1.32025909  -1.47453159  -1.79386291
O    1.16895433  -0.01696847   2.49135717
H    1.70992606   0.19524006   3.25198124
H    1.75644814   0.08618593   1.74273040
O   -0.94990626   1.40863133  -2.10404517
H   -1.62853849   1.36996361  -1.43010529
H   -0.83800405   0.50025586  -2.38433741
O   -2.22280838  -1.56805856  -0.22821833
H   -1.52570721  -1.78058007   0.39235916
H   -2.42939464  -0.65018219  -0.05198854
O   -0.37246963   2.04700623   1.48409693
H    0.10949994   1.35758327   1.94086073
H    0.19704860   2.29609726   0.75619962
O    2.60379218   0.24177192   0.24862898
H    2.34588073  -0.51586103  -0.27644802
H    2.21210887   0.99025289  -0.20147353
O   -0.04670089  -2.20714556   1.38007681
H    0.32165049  -1.46122378   1.85352144
H   -0.27003881  -2.83875788   2.06375648
O   -2.54295984   1.15428345   0.15772283
H   -1.82633980   1.48762971   0.69769305
H   -3.29923148   1.68474849   0.40850541
O    1.50948108  -2.02631706  -0.89443919
H    0.97055542  -2.20695515  -0.12426982
H    1.88595648  -2.87474268  -1.12825982
O    1.18083789   2.36449004  -0.78988015
H    1.49423579   3.13773776  -1.25902998
H    0.46406001   2.03062796  -1.32932193
