30
Energy:   -382.44569518
O    2.01599470   1.52885344   1.36434757
H    1.56001907   0.82389933   1.82408420
H    1.37520099   2.23834516   1.31705318
O    0.36851208  -0.42369070   2.39602940
H    0.13563599  -0.42836251   3.32445751
H   -0.37674056  -0.00657545   1.96377343
O    1.21265819  -1.76338326  -1.58287050
H    1.83128340  -2.28201641  -2.09721897
H    1.65749464  -0.92722056  -1.44436303
O   -1.29379579  -0.79508187  -2.32639184
H   -1.85889150  -1.15637753  -1.64348326
H   -0.45073345  -1.22879998  -2.19461038
O   -0.09505527   3.23493029   0.92752480
H   -0.22125650   2.96030030   0.01929385
H   -0.85740742   2.88839508   1.39116733
O   -1.64348748   0.67806533   0.98462423
H   -2.14822835  -0.08284136   0.69741435
H   -1.22377938   1.00232163   0.18779626
O   -2.52777816  -1.75031132  -0.02606195
H   -1.70757522  -2.14682553   0.26766491
H   -3.18121581  -2.44105242   0.08406440
O    2.27326299   0.74190134  -1.18113146
H    2.96935876   1.26654971  -1.57663952
H    2.28283587   0.98853927  -0.25630178
O   -0.36547081   1.54841263  -1.30191439
H   -0.79286739   0.86186380  -1.81398343
H    0.56661039   1.33486160  -1.34495418
O   -0.07957003  -2.57835998   0.72432861
H    0.45176681  -2.38287102  -0.04748554
H    0.19678985  -1.93354425   1.37553499
