30
Energy:   -380.51065163
O   -0.36273034  -1.66415412  -2.11433991
H   -0.48005373  -2.36159225  -2.75935707
H    0.02724309  -2.10077275  -1.35703103
O    1.55071228   1.57949537   1.40394051
H    2.00279848   0.76948310   1.16786837
H    0.78589988   1.29106465   1.90203845
O   -1.97504728   1.78765501   0.02568394
H   -1.15378893   2.06914291  -0.37746754
H   -2.62670996   2.40977010  -0.29764314
O   -2.54017094  -0.84724849  -0.63564381
H   -2.38198446   0.08384416  -0.47983830
H   -1.84934012  -1.10951838  -1.24408373
O    0.50830774   2.47539061  -0.89413839
H    0.92666669   2.22760404  -0.06963281
H    0.94873327   3.28488068  -1.15294919
O    2.65701970  -0.68974379   0.29439605
H    3.58192950  -0.91436845   0.19282115
H    2.38751690  -0.38497572  -0.57204293
O   -1.31122027  -1.78017750   1.62328058
H   -1.88242261  -1.57652340   0.88268302
H   -1.12152262  -0.93035672   2.02083725
O   -0.92328263   0.84906902   2.40180701
H   -1.43820252   1.13478999   3.15642804
H   -1.38860296   1.20534220   1.64498585
O    0.75248567  -2.68571108   0.09611814
H    0.07020163  -2.48792022   0.73767805
H    1.46025111  -2.07522847   0.30254224
O    1.64272069   0.22043443  -2.02881799
H    1.20266337   1.02947420  -1.76798078
H    0.93058757  -0.39687794  -2.19622082
