30
Energy:   -380.46873457
O    1.10105253  -1.17761643  -3.26547647
H    1.02096135  -1.79764304  -2.54064252
H    0.46182351  -1.47917436  -3.91098474
O    1.57787504   0.90261694   2.24012649
H    2.37138997   0.99294772   2.76776865
H    1.83873188   0.34369254   1.50815035
O   -2.08883411   2.07375192   1.09524856
H   -1.21861928   2.41939561   0.89653157
H   -2.62473773   2.85051160   1.25550946
O   -1.88422354   0.31897920  -1.03111096
H   -1.78228346  -0.51458450  -0.57175094
H   -2.11009326   0.94571215  -0.34378242
O    0.44200163   2.75813720   0.51130498
H    0.92679955   2.23077569   1.14620076
H    0.63661853   2.35439484  -0.33447762
O    2.08565380  -0.52068027   0.02825359
H    1.79299258  -1.38847120  -0.25017083
H    1.68509957   0.08058039  -0.59965865
O   -1.41481278  -1.96368852   0.46717456
H   -2.21156928  -2.41722885   0.74233289
H   -1.20811221  -1.37829564   1.19574981
O   -0.99127401  -0.12133666   2.38692844
H   -0.09013786   0.18642559   2.48423147
H   -1.47670482   0.64787771   2.08877072
O    0.78271102  -2.75476977  -0.97822601
H   -0.00657249  -2.52751864  -0.48667713
H    0.96591897  -3.66148494  -0.73218881
O    0.64614488   1.03346957  -1.69849603
H   -0.27381681   0.82522405  -1.53559688
H    0.90606434   0.43828714  -2.40165432
