60
Energy:   -336.60157684
O   -0.41060387  -0.36533463   4.13680071
H   -0.72619338  -0.62579524   3.25874217
C   -1.52053956  -0.39622819   5.01976284
H   -1.14736803  -0.10029563   6.00396411
H   -1.96392138  -1.40019837   5.11050297
H   -2.31464320   0.30938488   4.72944071
O   -1.19075070  -0.91959363   1.49456402
H   -0.82532603  -1.52707134   0.83436790
C   -1.09231303   0.39515899   0.97085671
H   -1.50825474   1.06648735   1.72702861
H   -1.66953738   0.52736676   0.04235766
H   -0.05149671   0.69977541   0.77931679
O    2.01833215   1.34392389  -1.46769366
H    2.39949158   0.98010610  -0.65481152
C    1.33349248   0.29277503  -2.12997341
H    0.91036280   0.71986475  -3.04323178
H    0.50652385  -0.11972221  -1.53101911
H    2.00080287  -0.53477162  -2.41744639
O    2.76129110   0.44334750   1.08689243
H    2.43133331   0.85862068   1.89750905
C    2.64202104  -0.96154559   1.24368481
H    3.01800657  -1.41357635   0.32184520
H    1.59914781  -1.28688708   1.38277355
H    3.24147852  -1.34820115   2.08268752
O   -1.91275261   2.02783923  -2.23851424
H   -1.31551788   2.51514758  -1.65177365
C   -2.03439545   2.76977423  -3.44153928
H   -2.71034653   2.20678521  -4.09086100
H   -1.07416087   2.88689237  -3.96785687
H   -2.46771025   3.76964110  -3.28253656
O   -0.03811682  -2.67387565  -0.38105542
H    0.02398147  -2.73163689  -1.34605838
C    0.06128817  -3.99108082   0.13626745
H   -0.01052036  -3.90761269   1.22409180
H    1.02179946  -4.47194725  -0.10655526
H   -0.75291547  -4.64662524  -0.21030328
O   -0.08949952  -2.63968101  -3.19200218
H   -0.80201540  -1.98430118  -3.22695470
C    0.47829540  -2.72777448  -4.48906896
H    1.27896718  -3.47015228  -4.43175320
H    0.91849553  -1.77624084  -4.82609257
H   -0.24531136  -3.06401434  -5.24809027
O   -2.07214642  -0.68237593  -2.96316655
H   -2.06044281   0.25794888  -2.73062506
C   -3.02627343  -1.32015081  -2.12924891
H   -3.02656163  -2.37833601  -2.40443829
H   -4.04578312  -0.92959408  -2.27361909
H   -2.77378437  -1.24557256  -1.05991982
O    0.10108720   3.23217586  -0.68734153
H    0.82968983   2.68129660  -1.00997680
C    0.50929637   3.80836568   0.54306667
H   -0.32291530   4.42553440   0.89236843
H    1.39352727   4.45612418   0.43666182
H    0.72250265   3.05355274   1.31609826
O    1.56817540   1.49029326   3.41854522
H    0.88086618   0.90268918   3.76603733
C    2.44678362   1.80417956   4.48721578
H    3.21462486   2.46658656   4.07841021
H    2.94792701   0.91505586   4.90084809
H    1.94252587   2.33349923   5.31081893
