60
Energy:   -336.57603005
O    2.82228093   2.16097479   1.30304096
H    2.92251169   1.55715286   0.55219068
C    3.75083275   3.21961420   1.13097149
H    3.62447128   3.89028178   1.98520974
H    3.56956201   3.79912565   0.21223065
H    4.79561206   2.87157729   1.12181542
O    0.00574782  -1.66852532   2.25071929
H    0.33921143  -0.80884456   2.54766084
C    0.25330906  -2.60696293   3.28540865
H   -0.12840078  -3.56955793   2.93441910
H   -0.26751600  -2.35426857   4.22224597
H    1.32600931  -2.72465679   3.50504391
O    2.87249371   0.33685155  -0.82842121
H    2.39384851   0.29145151  -1.66940925
C    2.66643154  -0.89136264  -0.14903763
H    3.21229567  -0.82313082   0.79587610
H    3.05687205  -1.75673985  -0.70711990
H    1.60577016  -1.07674975   0.08206062
O   -3.48951831   1.22686104  -0.88232246
H   -2.59175132   1.32200525  -1.23358487
C   -4.22573659   2.37745219  -1.26527991
H   -5.23429647   2.25383874  -0.86153261
H   -4.30649582   2.48633210  -2.35816620
H   -3.80487408   3.30809996  -0.85351929
O   -3.14478323   1.38881965   1.92981456
H   -3.34329902   1.34135734   0.98283933
C   -3.19618444   0.06883760   2.44705636
H   -2.97025368   0.14065863   3.51442801
H   -2.45194158  -0.59833677   1.98471637
H   -4.19057762  -0.39186726   2.33884094
O   -0.70862847  -2.67892643  -0.26752871
H   -0.49423600  -2.38702734   0.63094447
C   -1.89143044  -2.00580498  -0.66805433
H   -2.11857084  -2.34615075  -1.68198589
H   -1.76981310  -0.91159785  -0.69446104
H   -2.75429732  -2.24414155  -0.02662330
O    1.04460581   0.81383900   3.01190338
H    1.68453593   1.34919070   2.51965215
C    0.02631745   1.68323928   3.48069519
H   -0.68586694   1.06400609   4.03280826
H   -0.51708447   2.18170367   2.66275575
H    0.40906580   2.45624776   4.16534030
O    0.78911724  -2.73276443  -2.63045039
H    0.24291025  -2.79074378  -1.83250328
C    1.33355028  -4.01996420  -2.87384961
H    1.94585033  -3.93665712  -3.77586612
H    0.55931855  -4.78166075  -3.05595098
H    1.97968933  -4.37039999  -2.05380301
O   -0.79426998   1.48129963  -1.64812814
H   -0.11382988   1.02164968  -2.16207995
C   -0.24097552   1.78760222  -0.37825502
H   -1.02051855   2.30493900   0.18757227
H    0.63248603   2.45500023  -0.44475423
H    0.05099578   0.88838149   0.18648578
O    1.16499089  -0.01002353  -3.08262287
H    1.04894612  -0.97113238  -3.04759905
C    1.09328219   0.38286294  -4.44388400
H    1.22591993   1.46796333  -4.46508761
H    0.12018139   0.14884738  -4.90332810
H    1.88612719  -0.07006624  -5.05953756
