60
Energy:   -337.26870726
O    1.26065014   3.29361781  -1.17642894
H    1.36049090   2.33094485  -1.13500598
C    2.51482133   3.84070325  -1.55097659
H    2.38446905   4.92547882  -1.59287457
H    2.84887474   3.49844248  -2.54296611
H    3.30982056   3.62032273  -0.82146581
O   -2.61896377   0.32080877  -1.24823156
H   -2.51403032   0.87582869  -0.46123402
C   -3.15266514  -0.92477604  -0.82845175
H   -3.26445362  -1.53752885  -1.72707432
H   -4.14312067  -0.82591957  -0.35728027
H   -2.48808040  -1.45897150  -0.13150149
O    0.01094590  -2.68141129  -2.53054980
H   -0.22474413  -1.81752902  -2.90011836
C    1.39196650  -2.89267641  -2.77688883
H    1.64057183  -3.86993877  -2.35423190
H    2.03077547  -2.13829680  -2.29149020
H    1.63397115  -2.91372396  -3.85102480
O   -0.62058808   0.01208081  -3.14449521
H   -1.39613269   0.13553824  -2.57729851
C   -0.46374697   1.18874277  -3.92128430
H    0.41403072   1.03265091  -4.55423521
H   -0.28570327   2.08422114  -3.30549516
H   -1.32694140   1.38377550  -4.57674974
O   -0.67235689  -3.41353590   0.08886595
H   -0.44275450  -3.21303227  -0.83064714
C   -1.07487918  -4.77269311   0.14544567
H   -1.32989985  -4.98167451   1.18793137
H   -0.27419750  -5.46620805  -0.15575724
H   -1.96355931  -4.97903183  -0.47136005
O   -0.31462358  -2.09145160   2.54414076
H   -0.45100328  -2.59018274   1.72493927
C   -1.48306828  -1.32203186   2.77922380
H   -1.31242702  -0.76665988   3.70546822
H   -2.38168770  -1.94403956   2.91474829
H   -1.68179899  -0.59457245   1.97667396
O    1.48563866   0.47455201  -1.27428555
H    0.83101022   0.23564234  -1.94719494
C    1.04592353  -0.06142724  -0.03658178
H    1.79463493   0.21693091   0.71003270
H    0.97080700  -1.16002143  -0.05160311
H    0.07544097   0.34887454   0.28372022
O    1.61440460  -0.29757829   3.51118897
H    0.98192679  -0.98624260   3.25793699
C    2.90159363  -0.89201391   3.55940153
H    3.60166174  -0.10257977   3.84607834
H    3.22096688  -1.29430059   2.58526422
H    2.97031609  -1.69738665   4.30735160
O    0.16543975   1.98232604   2.70797775
H    0.68845335   1.26345504   3.09282126
C    1.06737435   2.99317102   2.28697872
H    0.46169669   3.79502105   1.85607700
H    1.76884020   2.64213903   1.51399778
H    1.65101613   3.41599807   3.11965926
O   -2.07035851   1.94542062   0.98667311
H   -1.34025903   1.99346959   1.62155051
C   -2.16660817   3.20703694   0.34511717
H   -2.99364994   3.13534494  -0.36646373
H   -1.25577628   3.46964880  -0.21541614
H   -2.39045535   4.02524868   1.04739869
