
                                 *****************
                                 * O   R   C   A *
                                 *****************

           --- An Ab Initio, DFT and Semiempirical electronic structure package ---

                  #######################################################
                  #                        -***-                        #
                  #  Department of molecular theory and spectroscopy    #
                  #              Directorship: Frank Neese              #
                  # Max Planck Institute for Chemical Energy Conversion #
                  #                  D-45470 Muelheim/Ruhr              #
                  #                       Germany                       #
                  #                                                     #
                  #                  All rights reserved                #
                  #                        -***-                        #
                  #######################################################


                         Program Version 3.0.3 - RELEASE   -


 With contributions from (in alphabetic order):
   Ute Becker             : Parallelization
   Dmytro Bykov           : SCF Hessian
   Dmitry Ganyushin       : Spin-Orbit,Spin-Spin,Magnetic field MRCI
   Andreas Hansen         : Spin unrestricted coupled pair/coupled cluster methods
   Dimitrios Liakos       : Extrapolation schemes; parallel MDCI
   Robert Izsak           : Overlap fitted RIJCOSX, COSX-SCS-MP3
   Christian Kollmar      : KDIIS, OOCD, Brueckner-CCSD(T), CCSD density
   Simone Kossmann        : Meta GGA functionals, TD-DFT gradient, OOMP2, MP2 Hessian
   Taras Petrenko         : DFT Hessian,TD-DFT gradient, ASA and ECA modules, normal mode analysis, Resonance Raman, ABS, FL, XAS/XES, NRVS
   Christoph Reimann      : Effective Core Potentials
   Michael Roemelt        : Restricted open shell CIS
   Christoph Riplinger    : Improved optimizer, TS searches, QM/MM, DLPNO-CCSD
   Barbara Sandhoefer     : DKH picture change effects
   Igor Schapiro          : Molecular dynamics
   Kantharuban Sivalingam : CASSCF convergence, NEVPT2
   Boris Wezisla          : Elementary symmetry handling
   Frank Wennmohs         : Technical directorship


 We gratefully acknowledge several colleagues who have allowed us to
 interface, adapt or use parts of their codes:
   Stefan Grimme, W. Hujo, H. Kruse, T. Risthaus : VdW corrections, initial TS optimization,
                                                   DFT functionals, gCP
   Ed Valeev                                     : LibInt (2-el integral package), F12 methods
   Garnet Chan, S. Sharma, R. Olivares           : DMRG
   Ulf Ekstrom                                   : XCFun DFT Library
   Mihaly Kallay                                 : mrcc  (arbitrary order and MRCC methods)
   Andreas Klamt, Michael Diedenhofen            : otool_cosmo (COSMO solvation model)
   Frank Weinhold                                : gennbo (NPA and NBO analysis)
   Christopher J. Cramer and Donald G. Truhlar   : smd solvation model


 Your calculation uses the libint2 library for the computation of 2-el integrals
 For citations please refer to: http://libint.valeyev.net

 This ORCA versions uses:
   CBLAS   interface :  Fast vector & matrix operations
   LAPACKE interface :  Fast linear algebra routines
   SCALAPACK package :  Parallel linear algebra routines


Your calculation utilizes the basis: Ahlrichs-TZV
Cite in your paper:
H - Kr: A. Schaefer, H. Horn and R. Ahlrichs, J. Chem. Phys. 97, 2571 (1992).

The def2-TZV basis will be loaded
Cite in your paper:
 	F. Weigend, R. Ahlrichs, Phys. Chem. Chem. Phys. 2005, 7, 3297.

Your calculation utilizes the atom-pairwise dispersion correction
with the zero-damping scheme (D30)
Cite in your paper:
S.Grimme, J.Antony, S.Ehrlich and H.Krieg, J.Chem.Phys., 132, (2010), 154104 
   

XCFun DFT library Copyright 2009-2010 Ulf Ekstrom and contributors.
See http://admol.org/xcfun for more information. This is free soft-
ware; see the source code for copying conditions. There is ABSOLUTELY
NO WARRANTY; not even for MERCHANTABILITY or FITNESS FOR A PARTICULAR
PURPOSE. For details see the documentation. Scientific users of this 
library should cite U. Ekstrom, L. Visscher, R. Bast, A. J. Thorvald-
sen and K. Ruud; J.Chem.Theor.Comp. 2010, DOI: 10.1021/ct100117s
XCFun Version 0.99 
================================================================================
                                        WARNINGS
                       Please study these warnings very carefully!
================================================================================
Now building the actual basis set


INFO   : the flag for use of LIBINT has been found!

================================================================================
                                       INPUT FILE
================================================================================
NAME = 1_wB97X_GasPhase_onBP86_8_waters.inp
|  1> ! wB97X-D3 Def2-TZVP def2-TZVP/J RIJCOSX TightSCF Grid4 
|  2> 
|  3> %pal nprocs 12 end
|  4> 
|  5> %scf
|  6>         maxiter 400
|  7> end
|  8> 
|  9> * xyz  0  1
| 10> O  -0.209608	2.285122	-0.370503
| 11> H  0.106562	1.759431	-1.160584
| 12> H  0.456319	2.032255	0.331890
| 13> O  0.222153	-2.230562	0.354191
| 14> H  1.075969	-1.696493	0.056429
| 15> H  0.506740	-3.155621	0.466550
| 16> O  -1.418812	-1.102467	-1.478223
| 17> H  -1.874780	-0.472971	-0.848067
| 18> H  -0.919583	-1.702411	-0.853486
| 19> O  1.373272	1.070446	1.454861
| 20> H  1.854469	1.450127	2.212041
| 21> H  0.609911	0.473217	1.859102
| 22> O  -0.541535	-0.427200	2.219434
| 23> H  -1.276250	-0.013026	1.682072
| 24> H  -0.316271	-1.238481	1.678743
| 25> O  -2.113687	0.752463	0.359076
| 26> H  -2.947653	1.243745	0.470721
| 27> H  -1.393373	1.454767	0.060570
| 28> O  2.168796	-0.754400	-0.372890
| 29> H  2.084532	-0.047828	0.330131
| 30> H  1.735260	-0.321266	-1.163246
| 31> O  0.521246	0.402432	-2.171659
| 32> H  0.590337	0.467773	-3.141470
| 33> H  -0.294014	-0.229051	-1.975684
| 34> **                         ****END OF INPUT****
================================================================================

                       ****************************
                       * Single Point Calculation *
                       ****************************

---------------------------------
CARTESIAN COORDINATES (ANGSTROEM)
---------------------------------
  O     -0.209608    2.285122   -0.370503
  H      0.106562    1.759431   -1.160584
  H      0.456319    2.032255    0.331890
  O      0.222153   -2.230562    0.354191
  H      1.075969   -1.696493    0.056429
  H      0.506740   -3.155621    0.466550
  O     -1.418812   -1.102467   -1.478223
  H     -1.874780   -0.472971   -0.848067
  H     -0.919583   -1.702411   -0.853486
  O      1.373272    1.070446    1.454861
  H      1.854469    1.450127    2.212041
  H      0.609911    0.473217    1.859102
  O     -0.541535   -0.427200    2.219434
  H     -1.276250   -0.013026    1.682072
  H     -0.316271   -1.238481    1.678743
  O     -2.113687    0.752463    0.359076
  H     -2.947653    1.243745    0.470721
  H     -1.393373    1.454767    0.060570
  O      2.168796   -0.754400   -0.372890
  H      2.084532   -0.047828    0.330131
  H      1.735260   -0.321266   -1.163246
  O      0.521246    0.402432   -2.171659
  H      0.590337    0.467773   -3.141470
  H     -0.294014   -0.229051   -1.975684

----------------------------
CARTESIAN COORDINATES (A.U.)
----------------------------
  NO LB      ZA    FRAG    MASS        X           Y           Z
   0 O     8.0000    0    15.999         -0.396101715478966          4.318254762598398         -0.700149201796226
   1 H     1.0000    0     1.008          0.201372996282916          3.324842741531202         -2.193185915410862
   2 H     1.0000    0     1.008          0.862317939704812          3.840405384292134          0.627181206587124
   3 O     8.0000    0    15.999          0.419808329829008         -4.215151304731655          0.669323989099702
   4 H     1.0000    0     1.008          2.033286738589115         -3.205907158114466          0.106635356011042
   5 H     1.0000    0     1.008          0.957599821103255         -5.963259472450714          0.881651727780960
   6 O     8.0000    0    15.999         -2.681166115521079         -2.083360701685761         -2.793436634863474
   7 H     1.0000    0     1.008         -3.542820761352884         -0.893785659286868         -1.602614373216194
   8 H     1.0000    0     1.008         -1.737760027409706         -3.217090557375012         -1.612854799135913
   9 O     8.0000    0    15.999          2.595107987382305          2.022849781151468          2.749288852922806
  10 H     1.0000    0     1.008          3.504438533846809          2.740342889404823          4.180151687005300
  11 H     1.0000    0     1.008          1.152564756066045          0.894250531915813          3.513193635025267
  12 O     8.0000    0    15.999         -1.023352841933045         -0.807291004411159          4.194122432313380
  13 H     1.0000    0     1.008         -2.411762978416998         -0.024615572620458          3.178655417537187
  14 H     1.0000    0     1.008         -0.597665574101408         -2.340389912064925          3.172364519237364
  15 O     8.0000    0    15.999         -3.994289562829609          1.421948995908787          0.678555301263907
  16 H     1.0000    0     1.008         -5.570256907831379          2.350337430433887          0.889533775485545
  17 H     1.0000    0     1.008         -2.633093372400256          2.749111218666217          0.114460711931610
  18 O     8.0000    0    15.999          4.098430480343874         -1.425609395430192         -0.704659978077895
  19 H     1.0000    0     1.008          3.939194597395134         -0.090381821533186          0.623857178317557
  20 H     1.0000    0     1.008          3.279166171148191         -0.607104756140345         -2.198216366379360
  21 O     8.0000    0    15.999          0.985012188401917          0.760486267526197         -4.103840766265291
  22 H     1.0000    0     1.008          1.115575256720670          0.883962862842746         -5.936517957929595
  23 H     1.0000    0     1.008         -0.555605939538723         -0.432843660700797         -3.733501687170074

--------------------------------
INTERNAL COORDINATES (ANGSTROEM)
--------------------------------
 O      0   0   0   0.000000     0.000     0.000
 H      1   0   0   1.000271     0.000     0.000
 H      1   2   0   1.000378   102.201     0.000
 O      3   1   2   4.269302   102.682   305.201
 H      4   3   1   1.050187    56.369   114.370
 H      4   3   1   0.974345   158.837   151.882
 O      4   3   1   2.706124    67.262     1.123
 H      7   4   3   1.000634    96.439   307.390
 H      7   4   3   0.999729    12.546   189.169
 O      3   1   2   1.739811   160.694   297.010
 H     10   3   1   0.974182   123.131   199.975
 H     10   3   1   1.050149   100.355   317.426
 O     12  10   3   1.505463   171.208    50.515
 H     13  12  10   1.000052   100.696   307.654
 H     13  12  10   1.000634   100.568    52.339
 O      8   7   4   1.736652   160.794    52.501
 H     16   8   7   0.974332   123.586   159.680
 H     16   8   7   1.049376   100.375    41.870
 O      5   4   3   1.505365   171.623   347.118
 H     19   5   4   1.000291   100.397    52.573
 H     19   5   4   1.000111   100.470   307.852
 O     21  19   5   1.736222   160.497    39.753
 H     22  21  19   0.974462   123.808   200.217
 H     22  21  19   1.049679   100.596   318.224

---------------------------
INTERNAL COORDINATES (A.U.)
---------------------------
 O      0   0   0   0.000000     0.000     0.000
 H      1   0   0   1.890239     0.000     0.000
 H      1   2   0   1.890441   102.201     0.000
 O      3   1   2   8.067812   102.682   305.201
 H      4   3   1   1.984567    56.369   114.370
 H      4   3   1   1.841245   158.837   151.882
 O      4   3   1   5.113833    67.262     1.123
 H      7   4   3   1.890924    96.439   307.390
 H      7   4   3   1.889215    12.546   189.169
 O      3   1   2   3.287767   160.694   297.010
 H     10   3   1   1.840936   123.131   199.975
 H     10   3   1   1.984494   100.355   317.426
 O     12  10   3   2.844912   171.208    50.515
 H     13  12  10   1.889825   100.696   307.654
 H     13  12  10   1.890923   100.568    52.339
 O      8   7   4   3.281796   160.794    52.501
 H     16   8   7   1.841220   123.586   159.680
 H     16   8   7   1.983032   100.375    41.870
 O      5   4   3   2.844728   171.623   347.118
 H     19   5   4   1.890277   100.397    52.573
 H     19   5   4   1.889935   100.470   307.852
 O     21  19   5   3.280983   160.497    39.753
 H     22  21  19   1.841467   123.808   200.217
 H     22  21  19   1.983606   100.596   318.224

---------------------
BASIS SET INFORMATION
---------------------
There are 2 groups of distinct atoms

 Group   1 Type O   : 11s6p2d1f contracted to 5s3p2d1f pattern {62111/411/11/1}
 Group   2 Type H   : 5s1p contracted to 3s1p pattern {311/1}

Atom   0O    basis set group =>   1
Atom   1H    basis set group =>   2
Atom   2H    basis set group =>   2
Atom   3O    basis set group =>   1
Atom   4H    basis set group =>   2
Atom   5H    basis set group =>   2
Atom   6O    basis set group =>   1
Atom   7H    basis set group =>   2
Atom   8H    basis set group =>   2
Atom   9O    basis set group =>   1
Atom  10H    basis set group =>   2
Atom  11H    basis set group =>   2
Atom  12O    basis set group =>   1
Atom  13H    basis set group =>   2
Atom  14H    basis set group =>   2
Atom  15O    basis set group =>   1
Atom  16H    basis set group =>   2
Atom  17H    basis set group =>   2
Atom  18O    basis set group =>   1
Atom  19H    basis set group =>   2
Atom  20H    basis set group =>   2
Atom  21O    basis set group =>   1
Atom  22H    basis set group =>   2
Atom  23H    basis set group =>   2
-------------------------------
AUXILIARY BASIS SET INFORMATION
-------------------------------
There are 2 groups of distinct atoms

 Group   1 Type O   : 12s5p4d2f1g contracted to 6s4p3d1f1g pattern {711111/2111/211/2/1}
 Group   2 Type H   : 5s2p1d contracted to 3s1p1d pattern {311/2/1}

Atom   0O    basis set group =>   1
Atom   1H    basis set group =>   2
Atom   2H    basis set group =>   2
Atom   3O    basis set group =>   1
Atom   4H    basis set group =>   2
Atom   5H    basis set group =>   2
Atom   6O    basis set group =>   1
Atom   7H    basis set group =>   2
Atom   8H    basis set group =>   2
Atom   9O    basis set group =>   1
Atom  10H    basis set group =>   2
Atom  11H    basis set group =>   2
Atom  12O    basis set group =>   1
Atom  13H    basis set group =>   2
Atom  14H    basis set group =>   2
Atom  15O    basis set group =>   1
Atom  16H    basis set group =>   2
Atom  17H    basis set group =>   2
Atom  18O    basis set group =>   1
Atom  19H    basis set group =>   2
Atom  20H    basis set group =>   2
Atom  21O    basis set group =>   1
Atom  22H    basis set group =>   2
Atom  23H    basis set group =>   2
smp-n75.crc.pitt.edu.431348hfi_wait_for_device: The /dev/hfi1_0 device failed to appear after 15.0 seconds: Connection timed out
smp-n75.crc.pitt.edu.431351hfi_wait_for_device: The /dev/hfi1_0 device failed to appear after 15.0 seconds: Connection timed out
smp-n75.crc.pitt.edu.431353hfi_wait_for_device: The /dev/hfi1_0 device failed to appear after 15.0 seconds: Connection timed out
smp-n75.crc.pitt.edu.431366hfi_wait_for_device: The /dev/hfi1_0 device failed to appear after 15.0 seconds: Connection timed out
smp-n75.crc.pitt.edu.431363hfi_wait_for_device: The /dev/hfi1_0 device failed to appear after 15.0 seconds: Connection timed out
smp-n75.crc.pitt.edu.431354hfi_wait_for_device: The /dev/hfi1_0 device failed to appear after 15.0 seconds: Connection timed out
smp-n75.crc.pitt.edu.431350hfi_wait_for_device: The /dev/hfi1_0 device failed to appear after 15.0 seconds: Connection timed out
smp-n75.crc.pitt.edu.431357hfi_wait_for_device: The /dev/hfi1_0 device failed to appear after 15.0 seconds: Connection timed out
smp-n75.crc.pitt.edu.431359hfi_wait_for_device: The /dev/hfi1_0 device failed to appear after 15.0 seconds: Connection timed out
smp-n75.crc.pitt.edu.431361hfi_wait_for_device: The /dev/hfi1_0 device failed to appear after 15.0 seconds: Connection timed out
smp-n75.crc.pitt.edu.431365hfi_wait_for_device: The /dev/hfi1_0 device failed to appear after 15.0 seconds: Connection timed out
smp-n75.crc.pitt.edu.431356hfi_wait_for_device: The /dev/hfi1_0 device failed to appear after 15.0 seconds: Connection timed out


           ************************************************************
           *        Program running with 12 parallel MPI-processes    *
           *              working on a common directory               *
           ************************************************************
------------------------------------------------------------------------------
                           ORCA GTO INTEGRAL CALCULATION
                           -- RI-GTO INTEGRALS CHOSEN --
------------------------------------------------------------------------------

                         BASIS SET STATISTICS AND STARTUP INFO

Gaussian basis set:
 # of primitive gaussian shells          ...  256
 # of primitive gaussian functions       ...  496
 # of contracted shells                  ...  152
 # of contracted basis functions         ...  344
 Highest angular momentum                ...    3
 Maximum contraction depth               ...    6
Auxiliary gaussian basis set:
 # of primitive gaussian shells          ...  320
 # of primitive gaussian functions       ...  816
 # of contracted shells                  ...  200
 # of contracted aux-basis functions     ...  568
 Highest angular momentum                ...    4
 Maximum contraction depth               ...    7
Ratio of auxiliary to basis functions    ...  1.65
Integral package used                  ... LIBINT
 One Electron integrals                  ... done
 Ordering auxiliary basis shells         ... done
 Integral threshhold             Thresh  ...  2.500e-11
 Primitive cut-off               TCut    ...  2.500e-12
 Pre-screening matrix                    ... done
 Shell pair data                         ... 
 Ordering of the shell pairs             ... done (   0.001 sec) 10042 of 11628 pairs
 Determination of significant pairs      ... done (   0.000 sec)
 Creation of shell pair data             ... done (   0.001 sec)
 Storage of shell pair data              ... done (   0.002 sec)
 Shell pair data done in (   0.004 sec)
 Computing two index integrals           ... done
 Cholesky decomposition of the V-matrix  ... done


Timings:
 Total evaluation time                   ...   0.220 sec (  0.004 min)
 One electron matrix time                ...   0.047 sec (  0.001 min) = 21.3%
 Schwartz matrix evaluation time         ...   0.141 sec (  0.002 min) = 64.2%
 Two index repulsion integral time       ...   0.007 sec (  0.000 min) =  3.1%
 Cholesky decomposition of V             ...   0.006 sec (  0.000 min) =  2.9%
 Three index repulsion integral time     ...   0.000 sec (  0.000 min) =  0.0%

           ************************************************************
           *              Shut down parallel processing               *
           ************************************************************
smp-n75.crc.pitt.edu.431412hfi_wait_for_device: The /dev/hfi1_0 device failed to appear after 15.0 seconds: Connection timed out
smp-n75.crc.pitt.edu.431398hfi_wait_for_device: The /dev/hfi1_0 device failed to appear after 15.0 seconds: Connection timed out
smp-n75.crc.pitt.edu.431399hfi_wait_for_device: The /dev/hfi1_0 device failed to appear after 15.0 seconds: Connection timed out
smp-n75.crc.pitt.edu.431400hfi_wait_for_device: The /dev/hfi1_0 device failed to appear after 15.0 seconds: Connection timed out
smp-n75.crc.pitt.edu.431401hfi_wait_for_device: The /dev/hfi1_0 device failed to appear after 15.0 seconds: Connection timed out
smp-n75.crc.pitt.edu.431402hfi_wait_for_device: The /dev/hfi1_0 device failed to appear after 15.0 seconds: Connection timed out
smp-n75.crc.pitt.edu.431408hfi_wait_for_device: The /dev/hfi1_0 device failed to appear after 15.0 seconds: Connection timed out
smp-n75.crc.pitt.edu.431403hfi_wait_for_device: The /dev/hfi1_0 device failed to appear after 15.0 seconds: Connection timed out
smp-n75.crc.pitt.edu.431406hfi_wait_for_device: The /dev/hfi1_0 device failed to appear after 15.0 seconds: Connection timed out
smp-n75.crc.pitt.edu.431414hfi_wait_for_device: The /dev/hfi1_0 device failed to appear after 15.0 seconds: Connection timed out
smp-n75.crc.pitt.edu.431416hfi_wait_for_device: The /dev/hfi1_0 device failed to appear after 15.0 seconds: Connection timed out
smp-n75.crc.pitt.edu.431418hfi_wait_for_device: The /dev/hfi1_0 device failed to appear after 15.0 seconds: Connection timed out


           ************************************************************
           *        Program running with 12 parallel MPI-processes    *
           *              working on a common directory               *
           ************************************************************
-------------------------------------------------------------------------------
                                 ORCA SCF
-------------------------------------------------------------------------------

------------
SCF SETTINGS
------------
Hamiltonian:
 Density Functional     Method          .... DFT(GTOs)
 Exchange Functional    Exchange        .... WB97X-D3
 Correlation Functional Correlation     .... WB97X-D3
 Gradients option       PostSCFGGA      .... off
 Hybrid DFT is turned on
   Fraction HF Exchange ScalHFX         ....  0.195728
   Scaling of DF-GGA-X  ScalDFX         ....  0.000000
   Scaling of DF-GGA-C  ScalDFC         ....  1.000000
   Scaling of DF-LDA-C  ScalLDAC        ....  1.000000
   Perturbative correction              ....  0.000000
 Long-range corrected/Screened/Range-Separated Hybrid DFT is turned on
   Amount of maximum screened exact exchange              ....  0.804272
   Range separation parameter mu (erf(mu*r12)/r12)        ....  0.250000
 RI-approximation to the Coulomb term is turned on
   Number of auxiliary basis functions  .... 568
   RIJ-COSX (HFX calculated with COS-X)).... on


General Settings:
 Integral files         IntName         .... 1_wB97X_GasPhase_onBP86_8_waters
 Hartree-Fock type      HFTyp           .... RHF
 Total Charge           Charge          ....    0
 Multiplicity           Mult            ....    1
 Number of Electrons    NEL             ....   80
 Basis Dimension        Dim             ....  344
 Nuclear Repulsion      ENuc            ....    530.3531208654 Eh

Convergence Acceleration:
 DIIS                   CNVDIIS         .... on
   Start iteration      DIISMaxIt       ....    12
   Startup error        DIISStart       ....  0.200000
   # of expansion vecs  DIISMaxEq       ....     5
   Bias factor          DIISBfac        ....   1.050
   Max. coefficient     DIISMaxC        ....  10.000
 Newton-Raphson         CNVNR           .... off
 SOSCF                  CNVSOSCF        .... on
   Start iteration      SOSCFMaxIt      ....   150
   Startup grad/error   SOSCFStart      ....  0.003300
 Level Shifting         CNVShift        .... on
   Level shift para.    LevelShift      ....    0.2500
   Turn off err/grad.   ShiftErr        ....    0.0010
 Zerner damping         CNVZerner       .... off
 Static damping         CNVDamp         .... on
   Fraction old density DampFac         ....    0.7000
   Max. Damping (<1)    DampMax         ....    0.9800
   Min. Damping (>=0)   DampMin         ....    0.0000
   Turn off err/grad.   DampErr         ....    0.1000
 Fernandez-Rico         CNVRico         .... off

SCF Procedure:
 Maximum # iterations   MaxIter         ....   400
 SCF integral mode      SCFMode         .... Direct
   Integral package                     .... LIBINT
 Reset frequeny         DirectResetFreq ....    20
 Integral Threshold     Thresh          ....  2.500e-11 Eh
 Primitive CutOff       TCut            ....  2.500e-12 Eh

Convergence Tolerance:
 Convergence Check Mode ConvCheckMode   .... Total+1el-Energy
 Energy Change          TolE            ....  1.000e-08 Eh
 1-El. energy change                    ....  1.000e-05 Eh
 Orbital Gradient       TolG            ....  1.000e-05
 Orbital Rotation angle TolX            ....  1.000e-05
 DIIS Error             TolErr          ....  5.000e-07


Diagonalization of the overlap matrix:
Smallest eigenvalue                        ... 2.949e-03
Time for diagonalization                   ...    0.025 sec
Threshold for overlap eigenvalues          ... 1.000e-08
Number of eigenvalues below threshold      ... 0
Time for construction of square roots      ...    0.009 sec
Total time needed                          ...    0.034 sec

-------------------
DFT GRID GENERATION
-------------------

General Integration Accuracy     IntAcc      ...  4.670
Radial Grid Type                 RadialGrid  ... Gauss-Chebyshev
Angular Grid (max. acc.)         AngularGrid ... Lebedev-302
Angular grid pruning method      GridPruning ... 3 (G Style)
Weight generation scheme         WeightScheme... Becke
Basis function cutoff            BFCut       ...    1.0000e-11
Integration weight cutoff        WCut        ...    1.0000e-14
Grids for H and He will be reduced by one unit

# of grid points (after initial pruning)     ... 104000 (   0.0 sec)
# of grid points (after weights+screening)   ...  93442 (   0.1 sec)
nearest neighbour list constructed           ...    0.0 sec
Grid point re-assignment to atoms done       ...    0.0 sec
Grid point division into batches done        ...    0.2 sec
Reduced shell lists constructed in    0.3 sec

Total number of grid points                  ...    93442
Total number of batches                      ...     1472
Average number of points per batch           ...       63
Average number of grid points per atom       ...     3893
Average number of shells per batch           ...    80.97 (53.27%)
Average number of basis functions per batch  ...   165.98 (48.25%)
Average number of large shells per batch     ...    57.23 (70.68%)
Average number of large basis fcns per batch ...   110.37 (66.49%)
Maximum spatial batch extension              ...  17.67, 10.51, 13.13 au
Average spatial batch extension              ...   0.18,  0.16,  0.17 au

Time for grid setup =    0.390 sec

------------------------------
INITIAL GUESS: MODEL POTENTIAL
------------------------------
Loading Hartree-Fock densities                     ... done
Calculating cut-offs                               ... done
Setting up the integral package                    ... done
Initializing the effective Hamiltonian             ... done
Starting the Coulomb interaction                   ... done (   0.0 sec)
Reading the grid                                   ... done
Mapping shells                                     ... done
Starting the XC term evaluation                    ... done (   0.2 sec)
  promolecular density results
     # of electrons  =     79.991010668
     EX              =    -69.942998855
     EC              =     -2.633483495
     EX+EC           =    -72.576482350
Transforming the Hamiltonian                       ... done (   0.0 sec)
Diagonalizing the Hamiltonian                      ... done (   0.0 sec)
Back transforming the eigenvectors                 ... done (   0.0 sec)
Now organizing SCF variables                       ... done
                      ------------------
                      INITIAL GUESS DONE (   0.7 sec)
                      ------------------
--------------------
COSX GRID GENERATION
--------------------

General Integration Accuracy     IntAcc      ...  3.340
Radial Grid Type                 RadialGrid  ... Gauss-Chebyshev
Angular Grid (max. acc.)         AngularGrid ... Lebedev-50
Angular grid pruning method      GridPruning ... 3 (G Style)
Weight generation scheme         WeightScheme... Becke
Basis function cutoff            BFCut       ...    1.0000e-11
Integration weight cutoff        WCut        ...    1.0000e-14
Grids for H and He will be reduced by one unit

# of grid points (after initial pruning)     ...   9760 (   0.0 sec)
# of grid points (after weights+screening)   ...   8892 (   0.0 sec)
nearest neighbour list constructed           ...    0.0 sec
Grid point re-assignment to atoms done       ...    0.0 sec
Grid point division into batches done        ...    0.0 sec
Reduced shell lists constructed in    0.0 sec

Total number of grid points                  ...     8892
Total number of batches                      ...      149
Average number of points per batch           ...       59
Average number of grid points per atom       ...      370
Average number of shells per batch           ...    91.36 (60.10%)
Average number of basis functions per batch  ...   194.50 (56.54%)
Average number of large shells per batch     ...    63.86 (69.90%)
Average number of large basis fcns per batch ...   124.57 (64.05%)
Maximum spatial batch extension              ...  15.64, 12.82, 11.41 au
Average spatial batch extension              ...   0.46,  0.38,  0.37 au

Overlap Fitting                  UseSFitting ... on
Constructing numerical overlap ... done (      0.0 sec)
Inverting numerical overlap    ... done (      0.0 sec)
Obtaining analytic overlap     ... done (      0.0 sec)
Final contraction and storage  ... done (      0.0 sec)


General Integration Accuracy     IntAcc      ...  3.670
Radial Grid Type                 RadialGrid  ... Gauss-Chebyshev
Angular Grid (max. acc.)         AngularGrid ... Lebedev-50
Angular grid pruning method      GridPruning ... 3 (G Style)
Weight generation scheme         WeightScheme... Becke
Basis function cutoff            BFCut       ...    1.0000e-11
Integration weight cutoff        WCut        ...    1.0000e-14
Grids for H and He will be reduced by one unit

# of grid points (after initial pruning)     ...  12816 (   0.0 sec)
# of grid points (after weights+screening)   ...  11652 (   0.0 sec)
nearest neighbour list constructed           ...    0.0 sec
Grid point re-assignment to atoms done       ...    0.0 sec
Grid point division into batches done        ...    0.0 sec
Reduced shell lists constructed in    0.0 sec

Total number of grid points                  ...    11652
Total number of batches                      ...      196
Average number of points per batch           ...       59
Average number of grid points per atom       ...      486
Average number of shells per batch           ...    91.17 (59.98%)
Average number of basis functions per batch  ...   194.72 (56.61%)
Average number of large shells per batch     ...    64.44 (70.69%)
Average number of large basis fcns per batch ...   126.89 (65.16%)
Maximum spatial batch extension              ...  17.64, 13.23, 12.50 au
Average spatial batch extension              ...   0.40,  0.34,  0.31 au

Overlap Fitting                  UseSFitting ... on
Constructing numerical overlap ... done (      0.0 sec)
Inverting numerical overlap    ... done (      0.0 sec)
Obtaining analytic overlap     ... done (      0.0 sec)
Final contraction and storage  ... done (      0.0 sec)


General Integration Accuracy     IntAcc      ...  4.010
Radial Grid Type                 RadialGrid  ... Gauss-Chebyshev
Angular Grid (max. acc.)         AngularGrid ... Lebedev-110
Angular grid pruning method      GridPruning ... 3 (G Style)
Weight generation scheme         WeightScheme... Becke
Basis function cutoff            BFCut       ...    1.0000e-11
Integration weight cutoff        WCut        ...    1.0000e-14
Grids for H and He will be reduced by one unit

# of grid points (after initial pruning)     ...  22064 (   0.0 sec)
# of grid points (after weights+screening)   ...  20183 (   0.0 sec)
nearest neighbour list constructed           ...    0.0 sec
Grid point re-assignment to atoms done       ...    0.0 sec
Grid point division into batches done        ...    0.0 sec
Reduced shell lists constructed in    0.0 sec

Total number of grid points                  ...    20183
Total number of batches                      ...      325
Average number of points per batch           ...       62
Average number of grid points per atom       ...      841
Average number of shells per batch           ...    88.34 (58.12%)
Average number of basis functions per batch  ...   186.14 (54.11%)
Average number of large shells per batch     ...    63.21 (71.55%)
Average number of large basis fcns per batch ...   122.93 (66.04%)
Maximum spatial batch extension              ...  17.30, 12.37, 13.76 au
Average spatial batch extension              ...   0.33,  0.29,  0.27 au

Overlap Fitting                  UseSFitting ... on
Constructing numerical overlap ... done (      0.0 sec)
Inverting numerical overlap    ... done (      0.0 sec)
Obtaining analytic overlap     ... done (      0.0 sec)
Final contraction and storage  ... done (      0.0 sec)

Time for X-Grid setup             =    0.209 sec
--------------
SCF ITERATIONS
--------------
ITER       Energy         Delta-E        Max-DP      RMS-DP      [F,P]     Damp
               ***  Starting incremental Fock matrix formation  ***
  0   -611.1103121819   0.000000000000 0.03836696  0.00096157  0.2726502 0.7000
  1   -611.3405842842  -0.230272102356 0.02541988  0.00064427  0.1391947 0.7000
                               ***Turning on DIIS***
  2   -611.4389328267  -0.098348542461 0.04085696  0.00104995  0.0573979 0.0000
  3   -611.5917108596  -0.152778032910 0.01643784  0.00041040  0.0680795 0.0000
  4   -611.6215275090  -0.029816649374 0.00290331  0.00007263  0.0090887 0.0000
                      *** Initiating the SOSCF procedure ***
                           *** Shutting down DIIS ***
                      *** Re-Reading the Fockian *** 
                      *** Removing any level shift *** 
ITER      Energy       Delta-E        Grad      Rot      Max-DP    RMS-DP
  5   -611.62211780  -0.0005902886  0.000451  0.000451  0.000644  0.000021
               *** Restarting incremental Fock matrix formation ***
  6   -611.62215291  -0.0000351156  0.000161  0.000260  0.000306  0.000012
  7   -611.62215479  -0.0000018785  0.000091  0.000083  0.000159  0.000005
  8   -611.62215540  -0.0000006076  0.000021  0.000028  0.000034  0.000001
  9   -611.62215545  -0.0000000483  0.000013  0.000012  0.000019  0.000000
 10   -611.62215546  -0.0000000144  0.000007  0.000004  0.000007  0.000000
                  ***Gradient check signals convergence***
              ***Rediagonalizing the Fockian in SOSCF/NRSCF***

               *****************************************************
               *                     SUCCESS                       *
               *           SCF CONVERGED AFTER  11 CYCLES          *
               *****************************************************

Setting up the final grid:

General Integration Accuracy     IntAcc      ...  5.010
Radial Grid Type                 RadialGrid  ... Gauss-Chebyshev
Angular Grid (max. acc.)         AngularGrid ... Lebedev-434
Angular grid pruning method      GridPruning ... 3 (G Style)
Weight generation scheme         WeightScheme... Becke
Basis function cutoff            BFCut       ...    1.0000e-11
Integration weight cutoff        WCut        ...    1.0000e-14
Grids for H and He will be reduced by one unit

# of grid points (after initial pruning)     ... 193808 (   0.0 sec)
# of grid points (after weights+screening)   ... 173726 (   0.1 sec)
nearest neighbour list constructed           ...    0.0 sec
Grid point re-assignment to atoms done       ...    0.0 sec
Grid point division into batches done        ...    0.8 sec
Reduced shell lists constructed in    1.0 sec

Total number of grid points                  ...   173726
Total number of batches                      ...     2726
Average number of points per batch           ...       63
Average number of grid points per atom       ...     7239
Average number of shells per batch           ...    78.95 (51.94%)
Average number of basis functions per batch  ...   160.49 (46.66%)
Average number of large shells per batch     ...    55.86 (70.75%)
Average number of large basis fcns per batch ...   107.68 (67.09%)
Maximum spatial batch extension              ...  11.91, 10.79, 12.26 au
Average spatial batch extension              ...   0.14,  0.13,  0.13 au

Final grid set up in    1.1 sec
Final integration                            ... done (   0.3 sec)
Change in XC energy                          ...    -0.000783994
Integrated number of electrons               ...    79.999958507
Previous integrated no of electrons          ...    79.999415066
Old exchange energy                            =    -22.629222693 Eh
New exchange energy                            =    -22.628589052 Eh
Exchange energy change after final integration =      0.000633642 Eh
Total energy after final integration           =   -611.622305801 Eh
Final COS-X integration done in                =     2.012 sec

----------------
TOTAL SCF ENERGY
----------------

Total Energy       :         -611.62230580 Eh          -16643.08906 eV

Components:
Nuclear Repulsion  :          530.35312087 Eh           14431.64211 eV
Electronic Energy  :        -1141.97542667 Eh          -31074.73117 eV

One Electron Energy:        -1898.38390966 Eh          -51657.65241 eV
Two Electron Energy:          756.40848299 Eh           20582.92124 eV

Virial components:
Potential Energy   :        -1220.53288798 Eh          -33212.38837 eV
Kinetic Energy     :          608.91058217 Eh           16569.29931 eV
Virial Ratio       :            2.00445340


DFT components:
N(Alpha)           :       39.999979253681 electrons
N(Beta)            :       39.999979253681 electrons
N(Total)           :       79.999958507363 electrons
E(XC)              :      -51.943037604067 Eh       

---------------
SCF CONVERGENCE
---------------

  Last Energy change         ...    1.3177e-08  Tolerance :   1.0000e-08
  Last MAX-Density change    ...    8.4377e-15  Tolerance :   1.0000e-07
  Last RMS-Density change    ...    4.1438e-16  Tolerance :   5.0000e-09
  Last Orbital Gradient      ...    4.3370e-07  Tolerance :   1.0000e-05
  Last Orbital Rotation      ...    7.0625e-07  Tolerance :   1.0000e-05

             **** THE GBW FILE WAS UPDATED (1_wB97X_GasPhase_onBP86_8_waters.gbw) ****
             **** DENSITY FILE WAS UPDATED (1_wB97X_GasPhase_onBP86_8_waters.scfp.tmp) ****
             **** ENERGY FILE WAS UPDATED (1_wB97X_GasPhase_onBP86_8_waters.en.tmp) ****
----------------
ORBITAL ENERGIES
----------------

  NO   OCC          E(Eh)            E(eV) 
   0   2.0000     -19.244328      -523.6648 
   1   2.0000     -19.244285      -523.6636 
   2   2.0000     -19.243968      -523.6550 
   3   2.0000     -19.243608      -523.6452 
   4   2.0000     -19.227939      -523.2188 
   5   2.0000     -19.227699      -523.2123 
   6   2.0000     -19.227697      -523.2122 
   7   2.0000     -19.227347      -523.2027 
   8   2.0000      -1.150984       -31.3199 
   9   2.0000      -1.134986       -30.8845 
  10   2.0000      -1.134844       -30.8807 
  11   2.0000      -1.126368       -30.6500 
  12   2.0000      -1.115272       -30.3481 
  13   2.0000      -1.106558       -30.1110 
  14   2.0000      -1.106349       -30.1053 
  15   2.0000      -1.091563       -29.7029 
  16   2.0000      -0.648928       -17.6582 
  17   2.0000      -0.648839       -17.6558 
  18   2.0000      -0.647310       -17.6142 
  19   2.0000      -0.640538       -17.4299 
  20   2.0000      -0.628195       -17.0941 
  21   2.0000      -0.617762       -16.8102 
  22   2.0000      -0.617704       -16.8086 
  23   2.0000      -0.616915       -16.7871 
  24   2.0000      -0.578830       -15.7508 
  25   2.0000      -0.534352       -14.5405 
  26   2.0000      -0.521988       -14.2040 
  27   2.0000      -0.521860       -14.2005 
  28   2.0000      -0.494088       -13.4448 
  29   2.0000      -0.493853       -13.4384 
  30   2.0000      -0.486326       -13.2336 
  31   2.0000      -0.450448       -12.2573 
  32   2.0000      -0.428443       -11.6585 
  33   2.0000      -0.427912       -11.6441 
  34   2.0000      -0.427853       -11.6425 
  35   2.0000      -0.423932       -11.5358 
  36   2.0000      -0.412576       -11.2268 
  37   2.0000      -0.410030       -11.1575 
  38   2.0000      -0.409934       -11.1549 
  39   2.0000      -0.409661       -11.1474 
  40   0.0000       0.086373         2.3503 
  41   0.0000       0.122783         3.3411 
  42   0.0000       0.122797         3.3415 
  43   0.0000       0.124201         3.3797 
  44   0.0000       0.201189         5.4746 
  45   0.0000       0.205783         5.5996 
  46   0.0000       0.217110         5.9079 
  47   0.0000       0.217344         5.9142 
  48   0.0000       0.277579         7.5533 
  49   0.0000       0.279356         7.6017 
  50   0.0000       0.279591         7.6080 
  51   0.0000       0.288515         7.8509 
  52   0.0000       0.306502         8.3403 
  53   0.0000       0.306840         8.3495 
  54   0.0000       0.315013         8.5719 
  55   0.0000       0.321708         8.7541 
  56   0.0000       0.321968         8.7612 
  57   0.0000       0.408907        11.1269 
  58   0.0000       0.409267        11.1367 
  59   0.0000       0.409623        11.1464 
  60   0.0000       0.413666        11.2564 
  61   0.0000       0.414923        11.2906 
  62   0.0000       0.431996        11.7552 
  63   0.0000       0.432119        11.7586 
  64   0.0000       0.432614        11.7720 
  65   0.0000       0.458947        12.4886 
  66   0.0000       0.459186        12.4951 
  67   0.0000       0.464265        12.6333 
  68   0.0000       0.470476        12.8023 
  69   0.0000       0.494481        13.4555 
  70   0.0000       0.494625        13.4594 
  71   0.0000       0.535982        14.5848 
  72   0.0000       0.552198        15.0261 
  73   0.0000       0.556177        15.1343 
  74   0.0000       0.587010        15.9734 
  75   0.0000       0.587479        15.9861 
  76   0.0000       0.615784        16.7563 
  77   0.0000       0.615879        16.7589 
  78   0.0000       0.631351        17.1799 
  79   0.0000       0.649497        17.6737 
  80   0.0000       0.651957        17.7406 
  81   0.0000       0.657683        17.8965 
  82   0.0000       0.695059        18.9135 
  83   0.0000       0.695737        18.9320 
  84   0.0000       0.721839        19.6422 
  85   0.0000       0.738028        20.0828 
  86   0.0000       0.738261        20.0891 
  87   0.0000       0.745432        20.2842 
  88   0.0000       0.755932        20.5699 
  89   0.0000       0.757941        20.6246 
  90   0.0000       0.774116        21.0648 
  91   0.0000       0.774312        21.0701 
  92   0.0000       0.806960        21.9585 
  93   0.0000       0.842937        22.9375 
  94   0.0000       0.843602        22.9556 
  95   0.0000       0.850553        23.1447 
  96   0.0000       0.954262        25.9668 
  97   0.0000       0.966948        26.3120 
  98   0.0000       0.967643        26.3309 
  99   0.0000       1.007162        27.4063 
 100   0.0000       1.007854        27.4251 
 101   0.0000       1.008939        27.4546 
 102   0.0000       1.036257        28.1980 
 103   0.0000       1.123823        30.5808 
 104   0.0000       1.191925        32.4339 
 105   0.0000       1.235780        33.6273 
 106   0.0000       1.235959        33.6322 
 107   0.0000       1.239636        33.7322 
 108   0.0000       1.248288        33.9676 
 109   0.0000       1.266065        34.4514 
 110   0.0000       1.266135        34.4533 
 111   0.0000       1.266974        34.4761 
 112   0.0000       1.285772        34.9876 
 113   0.0000       1.287612        35.0377 
 114   0.0000       1.288335        35.0574 
 115   0.0000       1.390158        37.8281 
 116   0.0000       1.397798        38.0360 
 117   0.0000       1.398241        38.0481 
 118   0.0000       1.414947        38.5027 
 119   0.0000       1.425845        38.7992 
 120   0.0000       1.473551        40.0973 
 121   0.0000       1.473766        40.1032 
 122   0.0000       1.474314        40.1181 
 123   0.0000       1.478252        40.2253 
 124   0.0000       1.480483        40.2860 
 125   0.0000       1.522011        41.4160 
 126   0.0000       1.537080        41.8261 
 127   0.0000       1.537632        41.8411 
 128   0.0000       1.643700        44.7273 
 129   0.0000       1.726105        46.9697 
 130   0.0000       1.728064        47.0230 
 131   0.0000       1.728213        47.0271 
 132   0.0000       1.765109        48.0311 
 133   0.0000       1.780907        48.4610 
 134   0.0000       1.782159        48.4950 
 135   0.0000       1.783345        48.5273 
 136   0.0000       1.793286        48.7978 
 137   0.0000       1.808400        49.2091 
 138   0.0000       1.812922        49.3321 
 139   0.0000       1.813163        49.3387 
 140   0.0000       1.838714        50.0339 
 141   0.0000       1.851371        50.3784 
 142   0.0000       1.860854        50.6364 
 143   0.0000       1.861744        50.6606 
 144   0.0000       1.901919        51.7538 
 145   0.0000       1.964444        53.4552 
 146   0.0000       1.990757        54.1713 
 147   0.0000       1.991907        54.2025 
 148   0.0000       1.992670        54.2233 
 149   0.0000       1.997450        54.3534 
 150   0.0000       2.025592        55.1192 
 151   0.0000       2.025838        55.1259 
 152   0.0000       2.053607        55.8815 
 153   0.0000       2.096823        57.0575 
 154   0.0000       2.099367        57.1267 
 155   0.0000       2.101279        57.1787 
 156   0.0000       2.181182        59.3530 
 157   0.0000       2.183093        59.4050 
 158   0.0000       2.183244        59.4091 
 159   0.0000       2.187454        59.5236 
 160   0.0000       2.218078        60.3570 
 161   0.0000       2.218842        60.3778 
 162   0.0000       2.231434        60.7204 
 163   0.0000       2.238890        60.9233 
 164   0.0000       2.265990        61.6607 
 165   0.0000       2.323643        63.2295 
 166   0.0000       2.348292        63.9003 
 167   0.0000       2.355047        64.0841 
 168   0.0000       2.355361        64.0926 
 169   0.0000       2.364118        64.3309 
 170   0.0000       2.364540        64.3424 
 171   0.0000       2.393241        65.1234 
 172   0.0000       2.405023        65.4440 
 173   0.0000       2.408314        65.5336 
 174   0.0000       2.409217        65.5581 
 175   0.0000       2.452717        66.7418 
 176   0.0000       2.463940        67.0472 
 177   0.0000       2.476409        67.3865 
 178   0.0000       2.478714        67.4492 
 179   0.0000       2.479025        67.4577 
 180   0.0000       2.483624        67.5828 
 181   0.0000       2.501446        68.0678 
 182   0.0000       2.502033        68.0838 
 183   0.0000       2.502879        68.1068 
 184   0.0000       2.515060        68.4383 
 185   0.0000       2.516160        68.4682 
 186   0.0000       2.517566        68.5065 
 187   0.0000       2.529156        68.8218 
 188   0.0000       2.568076        69.8809 
 189   0.0000       2.603352        70.8408 
 190   0.0000       2.607997        70.9672 
 191   0.0000       2.609891        71.0188 
 192   0.0000       2.633564        71.6629 
 193   0.0000       2.658892        72.3521 
 194   0.0000       2.659322        72.3638 
 195   0.0000       2.665870        72.5420 
 196   0.0000       2.672037        72.7098 
 197   0.0000       2.682959        73.0070 
 198   0.0000       2.758177        75.0538 
 199   0.0000       2.767418        75.3053 
 200   0.0000       2.768149        75.3252 
 201   0.0000       2.775953        75.5375 
 202   0.0000       2.819805        76.7308 
 203   0.0000       2.823891        76.8420 
 204   0.0000       2.824406        76.8560 
 205   0.0000       2.857672        77.7612 
 206   0.0000       2.858825        77.7926 
 207   0.0000       2.898415        78.8699 
 208   0.0000       3.010314        81.9148 
 209   0.0000       3.057928        83.2104 
 210   0.0000       3.066012        83.4304 
 211   0.0000       3.068687        83.5032 
 212   0.0000       3.124814        85.0305 
 213   0.0000       3.125736        85.0556 
 214   0.0000       3.135926        85.3329 
 215   0.0000       3.158884        85.9576 
 216   0.0000       3.166539        86.1659 
 217   0.0000       3.201014        87.1040 
 218   0.0000       3.201858        87.1270 
 219   0.0000       3.234038        88.0027 
 220   0.0000       3.336603        90.7936 
 221   0.0000       3.337698        90.8234 
 222   0.0000       3.339601        90.8752 
 223   0.0000       3.381855        92.0250 
 224   0.0000       3.849009       104.7369 
 225   0.0000       3.849370       104.7467 
 226   0.0000       3.860823       105.0583 
 227   0.0000       3.881741       105.6276 
 228   0.0000       3.882061       105.6362 
 229   0.0000       3.903258       106.2131 
 230   0.0000       3.981851       108.3517 
 231   0.0000       3.997676       108.7823 
 232   0.0000       4.021965       109.4432 
 233   0.0000       4.034755       109.7913 
 234   0.0000       4.060912       110.5030 
 235   0.0000       4.062043       110.5338 
 236   0.0000       4.115461       111.9874 
 237   0.0000       4.116975       112.0286 
 238   0.0000       4.122324       112.1741 
 239   0.0000       4.166845       113.3856 
 240   0.0000       5.194046       141.3372 
 241   0.0000       5.194289       141.3438 
 242   0.0000       5.194967       141.3622 
 243   0.0000       5.197683       141.4361 
 244   0.0000       5.201375       141.5366 
 245   0.0000       5.202172       141.5583 
 246   0.0000       5.207298       141.6978 
 247   0.0000       5.207498       141.7032 
 248   0.0000       5.294259       144.0641 
 249   0.0000       5.294569       144.0725 
 250   0.0000       5.296814       144.1336 
 251   0.0000       5.319209       144.7430 
 252   0.0000       5.349004       145.5538 
 253   0.0000       5.349302       145.5619 
 254   0.0000       5.350406       145.5920 
 255   0.0000       5.358800       145.8204 
 256   0.0000       5.397018       146.8603 
 257   0.0000       5.398195       146.8924 
 258   0.0000       5.406501       147.1184 
 259   0.0000       5.406866       147.1283 
 260   0.0000       5.440693       148.0488 
 261   0.0000       5.444294       148.1468 
 262   0.0000       5.463786       148.6772 
 263   0.0000       5.464035       148.6839 
 264   0.0000       5.495092       149.5290 
 265   0.0000       5.504192       149.7767 
 266   0.0000       5.504483       149.7846 
 267   0.0000       5.521003       150.2341 
 268   0.0000       5.523457       150.3009 
 269   0.0000       5.526543       150.3849 
 270   0.0000       5.527185       150.4023 
 271   0.0000       5.527708       150.4166 
 272   0.0000       5.545678       150.9056 
 273   0.0000       5.546273       150.9218 
 274   0.0000       5.546514       150.9283 
 275   0.0000       5.546903       150.9389 
 276   0.0000       5.548007       150.9689 
 277   0.0000       5.555601       151.1756 
 278   0.0000       5.556290       151.1943 
 279   0.0000       5.560453       151.3076 
 280   0.0000       6.027357       164.0127 
 281   0.0000       6.027973       164.0295 
 282   0.0000       6.052064       164.6850 
 283   0.0000       6.052181       164.6882 
 284   0.0000       6.067817       165.1137 
 285   0.0000       6.069974       165.1724 
 286   0.0000       6.070650       165.1908 
 287   0.0000       6.073800       165.2765 
 288   0.0000       6.180429       168.1780 
 289   0.0000       6.263891       170.4491 
 290   0.0000       6.264331       170.4611 
 291   0.0000       6.307863       171.6457 
 292   0.0000       6.360635       173.0817 
 293   0.0000       6.361290       173.0995 
 294   0.0000       6.390900       173.9052 
 295   0.0000       6.398351       174.1080 
 296   0.0000       6.403344       174.2439 
 297   0.0000       6.451319       175.5493 
 298   0.0000       6.451774       175.5617 
 299   0.0000       6.471544       176.0997 
 300   0.0000       6.486640       176.5104 
 301   0.0000       6.506747       177.0576 
 302   0.0000       6.507474       177.0774 
 303   0.0000       6.507596       177.0807 
 304   0.0000       6.510003       177.1462 
 305   0.0000       6.524744       177.5473 
 306   0.0000       6.556207       178.4035 
 307   0.0000       6.556360       178.4076 
 308   0.0000       6.583556       179.1477 
 309   0.0000       6.584062       179.1614 
 310   0.0000       6.599781       179.5892 
 311   0.0000       6.600051       179.5965 
 312   0.0000       6.619376       180.1224 
 313   0.0000       6.626657       180.3205 
 314   0.0000       6.683402       181.8646 
 315   0.0000       6.771523       184.2625 
 316   0.0000       6.790702       184.7844 
 317   0.0000       6.803216       185.1249 
 318   0.0000       6.894479       187.6083 
 319   0.0000       6.896212       187.6555 
 320   0.0000       6.976251       189.8335 
 321   0.0000       7.039917       191.5659 
 322   0.0000       7.041372       191.6055 
 323   0.0000       7.046384       191.7418 
 324   0.0000       7.097741       193.1394 
 325   0.0000       7.121509       193.7861 
 326   0.0000       7.122413       193.8107 
 327   0.0000       7.155956       194.7235 
 328   0.0000       7.179532       195.3650 
 329   0.0000       7.185084       195.5161 
 330   0.0000       7.223867       196.5714 
 331   0.0000       7.224679       196.5935 
 332   0.0000       7.250743       197.3027 
 333   0.0000       7.265787       197.7121 
 334   0.0000       7.265899       197.7152 
 335   0.0000       7.273601       197.9248 
 336   0.0000      43.513215      1184.0548 
 337   0.0000      43.550195      1185.0611 
 338   0.0000      43.550619      1185.0726 
 339   0.0000      43.572440      1185.6664 
 340   0.0000      43.689792      1188.8597 
 341   0.0000      43.689955      1188.8641 
 342   0.0000      43.729709      1189.9459 
 343   0.0000      43.989580      1197.0173 

                    ********************************
                    * MULLIKEN POPULATION ANALYSIS *
                    ********************************

-----------------------
MULLIKEN ATOMIC CHARGES
-----------------------
   0 O :   -0.686634
   1 H :    0.369423
   2 H :    0.369782
   3 O :   -0.773677
   4 H :    0.365175
   5 H :    0.353804
   6 O :   -0.686555
   7 H :    0.370405
   8 H :    0.370375
   9 O :   -0.773879
  10 H :    0.353919
  11 H :    0.366440
  12 O :   -0.685843
  13 H :    0.369506
  14 H :    0.369592
  15 O :   -0.773861
  16 H :    0.354151
  17 H :    0.366808
  18 O :   -0.686002
  19 H :    0.369889
  20 H :    0.370637
  21 O :   -0.773821
  22 H :    0.354471
  23 H :    0.365894
Sum of atomic charges:   -0.0000000

--------------------------------
MULLIKEN REDUCED ORBITAL CHARGES
--------------------------------
  0 O s       :     3.776150  s :     3.776150
      pz      :     1.417508  p :     4.888158
      px      :     1.637605
      py      :     1.833045
      dz2     :     0.000495  d :     0.021383
      dxz     :     0.006296
      dyz     :     0.006738
      dx2y2   :     0.002661
      dxy     :     0.005193
      f0      :     0.000026  f :     0.000942
      f+1     :     0.000208
      f-1     :     0.000253
      f+2     :     0.000155
      f-2     :     0.000178
      f+3     :     0.000041
      f-3     :     0.000082
  1 H s       :     0.576497  s :     0.576497
      pz      :     0.021730  p :     0.054081
      px      :     0.012555
      py      :     0.019795
  2 H s       :     0.576065  s :     0.576065
      pz      :     0.020701  p :     0.054153
      px      :     0.019341
      py      :     0.014110
  3 O s       :     3.798913  s :     3.798913
      pz      :     1.888599  p :     4.955956
      px      :     1.650310
      py      :     1.417048
      dz2     :     0.003112  d :     0.017760
      dxz     :     0.002222
      dyz     :     0.000979
      dx2y2   :     0.005058
      dxy     :     0.006389
      f0      :     0.000163  f :     0.001047
      f+1     :     0.000102
      f-1     :     0.000288
      f+2     :     0.000058
      f-2     :     0.000094
      f+3     :     0.000145
      f-3     :     0.000198
  4 H s       :     0.571696  s :     0.571696
      pz      :     0.013395  p :     0.063130
      px      :     0.029904
      py      :     0.019831
  5 H s       :     0.601793  s :     0.601793
      pz      :     0.014608  p :     0.044402
      px      :     0.012444
      py      :     0.017350
  6 O s       :     3.776281  s :     3.776281
      pz      :     1.626840  p :     4.887907
      px      :     1.692247
      py      :     1.568820
      dz2     :     0.002849  d :     0.021426
      dxz     :     0.006043
      dyz     :     0.008661
      dx2y2   :     0.000496
      dxy     :     0.003378
      f0      :     0.000039  f :     0.000941
      f+1     :     0.000034
      f-1     :     0.000049
      f+2     :     0.000030
      f-2     :     0.000477
      f+3     :     0.000214
      f-3     :     0.000098
  7 H s       :     0.575328  s :     0.575328
      pz      :     0.019347  p :     0.054267
      px      :     0.014199
      py      :     0.020721
  8 H s       :     0.575629  s :     0.575629
      pz      :     0.019126  p :     0.053996
      px      :     0.018465
      py      :     0.016405
  9 O s       :     3.798721  s :     3.798721
      pz      :     1.595349  p :     4.956373
      px      :     1.622789
      py      :     1.738235
      dz2     :     0.003600  d :     0.017736
      dxz     :     0.006280
      dyz     :     0.004508
      dx2y2   :     0.000327
      dxy     :     0.003021
      f0      :     0.000009  f :     0.001049
      f+1     :     0.000176
      f-1     :     0.000121
      f+2     :     0.000032
      f-2     :     0.000356
      f+3     :     0.000100
      f-3     :     0.000255
 10 H s       :     0.601690  s :     0.601690
      pz      :     0.015681  p :     0.044391
      px      :     0.014242
      py      :     0.014468
 11 H s       :     0.570474  s :     0.570474
      pz      :     0.011364  p :     0.063085
      px      :     0.029546
      py      :     0.022176
 12 O s       :     3.775883  s :     3.775883
      pz      :     1.758125  p :     4.887611
      px      :     1.608014
      py      :     1.521472
      dz2     :     0.002014  d :     0.021406
      dxz     :     0.006720
      dyz     :     0.008315
      dx2y2   :     0.002143
      dxy     :     0.002214
      f0      :     0.000166  f :     0.000942
      f+1     :     0.000030
      f-1     :     0.000016
      f+2     :     0.000235
      f-2     :     0.000215
      f+3     :     0.000106
      f-3     :     0.000175
 13 H s       :     0.576415  s :     0.576415
      pz      :     0.018873  p :     0.054079
      px      :     0.020520
      py      :     0.014686
 14 H s       :     0.576278  s :     0.576278
      pz      :     0.018981  p :     0.054130
      px      :     0.012519
      py      :     0.022630
 15 O s       :     3.798793  s :     3.798793
      pz      :     1.888793  p :     4.956295
      px      :     1.419210
      py      :     1.648292
      dz2     :     0.003114  d :     0.017721
      dxz     :     0.000960
      dyz     :     0.002259
      dx2y2   :     0.001091
      dxy     :     0.010298
      f0      :     0.000163  f :     0.001051
      f+1     :     0.000266
      f-1     :     0.000123
      f+2     :     0.000032
      f-2     :     0.000121
      f+3     :     0.000010
      f-3     :     0.000336
 16 H s       :     0.601488  s :     0.601488
      pz      :     0.014595  p :     0.044361
      px      :     0.016244
      py      :     0.013522
 17 H s       :     0.570337  s :     0.570337
      pz      :     0.013376  p :     0.062855
      px      :     0.027898
      py      :     0.021581
 18 O s       :     3.775609  s :     3.775609
      pz      :     1.417591  p :     4.888037
      px      :     1.859233
      py      :     1.611214
      dz2     :     0.000508  d :     0.021415
      dxz     :     0.004147
      dyz     :     0.008890
      dx2y2   :     0.003515
      dxy     :     0.004355
      f0      :     0.000026  f :     0.000941
      f+1     :     0.000202
      f-1     :     0.000261
      f+2     :     0.000194
      f-2     :     0.000137
      f+3     :     0.000051
      f-3     :     0.000071
 19 H s       :     0.575880  s :     0.575880
      pz      :     0.020755  p :     0.054231
      px      :     0.012682
      py      :     0.020793
 20 H s       :     0.575082  s :     0.575082
      pz      :     0.021849  p :     0.054281
      px      :     0.018170
      py      :     0.014261
 21 O s       :     3.798892  s :     3.798892
      pz      :     1.458140  p :     4.956099
      px      :     1.706183
      py      :     1.791777
      dz2     :     0.010140  d :     0.017779
      dxz     :     0.000770
      dyz     :     0.000918
      dx2y2   :     0.000848
      dxy     :     0.005103
      f0      :     0.000556  f :     0.001051
      f+1     :     0.000050
      f-1     :     0.000061
      f+2     :     0.000012
      f-2     :     0.000073
      f+3     :     0.000069
      f-3     :     0.000230
 22 H s       :     0.601240  s :     0.601240
      pz      :     0.017917  p :     0.044289
      px      :     0.012768
      py      :     0.013604
 23 H s       :     0.571231  s :     0.571231
      pz      :     0.010188  p :     0.062875
      px      :     0.030244
      py      :     0.022443


                     *******************************
                     * LOEWDIN POPULATION ANALYSIS *
                     *******************************

----------------------
LOEWDIN ATOMIC CHARGES
----------------------
   0 O :   -0.277031
   1 H :    0.147312
   2 H :    0.147203
   3 O :   -0.323910
   4 H :    0.142088
   5 H :    0.162258
   6 O :   -0.276475
   7 H :    0.147246
   8 H :    0.147391
   9 O :   -0.322838
  10 H :    0.162217
  11 H :    0.142285
  12 O :   -0.275958
  13 H :    0.147312
  14 H :    0.147482
  15 O :   -0.322454
  16 H :    0.162456
  17 H :    0.142640
  18 O :   -0.275789
  19 H :    0.147011
  20 H :    0.146980
  21 O :   -0.322565
  22 H :    0.162526
  23 H :    0.142615

-------------------------------
LOEWDIN REDUCED ORBITAL CHARGES
-------------------------------
  0 O s       :     3.462723  s :     3.462723
      pz      :     1.401143  p :     4.781937
      px      :     1.612091
      py      :     1.768703
      dz2     :     0.001914  d :     0.030401
      dxz     :     0.010812
      dyz     :     0.009212
      dx2y2   :     0.002648
      dxy     :     0.005815
      f0      :     0.000062  f :     0.001970
      f+1     :     0.000430
      f-1     :     0.000431
      f+2     :     0.000281
      f-2     :     0.000528
      f+3     :     0.000059
      f-3     :     0.000180
  1 H s       :     0.669316  s :     0.669316
      pz      :     0.077027  p :     0.183372
      px      :     0.040373
      py      :     0.065972
  2 H s       :     0.669175  s :     0.669175
      pz      :     0.068423  p :     0.183622
      px      :     0.069883
      py      :     0.045316
  3 O s       :     3.473503  s :     3.473503
      pz      :     1.809664  p :     4.819685
      px      :     1.621033
      py      :     1.388988
      dz2     :     0.004476  d :     0.028717
      dxz     :     0.003599
      dyz     :     0.002388
      dx2y2   :     0.008045
      dxy     :     0.010209
      f0      :     0.000161  f :     0.002005
      f+1     :     0.000134
      f-1     :     0.000461
      f+2     :     0.000099
      f-2     :     0.000193
      f+3     :     0.000411
      f-3     :     0.000547
  4 H s       :     0.634100  s :     0.634100
      pz      :     0.043129  p :     0.223812
      px      :     0.113829
      py      :     0.066854
  5 H s       :     0.677938  s :     0.677938
      pz      :     0.043494  p :     0.159804
      px      :     0.040139
      py      :     0.076171
  6 O s       :     3.462600  s :     3.462600
      pz      :     1.616370  p :     4.781483
      px      :     1.635228
      py      :     1.529886
      dz2     :     0.001733  d :     0.030423
      dxz     :     0.008624
      dyz     :     0.012786
      dx2y2   :     0.000728
      dxy     :     0.006552
      f0      :     0.000182  f :     0.001968
      f+1     :     0.000173
      f-1     :     0.000275
      f+2     :     0.000062
      f-2     :     0.000890
      f+3     :     0.000260
      f-3     :     0.000126
  7 H s       :     0.668872  s :     0.668872
      pz      :     0.068031  p :     0.183881
      px      :     0.048922
      py      :     0.066928
  8 H s       :     0.669393  s :     0.669393
      pz      :     0.067221  p :     0.183217
      px      :     0.058194
      py      :     0.057802
  9 O s       :     3.472997  s :     3.472997
      pz      :     1.576850  p :     4.819103
      px      :     1.569115
      py      :     1.673138
      dz2     :     0.004169  d :     0.028731
      dxz     :     0.010096
      dyz     :     0.007518
      dx2y2   :     0.000564
      dxy     :     0.006385
      f0      :     0.000130  f :     0.002007
      f+1     :     0.000434
      f-1     :     0.000284
      f+2     :     0.000049
      f-2     :     0.000719
      f+3     :     0.000072
      f-3     :     0.000319
 10 H s       :     0.677884  s :     0.677884
      pz      :     0.067004  p :     0.159899
      px      :     0.046983
      py      :     0.045911
 11 H s       :     0.633958  s :     0.633958
      pz      :     0.039839  p :     0.223756
      px      :     0.106419
      py      :     0.077498
 12 O s       :     3.462497  s :     3.462497
      pz      :     1.717873  p :     4.781018
      px      :     1.569751
      py      :     1.493394
      dz2     :     0.001564  d :     0.030468
      dxz     :     0.007955
      dyz     :     0.010802
      dx2y2   :     0.004273
      dxy     :     0.005874
      f0      :     0.000327  f :     0.001976
      f+1     :     0.000073
      f-1     :     0.000080
      f+2     :     0.000565
      f-2     :     0.000430
      f+3     :     0.000128
      f-3     :     0.000372
 13 H s       :     0.669348  s :     0.669348
      pz      :     0.064050  p :     0.183340
      px      :     0.075333
      py      :     0.043957
 14 H s       :     0.669006  s :     0.669006
      pz      :     0.064426  p :     0.183512
      px      :     0.036123
      py      :     0.082963
 15 O s       :     3.472687  s :     3.472687
      pz      :     1.809506  p :     4.819063
      px      :     1.385943
      py      :     1.623614
      dz2     :     0.004459  d :     0.028699
      dxz     :     0.002213
      dyz     :     0.003816
      dx2y2   :     0.001971
      dxy     :     0.016240
      f0      :     0.000161  f :     0.002005
      f+1     :     0.000399
      f-1     :     0.000196
      f+2     :     0.000045
      f-2     :     0.000248
      f+3     :     0.000158
      f-3     :     0.000798
 16 H s       :     0.677750  s :     0.677750
      pz      :     0.043477  p :     0.159794
      px      :     0.066811
      py      :     0.049506
 17 H s       :     0.634331  s :     0.634331
      pz      :     0.043168  p :     0.223029
      px      :     0.098449
      py      :     0.081412
 18 O s       :     3.462227  s :     3.462227
      pz      :     1.401018  p :     4.781131
      px      :     1.783030
      py      :     1.597082
      dz2     :     0.001935  d :     0.030459
      dxz     :     0.005722
      dyz     :     0.014300
      dx2y2   :     0.002893
      dxy     :     0.005608
      f0      :     0.000062  f :     0.001972
      f+1     :     0.000293
      f-1     :     0.000569
      f+2     :     0.000402
      f-2     :     0.000406
      f+3     :     0.000061
      f-3     :     0.000180
 19 H s       :     0.669142  s :     0.669142
      pz      :     0.068650  p :     0.183847
      px      :     0.040106
      py      :     0.075091
 20 H s       :     0.668958  s :     0.668958
      pz      :     0.077450  p :     0.184062
      px      :     0.058893
      py      :     0.047719
 21 O s       :     3.472945  s :     3.472945
      pz      :     1.437234  p :     4.818882
      px      :     1.653838
      py      :     1.727810
      dz2     :     0.015819  d :     0.028734
      dxz     :     0.001770
      dyz     :     0.002109
      dx2y2   :     0.001245
      dxy     :     0.007790
      f0      :     0.001164  f :     0.002005
      f+1     :     0.000133
      f-1     :     0.000096
      f+2     :     0.000033
      f-2     :     0.000118
      f+3     :     0.000074
      f-3     :     0.000386
 22 H s       :     0.677736  s :     0.677736
      pz      :     0.082925  p :     0.159738
      px      :     0.036994
      py      :     0.039819
 23 H s       :     0.634336  s :     0.634336
      pz      :     0.030831  p :     0.223049
      px      :     0.112057
      py      :     0.080161


                      *****************************
                      * MAYER POPULATION ANALYSIS *
                      *****************************

  NA   - Mulliken gross atomic population
  ZA   - Total nuclear charge
  QA   - Mulliken gross atomic charge
  VA   - Mayer's total valence
  BVA  - Mayer's bonded valence
  FA   - Mayer's free valence

  ATOM       NA         ZA         QA         VA         BVA        FA
  0 O      8.6866     8.0000    -0.6866     1.8383     1.8383     0.0000
  1 H      0.6306     1.0000     0.3694     0.9179     0.9179     0.0000
  2 H      0.6302     1.0000     0.3698     0.9177     0.9177    -0.0000
  3 O      8.7737     8.0000    -0.7737     1.7353     1.7353     0.0000
  4 H      0.6348     1.0000     0.3652     0.9391     0.9391    -0.0000
  5 H      0.6462     1.0000     0.3538     0.8961     0.8961     0.0000
  6 O      8.6866     8.0000    -0.6866     1.8394     1.8394    -0.0000
  7 H      0.6296     1.0000     0.3704     0.9170     0.9170    -0.0000
  8 H      0.6296     1.0000     0.3704     0.9168     0.9168    -0.0000
  9 O      8.7739     8.0000    -0.7739     1.7365     1.7365    -0.0000
 10 H      0.6461     1.0000     0.3539     0.8960     0.8960    -0.0000
 11 H      0.6336     1.0000     0.3664     0.9375     0.9375    -0.0000
 12 O      8.6858     8.0000    -0.6858     1.8388     1.8388    -0.0000
 13 H      0.6305     1.0000     0.3695     0.9178     0.9178     0.0000
 14 H      0.6304     1.0000     0.3696     0.9181     0.9181     0.0000
 15 O      8.7739     8.0000    -0.7739     1.7366     1.7366    -0.0000
 16 H      0.6458     1.0000     0.3542     0.8958     0.8958     0.0000
 17 H      0.6332     1.0000     0.3668     0.9372     0.9372     0.0000
 18 O      8.6860     8.0000    -0.6860     1.8395     1.8395     0.0000
 19 H      0.6301     1.0000     0.3699     0.9176     0.9176     0.0000
 20 H      0.6294     1.0000     0.3706     0.9168     0.9168     0.0000
 21 O      8.7738     8.0000    -0.7738     1.7363     1.7363    -0.0000
 22 H      0.6455     1.0000     0.3545     0.8956     0.8956    -0.0000
 23 H      0.6341     1.0000     0.3659     0.9381     0.9381    -0.0000

  Mayer bond orders larger than 0.1
B(  0-O ,  1-H ) :   0.8116 B(  0-O ,  2-H ) :   0.8112 B(  0-O , 17-H ) :   0.2285 
B(  3-O ,  4-H ) :   0.6899 B(  3-O ,  5-H ) :   0.8780 B(  3-O , 14-H ) :   0.1001 
B(  4-H , 18-O ) :   0.2313 B(  6-O ,  7-H ) :   0.8108 B(  6-O ,  8-H ) :   0.8119 
B(  6-O , 23-H ) :   0.2296 B(  9-O , 10-H ) :   0.8778 B(  9-O , 11-H ) :   0.6902 
B( 11-H , 12-O ) :   0.2296 B( 12-O , 13-H ) :   0.8118 B( 12-O , 14-H ) :   0.8107 
B( 15-O , 16-H ) :   0.8776 B( 15-O , 17-H ) :   0.6911 B( 18-O , 19-H ) :   0.8111 
B( 18-O , 20-H ) :   0.8108 B( 21-O , 22-H ) :   0.8775 B( 21-O , 23-H ) :   0.6910 


-------
TIMINGS
-------

Total SCF time: 0 days 0 hours 0 min 19 sec 

Total time                  ....      19.714 sec
Sum of individual times     ....      18.307 sec  ( 92.9%)

Fock matrix formation       ....      15.110 sec  ( 76.6%)
  Coulomb formation         ....      12.768 sec  ( 84.5% of F)
  Split-RI-J                ....       1.693 sec  ( 11.2% of F)
  Chain of spheres X        ....      12.905 sec  ( 85.4% of F)
  COS-X 1 center corr.      ....       0.000 sec  (  0.0% of F)
  XC integration            ....       2.315 sec  ( 15.3% of F)
    Basis function eval.    ....       0.593 sec  ( 25.6% of XC)
    Density eval.           ....       0.457 sec  ( 19.7% of XC)
    XC-Functional eval.     ....       0.300 sec  ( 13.0% of XC)
    XC-Potential eval.      ....       0.839 sec  ( 36.2% of XC)
Diagonalization             ....       0.211 sec  (  1.1%)
Density matrix formation    ....       0.267 sec  (  1.4%)
Population analysis         ....       0.133 sec  (  0.7%)
Initial guess               ....       0.692 sec  (  3.5%)
Orbital Transformation      ....       0.000 sec  (  0.0%)
Orbital Orthonormalization  ....       0.000 sec  (  0.0%)
DIIS solution               ....       0.058 sec  (  0.3%)
SOSCF solution              ....       0.135 sec  (  0.7%)
Grid generation             ....       1.700 sec  (  8.6%)
           ************************************************************
           *              Shut down parallel processing               *
           ************************************************************

Entering the calculation of the dispersion correction...

Checking the input atom types...

Done


-------------------------------------------------------------------------------
                          DFT DISPERSION CORRECTION                            
                                                                               
                                DFTD3 V2.1  Rev 6                               
                              USING zero damping                               
-------------------------------------------------------------------------------
The omegaB97X-D3 functional is recognized. Fit by Chai et al.
Active option DFTDOPT                   ...         3   

molecular C6(AA) [au] = 2846.260577 


            DFT-D V3
 parameters
 s6 scaling factor         :     1.0000 
 rs6 scaling factor        :     1.2810 
 s8 scaling factor         :     1.0000 
 rs8 scaling factor        :     1.0940 
 Damping factor alpha6     :    14.0000 
 Damping factor alpha8     :    16.0000 
 ad hoc parameters k1-k3   :    16.0000     1.3333    -4.0000 

 Edisp/kcal,au: -7.936828441995  -0.012648139866 
 E6   /kcal   :  -4.133618549 
 E8   /kcal   :  -3.803209893 
 % E8         :  47.918509526 

-------------------------   ----------------
Dispersion correction           -0.012648140
-------------------------   ----------------


-------------------------   --------------------
FINAL SINGLE POINT ENERGY      -611.634953940955
-------------------------   --------------------


                            ***************************************
                            *     ORCA property calculations      *
                            ***************************************

                                    ---------------------
                                    Active property flags
                                    ---------------------
   (+) Dipole Moment


------------------------------------------------------------------------------
                       ORCA ELECTRIC PROPERTIES CALCULATION
------------------------------------------------------------------------------

Dipole Moment Calculation                       ... on
Quadrupole Moment Calculation                   ... off
Polarizability Calculation                      ... off
GBWName                                         ... 1_wB97X_GasPhase_onBP86_8_waters.gbw
Electron density file                           ... 1_wB97X_GasPhase_onBP86_8_waters.scfp.tmp

-------------
DIPOLE MOMENT
-------------
                                X             Y             Z
Electronic contribution:     -0.00206       0.00119      -0.00391
Nuclear contribution   :     -0.00456       0.01040       0.01426
                        -----------------------------------------
Total Dipole Moment    :     -0.00662       0.01160       0.01036
                        -----------------------------------------
Magnitude (a.u.)       :      0.01690
Magnitude (Debye)      :      0.04296

smp-n75.crc.pitt.edu.431449hfi_wait_for_device: The /dev/hfi1_0 device failed to appear after 15.0 seconds: Connection timed out
smp-n75.crc.pitt.edu.431450hfi_wait_for_device: The /dev/hfi1_0 device failed to appear after 15.0 seconds: Connection timed out
smp-n75.crc.pitt.edu.431451hfi_wait_for_device: The /dev/hfi1_0 device failed to appear after 15.0 seconds: Connection timed out
smp-n75.crc.pitt.edu.431452hfi_wait_for_device: The /dev/hfi1_0 device failed to appear after 15.0 seconds: Connection timed out
smp-n75.crc.pitt.edu.431453hfi_wait_for_device: The /dev/hfi1_0 device failed to appear after 15.0 seconds: Connection timed out
smp-n75.crc.pitt.edu.431454hfi_wait_for_device: The /dev/hfi1_0 device failed to appear after 15.0 seconds: Connection timed out
smp-n75.crc.pitt.edu.431455hfi_wait_for_device: The /dev/hfi1_0 device failed to appear after 15.0 seconds: Connection timed out
smp-n75.crc.pitt.edu.431456hfi_wait_for_device: The /dev/hfi1_0 device failed to appear after 15.0 seconds: Connection timed out
smp-n75.crc.pitt.edu.431457hfi_wait_for_device: The /dev/hfi1_0 device failed to appear after 15.0 seconds: Connection timed out
smp-n75.crc.pitt.edu.431458hfi_wait_for_device: The /dev/hfi1_0 device failed to appear after 15.0 seconds: Connection timed out
smp-n75.crc.pitt.edu.431459hfi_wait_for_device: The /dev/hfi1_0 device failed to appear after 15.0 seconds: Connection timed out
smp-n75.crc.pitt.edu.431460hfi_wait_for_device: The /dev/hfi1_0 device failed to appear after 15.0 seconds: Connection timed out

Timings for individual modules:

Sum of individual times         ...       51.467 sec (=   0.858 min)
GTO integral calculation        ...       15.645 sec (=   0.261 min)  30.4 %
SCF iterations                  ...       35.822 sec (=   0.597 min)  69.6 %
                             ****ORCA TERMINATED NORMALLY****
TOTAL RUN TIME: 0 days 0 hours 1 minutes 6 seconds 946 msec
cp: cannot stat /scratch/slurm-1321723/*.{prop}: No such file or directory
