
                                 *****************
                                 * O   R   C   A *
                                 *****************

           --- An Ab Initio, DFT and Semiempirical electronic structure package ---

                  #######################################################
                  #                        -***-                        #
                  #          Department of theory and spectroscopy      #
                  #               Directorship: Frank Neese             #
                  #        Max Planck Institute fuer Kohlenforschung    #
                  #                Kaiser Wilhelm Platz 1               #
                  #                 D-45470 Muelheim/Ruhr               #
                  #                      Germany                        #
                  #                                                     #
                  #                  All rights reserved                #
                  #                        -***-                        #
                  #######################################################


                         Program Version 4.2.0 -  RELEASE  -


 With contributions from (in alphabetic order):
   Daniel Aravena         : Magnetic Suceptibility
   Michael Atanasov       : Ab Initio Ligand Field Theory (pilot matlab implementation)
   Alexander A. Auer      : GIAO ZORA, VPT2
   Ute Becker             : Parallelization
   Giovanni Bistoni       : ED, misc. LED, open-shell LED, HFLED
   Martin Brehm           : Molecular dynamics
   Dmytro Bykov           : SCF Hessian
   Vijay G. Chilkuri      : MRCI spin determinant printing, contributions to CSF-ICE
   Dipayan Datta          : RHF DLPNO-CCSD density
   Achintya Kumar Dutta   : EOM-CC, STEOM-CC
   Dmitry Ganyushin       : Spin-Orbit,Spin-Spin,Magnetic field MRCI
   Miquel Garcia          : C-PCM Hessian, Gaussian charge scheme
   Yang Guo               : DLPNO-NEVPT2, CIM, IAO-localization
   Andreas Hansen         : Spin unrestricted coupled pair/coupled cluster methods
   Benjamin Helmich-Paris : CASSCF linear response (MC-RPA)
   Lee Huntington         : MR-EOM, pCC
   Robert Izsak           : Overlap fitted RIJCOSX, COSX-SCS-MP3, EOM
   Christian Kollmar      : KDIIS, OOCD, Brueckner-CCSD(T), CCSD density
   Simone Kossmann        : Meta GGA functionals, TD-DFT gradient, OOMP2, MP2 Hessian
   Martin Krupicka        : AUTO-CI
   Lucas Lang             : DCDCAS
   Dagmar Lenk            : GEPOL surface, SMD
   Dimitrios Liakos       : Extrapolation schemes; Compound Job, initial MDCI parallelization
   Dimitrios Manganas     : Further ROCIS development; embedding schemes
   Dimitrios Pantazis     : SARC Basis sets
   Taras Petrenko         : DFT Hessian,TD-DFT gradient, ASA, ECA, R-Raman, ABS, FL, XAS/XES, NRVS
   Peter Pinski           : DLPNO-MP2, DLPNO-MP2 Gradient
   Christoph Reimann      : Effective Core Potentials
   Marius Retegan         : Local ZFS, SOC
   Christoph Riplinger    : Optimizer, TS searches, QM/MM, DLPNO-CCSD(T), (RO)-DLPNO pert. Triples
   Tobias Risthaus        : Range-separated hybrids, TD-DFT gradient, RPA, STAB
   Michael Roemelt        : Original ROCIS implementation
   Masaaki Saitow         : Open-shell DLPNO-CCSD energy and density
   Barbara Sandhoefer     : DKH picture change effects
   Avijit Sen             : IP-ROCIS
   Kantharuban Sivalingam : CASSCF convergence, NEVPT2, FIC-MRCI
   Bernardo de Souza      : ESD, SOC TD-DFT
   Georgi Stoychev        : AutoAux, RI-MP2 NMR
   Willem Van den Heuvel  : Paramagnetic NMR
   Boris Wezisla          : Elementary symmetry handling
   Frank Wennmohs         : Technical directorship


 We gratefully acknowledge several colleagues who have allowed us to
 interface, adapt or use parts of their codes:
   Stefan Grimme, W. Hujo, H. Kruse,             : VdW corrections, initial TS optimization,
                  C. Bannwarth                     DFT functionals, gCP, sTDA/sTD-DF
   Ed Valeev, F. Pavosevic, A. Kumar             : LibInt (2-el integral package), F12 methods
   Garnet Chan, S. Sharma, J. Yang, R. Olivares  : DMRG
   Ulf Ekstrom                                   : XCFun DFT Library
   Mihaly Kallay                                 : mrcc  (arbitrary order and MRCC methods)
   Andreas Klamt, Michael Diedenhofen            : otool_cosmo (COSMO solvation model)
   Jiri Pittner, Ondrej Demel                    : Mk-CCSD
   Frank Weinhold                                : gennbo (NPA and NBO analysis)
   Christopher J. Cramer and Donald G. Truhlar   : smd solvation model
   Lars Goerigk                                  : TD-DFT with DH, B97 family of functionals
   V. Asgeirsson, H. Jonsson                     : NEB implementation
   FAccTs GmbH                                   : IRC, NEB, NEB-TS, Multilevel, MM, QM/MM, CI optimization
   S Lehtola, MJT Oliveira, MAL Marques          : LibXC Library


 Your calculation uses the libint2 library for the computation of 2-el integrals
 For citations please refer to: http://libint.valeyev.net

 Your ORCA version has been built with support for libXC version: 4.2.3
 For citations please refer to: https://tddft.org/programs/libxc/

 This ORCA versions uses:
   CBLAS   interface :  Fast vector & matrix operations
   LAPACKE interface :  Fast linear algebra routines
   SCALAPACK package :  Parallel linear algebra routines


----- Orbital basis set information -----
Your calculation utilizes the basis: def2-TZVP
   F. Weigend and R. Ahlrichs, Phys. Chem. Chem. Phys. 7, 3297 (2005).

================================================================================
                                        WARNINGS
                       Please study these warnings very carefully!
================================================================================


WARNING: The frozen-core approximation for MP2-gradient calculations is turned on by default.

INFO   : the flag for use of LIBINT has been found!

================================================================================
                                       INPUT FILE
================================================================================
NAME = 12h2o.su.etal.mol2,3,4,6,7,8,11-orca.engrad-mp2.def2tzvp.frozencore.inp
|  1> # 12h2o.su.etal.mol2,3,4,6,7,8,11
|  2> ! MP2 def2-TZVP EnGrad TightSCF
|  3> 
|  4> %pal
|  5>     nprocs 6
|  6> end
|  7> 
|  8> %maxcore 8000
|  9> 
| 10> %scf
| 11>     ConvForced true
| 12> end
| 13> 
| 14> *xyz 0 1
| 15> O   0.923410000  -1.794470000  -2.768350000
| 16> H   1.359750000  -2.338250000  -3.430940000
| 17> H   1.303000000  -0.879480000  -2.865760000
| 18> O  -1.752130000  -0.741530000  -2.896280000
| 19> H  -2.036450000  -0.920500000  -1.984040000
| 20> H  -0.921210000  -1.242140000  -2.984230000
| 21> O  -0.885520000   1.737840000   0.052730000
| 22> H  -1.032320000   2.090180000  -0.841890000
| 23> H  -1.284090000   0.839590000   0.017130000
| 24> O   1.737840000   0.885520000  -0.052730000
| 25> H   2.090180000   1.032320000   0.841890000
| 26> H   0.839590000   1.284090000  -0.017130000
| 27> O  -1.737840000  -0.885520000  -0.052730000
| 28> H  -2.090180000  -1.032320000   0.841890000
| 29> H  -0.839590000  -1.284090000  -0.017130000
| 30> O   1.752130000   0.741530000  -2.896280000
| 31> H   2.036450000   0.920500000  -1.984040000
| 32> H   0.921210000   1.242140000  -2.984230000
| 33> O  -0.741530000   1.752130000   2.896280000
| 34> H  -0.920500000   2.036450000   1.984040000
| 35> H  -1.242140000   0.921210000   2.984230000
| 36> *
| 37> 
| 38>                          ****END OF INPUT****
================================================================================

                     *******************************
                     * Energy+Gradient Calculation *
                     *******************************

---------------------------------
CARTESIAN COORDINATES (ANGSTROEM)
---------------------------------
  O      0.923410   -1.794470   -2.768350
  H      1.359750   -2.338250   -3.430940
  H      1.303000   -0.879480   -2.865760
  O     -1.752130   -0.741530   -2.896280
  H     -2.036450   -0.920500   -1.984040
  H     -0.921210   -1.242140   -2.984230
  O     -0.885520    1.737840    0.052730
  H     -1.032320    2.090180   -0.841890
  H     -1.284090    0.839590    0.017130
  O      1.737840    0.885520   -0.052730
  H      2.090180    1.032320    0.841890
  H      0.839590    1.284090   -0.017130
  O     -1.737840   -0.885520   -0.052730
  H     -2.090180   -1.032320    0.841890
  H     -0.839590   -1.284090   -0.017130
  O      1.752130    0.741530   -2.896280
  H      2.036450    0.920500   -1.984040
  H      0.921210    1.242140   -2.984230
  O     -0.741530    1.752130    2.896280
  H     -0.920500    2.036450    1.984040
  H     -1.242140    0.921210    2.984230

----------------------------
CARTESIAN COORDINATES (A.U.)
----------------------------
  NO LB      ZA    FRAG     MASS         X           Y           Z
   0 O     8.0000    0    15.999    1.744992   -3.391057   -5.231423
   1 H     1.0000    0     1.008    2.569555   -4.418652   -6.483537
   2 H     1.0000    0     1.008    2.462313   -1.661976   -5.415502
   3 O     8.0000    0    15.999   -3.311046   -1.401289   -5.473176
   4 H     1.0000    0     1.008   -3.848333   -1.739493   -3.749292
   5 H     1.0000    0     1.008   -1.740835   -2.347304   -5.639377
   6 O     8.0000    0    15.999   -1.673390    3.284042    0.099645
   7 H     1.0000    0     1.008   -1.950802    3.949868   -1.590942
   8 H     1.0000    0     1.008   -2.426578    1.586595    0.032371
   9 O     8.0000    0    15.999    3.284042    1.673390   -0.099645
  10 H     1.0000    0     1.008    3.949868    1.950802    1.590942
  11 H     1.0000    0     1.008    1.586595    2.426578   -0.032371
  12 O     8.0000    0    15.999   -3.284042   -1.673390   -0.099645
  13 H     1.0000    0     1.008   -3.949868   -1.950802    1.590942
  14 H     1.0000    0     1.008   -1.586595   -2.426578   -0.032371
  15 O     8.0000    0    15.999    3.311046    1.401289   -5.473176
  16 H     1.0000    0     1.008    3.848333    1.739493   -3.749292
  17 H     1.0000    0     1.008    1.740835    2.347304   -5.639377
  18 O     8.0000    0    15.999   -1.401289    3.311046    5.473176
  19 H     1.0000    0     1.008   -1.739493    3.848333    3.749292
  20 H     1.0000    0     1.008   -2.347304    1.740835    5.639377

--------------------------------
INTERNAL COORDINATES (ANGSTROEM)
--------------------------------
 O      0   0   0     0.000000000000     0.00000000     0.00000000
 H      1   0   0     0.961828878803     0.00000000     0.00000000
 H      1   2   0     0.995381322057   106.21731035     0.00000000
 O      1   2   3     2.878117964938   126.72240291   103.59081140
 H      4   1   2     0.972136791249    99.37069922   136.92500856
 H      4   1   2     0.974050112161    12.30570018    24.40947955
 O      5   4   1     3.541164138161   107.84672602    83.70571148
 H      7   5   4     0.972645187106    72.17296994    29.09453504
 H      7   5   4     0.983350632989    33.04029707   190.88793319
 O      7   5   4     2.760360281485    93.15949665   286.74623630
 H     10   7   5     0.972645187106   105.22009255   219.29662971
 H     10   7   5     0.983350632989     5.92595386   143.65078242
 O      9   7   5     1.785153773264   170.81379649    88.00403199
 H     13   9   7     0.972645187106   101.65007623   109.44492584
 H     13   9   7     0.983350632989    99.09581498     3.33484705
 O      3   1   2     1.682356278379   171.61043709   164.26103839
 H     16   3   1     0.972136791249   103.79460456    70.64587838
 H     16   3   1     0.974050112161   105.61118924   321.69395179
 O      7   5   4     2.847229166523   126.48630953   195.00328214
 H     19   7   5     0.972136791249    19.08819947   226.21746260
 H     19   7   5     0.974050112161    93.43428486   350.31374249

---------------------------
INTERNAL COORDINATES (A.U.)
---------------------------
 O      0   0   0     0.000000000000     0.00000000     0.00000000
 H      1   0   0     1.817593168635     0.00000000     0.00000000
 H      1   2   0     1.880998097508   106.21731035     0.00000000
 O      1   2   3     5.438854734852   126.72240291   103.59081140
 H      4   1   2     1.837072300170    99.37069922   136.92500856
 H      4   1   2     1.840687952699    12.30570018    24.40947955
 O      5   4   1     6.691830416388   107.84672602    83.70571148
 H      7   5   4     1.838033029106    72.17296994    29.09453504
 H      7   5   4     1.858263389967    33.04029707   190.88793319
 O      7   5   4     5.216324962960    93.15949665   286.74623630
 H     10   7   5     1.838033029106   105.22009255   219.29662971
 H     10   7   5     1.858263389967     5.92595386   143.65078242
 O      9   7   5     3.373451738406   170.81379649    88.00403199
 H     13   9   7     1.838033029106   101.65007623   109.44492584
 H     13   9   7     1.858263389967    99.09581498     3.33484705
 O      3   1   2     3.179192625819   171.61043709   164.26103839
 H     16   3   1     1.837072300170   103.79460456    70.64587838
 H     16   3   1     1.840687952699   105.61118924   321.69395179
 O      7   5   4     5.380483365242   126.48630953   195.00328214
 H     19   7   5     1.837072300170    19.08819947   226.21746260
 H     19   7   5     1.840687952699    93.43428486   350.31374249

---------------------
BASIS SET INFORMATION
---------------------
There are 2 groups of distinct atoms

 Group   1 Type O   : 11s6p2d1f contracted to 5s3p2d1f pattern {62111/411/11/1}
 Group   2 Type H   : 5s1p contracted to 3s1p pattern {311/1}

Atom   0O    basis set group =>   1
Atom   1H    basis set group =>   2
Atom   2H    basis set group =>   2
Atom   3O    basis set group =>   1
Atom   4H    basis set group =>   2
Atom   5H    basis set group =>   2
Atom   6O    basis set group =>   1
Atom   7H    basis set group =>   2
Atom   8H    basis set group =>   2
Atom   9O    basis set group =>   1
Atom  10H    basis set group =>   2
Atom  11H    basis set group =>   2
Atom  12O    basis set group =>   1
Atom  13H    basis set group =>   2
Atom  14H    basis set group =>   2
Atom  15O    basis set group =>   1
Atom  16H    basis set group =>   2
Atom  17H    basis set group =>   2
Atom  18O    basis set group =>   1
Atom  19H    basis set group =>   2
Atom  20H    basis set group =>   2


           ************************************************************
           *        Program running with 6 parallel MPI-processes     *
           *              working on a common directory               *
           ************************************************************
------------------------------------------------------------------------------
                           ORCA GTO INTEGRAL CALCULATION
------------------------------------------------------------------------------

                         BASIS SET STATISTICS AND STARTUP INFO

 # of primitive gaussian shells          ...  224
 # of primitive gaussian functions       ...  434
 # of contracted shells                  ...  133
 # of contracted basis functions         ...  301
 Highest angular momentum                ...    3
 Maximum contraction depth               ...    6
 Integral package used                   ... LIBINT
 Integral threshhold            Thresh   ...  2.500e-11
 Primitive cut-off              TCut     ...  2.500e-12


------------------------------ INTEGRAL EVALUATION ----------------------------


 * One electron integrals 
 Pre-screening matrix                    ... done
 Shell pair data                         ... done (   0.002 sec)



           ************************************************************
           *        Program running with 6 parallel MPI-processes     *
           *              working on a common directory               *
           ************************************************************
-------------------------------------------------------------------------------
                                 ORCA SCF
-------------------------------------------------------------------------------

------------
SCF SETTINGS
------------
Hamiltonian:
 Ab initio Hamiltonian  Method          .... Hartree-Fock(GTOs)


General Settings:
 Integral files         IntName         .... 12h2o.su.etal.mol2,3,4,6,7,8,11-orca.engrad-mp2.def2tzvp.frozencore
 Hartree-Fock type      HFTyp           .... RHF
 Total Charge           Charge          ....    0
 Multiplicity           Mult            ....    1
 Number of Electrons    NEL             ....   70
 Basis Dimension        Dim             ....  301
 Nuclear Repulsion      ENuc            ....    363.3187827045 Eh

Convergence Acceleration:
 DIIS                   CNVDIIS         .... on
   Start iteration      DIISMaxIt       ....    12
   Startup error        DIISStart       ....  0.200000
   # of expansion vecs  DIISMaxEq       ....     5
   Bias factor          DIISBfac        ....   1.050
   Max. coefficient     DIISMaxC        ....  10.000
 Newton-Raphson         CNVNR           .... off
 SOSCF                  CNVSOSCF        .... on
   Start iteration      SOSCFMaxIt      ....   150
   Startup grad/error   SOSCFStart      ....  0.003300
 Level Shifting         CNVShift        .... on
   Level shift para.    LevelShift      ....    0.2500
   Turn off err/grad.   ShiftErr        ....    0.0010
 Zerner damping         CNVZerner       .... off
 Static damping         CNVDamp         .... on
   Fraction old density DampFac         ....    0.7000
   Max. Damping (<1)    DampMax         ....    0.9800
   Min. Damping (>=0)   DampMin         ....    0.0000
   Turn off err/grad.   DampErr         ....    0.1000
 Fernandez-Rico         CNVRico         .... off

SCF Procedure:
 Maximum # iterations   MaxIter         ....   125
 SCF integral mode      SCFMode         .... Direct
   Integral package                     .... LIBINT
 Reset frequency        DirectResetFreq ....    20
 Integral Threshold     Thresh          ....  2.500e-11 Eh
 Primitive CutOff       TCut            ....  2.500e-12 Eh

Convergence Tolerance:
 Convergence Check Mode ConvCheckMode   .... Total+1el-Energy
 Convergence forced     ConvForced      .... 1
 Energy Change          TolE            ....  1.000e-08 Eh
 1-El. energy change                    ....  1.000e-05 Eh
 Orbital Gradient       TolG            ....  1.000e-05
 Orbital Rotation angle TolX            ....  1.000e-05
 DIIS Error             TolErr          ....  5.000e-07


Diagonalization of the overlap matrix:
Smallest eigenvalue                        ... 3.318e-03
Time for diagonalization                   ...    0.013 sec
Threshold for overlap eigenvalues          ... 1.000e-08
Number of eigenvalues below threshold      ... 0
Time for construction of square roots      ...    0.006 sec
Total time needed                          ...    0.020 sec

-------------------
DFT GRID GENERATION
-------------------

General Integration Accuracy     IntAcc      ...  4.340
Radial Grid Type                 RadialGrid  ... Gauss-Chebyshev
Angular Grid (max. acc.)         AngularGrid ... Lebedev-110
Angular grid pruning method      GridPruning ... 3 (G Style)
Weight generation scheme         WeightScheme... Becke
Basis function cutoff            BFCut       ...    1.0000e-11
Integration weight cutoff        WCut        ...    1.0000e-14
Grids for H and He will be reduced by one unit

# of grid points (after initial pruning)     ...  23128 (   0.0 sec)
# of grid points (after weights+screening)   ...  21625 (   0.0 sec)
nearest neighbour list constructed           ...    0.0 sec
Grid point re-assignment to atoms done       ...    0.0 sec
Grid point division into batches done        ...    0.0 sec
Reduced shell lists constructed in    0.0 sec

Total number of grid points                  ...    21625
Total number of batches                      ...      348
Average number of points per batch           ...       62
Average number of grid points per atom       ...     1030
Average number of shells per batch           ...    63.76 (47.94%)
Average number of basis functions per batch  ...   129.29 (42.95%)
Average number of large shells per batch     ...    44.59 (69.94%)
Average number of large basis fcns per batch ...    88.25 (68.26%)
Maximum spatial batch extension              ...  16.41, 16.27, 15.23 au
Average spatial batch extension              ...   0.66,  0.57,  0.60 au

Time for grid setup =    0.075 sec

------------------------------
INITIAL GUESS: MODEL POTENTIAL
------------------------------
Loading Hartree-Fock densities                     ... done
Calculating cut-offs                               ... done
Setting up the integral package                    ... done
Initializing the effective Hamiltonian             ... done
Starting the Coulomb interaction                   ... done (   0.0 sec)
Reading the grid                                   ... done
Mapping shells                                     ... done
Starting the XC term evaluation                    ... done (   0.0 sec)
Transforming the Hamiltonian                       ... done (   0.0 sec)
Diagonalizing the Hamiltonian                      ... done (   0.0 sec)
Back transforming the eigenvectors                 ... done (   0.0 sec)
Now organizing SCF variables                       ... done
                      ------------------
                      INITIAL GUESS DONE (   0.2 sec)
                      ------------------
--------------
SCF ITERATIONS
--------------
ITER       Energy         Delta-E        Max-DP      RMS-DP      [F,P]     Damp
               ***  Starting incremental Fock matrix formation  ***
  0   -531.8299328625   0.000000000000 0.04379904  0.00089434  0.3456859 0.7000
  1   -532.0696360648  -0.239703202344 0.02903661  0.00062038  0.2169858 0.7000
                               ***Turning on DIIS***
  2   -532.1968077584  -0.127171693611 0.01651042  0.00034744  0.1636912 0.7000
  3   -533.3437086674  -1.146900908957 0.00719200  0.00015989  0.1218575 0.7000
  4   -533.1103442473   0.233364420129 0.01557491  0.00037027  0.0861610 0.0000
  5   -532.4875368530   0.622807394272 0.00217617  0.00005921  0.0053968 0.0000
                      *** Initiating the SOSCF procedure ***
                           *** Shutting down DIIS ***
                      *** Re-Reading the Fockian *** 
                      *** Removing any level shift *** 
ITER      Energy       Delta-E        Grad      Rot      Max-DP    RMS-DP
  6   -532.45214097   0.0353958858  0.000770  0.000770  0.001368  0.000036
               *** Restarting incremental Fock matrix formation ***
  7   -532.44265371   0.0094872599  0.000246  0.000389  0.000634  0.000016
  8   -532.44266371  -0.0000100026  0.000112  0.000324  0.000474  0.000013
  9   -532.44266610  -0.0000023887  0.000068  0.000041  0.000096  0.000002
 10   -532.44266630  -0.0000001997  0.000011  0.000007  0.000019  0.000000
                  ***Gradient check signals convergence***
              ***Rediagonalizing the Fockian in SOSCF/NRSCF***

               *****************************************************
               *                     SUCCESS                       *
               *           SCF CONVERGED AFTER  11 CYCLES          *
               *****************************************************


----------------
TOTAL SCF ENERGY
----------------

Total Energy       :         -532.44266630 Eh          -14488.50153 eV

Components:
Nuclear Repulsion  :          363.31878270 Eh            9886.40669 eV
Electronic Energy  :         -895.76144901 Eh          -24374.90822 eV
One Electron Energy:        -1458.90328195 Eh          -39698.77655 eV
Two Electron Energy:          563.14183294 Eh           15323.86832 eV

Virial components:
Potential Energy   :        -1064.20345353 Eh          -28958.44819 eV
Kinetic Energy     :          531.76078722 Eh           14469.94666 eV
Virial Ratio       :            2.00128230


---------------
SCF CONVERGENCE
---------------

  Last Energy change         ...   -5.8255e-09  Tolerance :   1.0000e-08
  Last MAX-Density change    ...    6.3146e-06  Tolerance :   1.0000e-07
  Last RMS-Density change    ...    1.3235e-07  Tolerance :   5.0000e-09
  Last Orbital Gradient      ...    2.3546e-06  Tolerance :   1.0000e-05
  Last Orbital Rotation      ...    2.5700e-06  Tolerance :   1.0000e-05

             **** THE GBW FILE WAS UPDATED (12h2o.su.etal.mol2,3,4,6,7,8,11-orca.engrad-mp2.def2tzvp.frozencore.gbw) ****
             **** DENSITY FILE WAS UPDATED (12h2o.su.etal.mol2,3,4,6,7,8,11-orca.engrad-mp2.def2tzvp.frozencore.scfp) ****
             **** ENERGY FILE WAS UPDATED (12h2o.su.etal.mol2,3,4,6,7,8,11-orca.engrad-mp2.def2tzvp.frozencore.en.tmp) ****
             **** THE GBW FILE WAS UPDATED (12h2o.su.etal.mol2,3,4,6,7,8,11-orca.engrad-mp2.def2tzvp.frozencore.gbw) ****
             **** DENSITY FILE WAS UPDATED (12h2o.su.etal.mol2,3,4,6,7,8,11-orca.engrad-mp2.def2tzvp.frozencore.scfp) ****
----------------
ORBITAL ENERGIES
----------------

  NO   OCC          E(Eh)            E(eV) 
   0   2.0000     -20.630668      -561.3890 
   1   2.0000     -20.600102      -560.5573 
   2   2.0000     -20.572861      -559.8160 
   3   2.0000     -20.564843      -559.5978 
   4   2.0000     -20.556917      -559.3822 
   5   2.0000     -20.540897      -558.9462 
   6   2.0000     -20.520516      -558.3916 
   7   2.0000      -1.414913       -38.5017 
   8   2.0000      -1.387365       -37.7521 
   9   2.0000      -1.364073       -37.1183 
  10   2.0000      -1.345677       -36.6177 
  11   2.0000      -1.338457       -36.4213 
  12   2.0000      -1.324793       -36.0494 
  13   2.0000      -1.304655       -35.5015 
  14   2.0000      -0.770544       -20.9676 
  15   2.0000      -0.756447       -20.5840 
  16   2.0000      -0.727642       -19.8001 
  17   2.0000      -0.717056       -19.5121 
  18   2.0000      -0.709090       -19.2953 
  19   2.0000      -0.708139       -19.2695 
  20   2.0000      -0.688578       -18.7372 
  21   2.0000      -0.651638       -17.7320 
  22   2.0000      -0.631183       -17.1754 
  23   2.0000      -0.616170       -16.7668 
  24   2.0000      -0.592364       -16.1191 
  25   2.0000      -0.577333       -15.7100 
  26   2.0000      -0.570963       -15.5367 
  27   2.0000      -0.560699       -15.2574 
  28   2.0000      -0.541201       -14.7268 
  29   2.0000      -0.537712       -14.6319 
  30   2.0000      -0.515872       -14.0376 
  31   2.0000      -0.508335       -13.8325 
  32   2.0000      -0.502831       -13.6827 
  33   2.0000      -0.489259       -13.3134 
  34   2.0000      -0.470166       -12.7939 
  35   0.0000       0.072422         1.9707 
  36   0.0000       0.111588         3.0365 
  37   0.0000       0.146353         3.9825 
  38   0.0000       0.152185         4.1412 
  39   0.0000       0.168869         4.5952 
  40   0.0000       0.194311         5.2875 
  41   0.0000       0.208750         5.6804 
  42   0.0000       0.237348         6.4586 
  43   0.0000       0.254886         6.9358 
  44   0.0000       0.270042         7.3482 
  45   0.0000       0.306684         8.3453 
  46   0.0000       0.319682         8.6990 
  47   0.0000       0.323849         8.8124 
  48   0.0000       0.349470         9.5096 
  49   0.0000       0.418872        11.3981 
  50   0.0000       0.448307        12.1991 
  51   0.0000       0.472007        12.8440 
  52   0.0000       0.484205        13.1759 
  53   0.0000       0.505308        13.7501 
  54   0.0000       0.519304        14.1310 
  55   0.0000       0.528899        14.3921 
  56   0.0000       0.534725        14.5506 
  57   0.0000       0.540287        14.7019 
  58   0.0000       0.558020        15.1845 
  59   0.0000       0.576114        15.6768 
  60   0.0000       0.585269        15.9260 
  61   0.0000       0.600420        16.3383 
  62   0.0000       0.603049        16.4098 
  63   0.0000       0.611566        16.6415 
  64   0.0000       0.616643        16.7797 
  65   0.0000       0.629153        17.1201 
  66   0.0000       0.635457        17.2917 
  67   0.0000       0.667894        18.1743 
  68   0.0000       0.670797        18.2533 
  69   0.0000       0.681946        18.5567 
  70   0.0000       0.702222        19.1084 
  71   0.0000       0.726293        19.7634 
  72   0.0000       0.732079        19.9209 
  73   0.0000       0.756535        20.5864 
  74   0.0000       0.761650        20.7255 
  75   0.0000       0.777168        21.1478 
  76   0.0000       0.782458        21.2918 
  77   0.0000       0.793859        21.6020 
  78   0.0000       0.809891        22.0382 
  79   0.0000       0.828069        22.5329 
  80   0.0000       0.841174        22.8895 
  81   0.0000       0.860186        23.4068 
  82   0.0000       0.881830        23.9958 
  83   0.0000       0.905501        24.6399 
  84   0.0000       0.948779        25.8176 
  85   0.0000       0.971688        26.4410 
  86   0.0000       0.979569        26.6554 
  87   0.0000       1.029458        28.0130 
  88   0.0000       1.055728        28.7278 
  89   0.0000       1.065074        28.9821 
  90   0.0000       1.100190        29.9377 
  91   0.0000       1.325363        36.0650 
  92   0.0000       1.359215        36.9861 
  93   0.0000       1.378306        37.5056 
  94   0.0000       1.381538        37.5936 
  95   0.0000       1.397912        38.0391 
  96   0.0000       1.409033        38.3417 
  97   0.0000       1.432894        38.9910 
  98   0.0000       1.441580        39.2274 
  99   0.0000       1.442113        39.2419 
 100   0.0000       1.472456        40.0676 
 101   0.0000       1.481668        40.3182 
 102   0.0000       1.486717        40.4556 
 103   0.0000       1.511156        41.1207 
 104   0.0000       1.530727        41.6532 
 105   0.0000       1.547649        42.1137 
 106   0.0000       1.570035        42.7228 
 107   0.0000       1.581616        43.0380 
 108   0.0000       1.595872        43.4259 
 109   0.0000       1.604959        43.6732 
 110   0.0000       1.638662        44.5903 
 111   0.0000       1.647523        44.8314 
 112   0.0000       1.780291        48.4442 
 113   0.0000       1.797677        48.9173 
 114   0.0000       1.823452        49.6187 
 115   0.0000       1.828610        49.7590 
 116   0.0000       1.841535        50.1107 
 117   0.0000       1.860825        50.6356 
 118   0.0000       1.908216        51.9252 
 119   0.0000       1.935243        52.6606 
 120   0.0000       1.937371        52.7185 
 121   0.0000       1.954747        53.1914 
 122   0.0000       1.963401        53.4269 
 123   0.0000       1.982274        53.9404 
 124   0.0000       2.009993        54.6947 
 125   0.0000       2.037860        55.4530 
 126   0.0000       2.041985        55.5652 
 127   0.0000       2.071257        56.3618 
 128   0.0000       2.102881        57.2223 
 129   0.0000       2.114519        57.5390 
 130   0.0000       2.131603        58.0039 
 131   0.0000       2.181972        59.3745 
 132   0.0000       2.183964        59.4287 
 133   0.0000       2.254201        61.3399 
 134   0.0000       2.263767        61.6002 
 135   0.0000       2.278336        61.9967 
 136   0.0000       2.286658        62.2231 
 137   0.0000       2.315042        62.9955 
 138   0.0000       2.321602        63.1740 
 139   0.0000       2.324889        63.2635 
 140   0.0000       2.343352        63.7659 
 141   0.0000       2.350726        63.9665 
 142   0.0000       2.363114        64.3036 
 143   0.0000       2.372631        64.5626 
 144   0.0000       2.385678        64.9176 
 145   0.0000       2.407198        65.5032 
 146   0.0000       2.421159        65.8831 
 147   0.0000       2.439390        66.3792 
 148   0.0000       2.446871        66.5828 
 149   0.0000       2.462955        67.0204 
 150   0.0000       2.495011        67.8927 
 151   0.0000       2.532195        68.9045 
 152   0.0000       2.569955        69.9320 
 153   0.0000       2.589095        70.4528 
 154   0.0000       2.597405        70.6790 
 155   0.0000       2.605234        70.8920 
 156   0.0000       2.613581        71.1192 
 157   0.0000       2.621106        71.3239 
 158   0.0000       2.628984        71.5383 
 159   0.0000       2.649411        72.0941 
 160   0.0000       2.657213        72.3064 
 161   0.0000       2.685411        73.0737 
 162   0.0000       2.687561        73.1322 
 163   0.0000       2.714988        73.8786 
 164   0.0000       2.727511        74.2194 
 165   0.0000       2.744116        74.6712 
 166   0.0000       2.761621        75.1475 
 167   0.0000       2.821346        76.7727 
 168   0.0000       2.889697        78.6326 
 169   0.0000       2.895461        78.7895 
 170   0.0000       2.913701        79.2858 
 171   0.0000       2.937988        79.9467 
 172   0.0000       2.958816        80.5135 
 173   0.0000       2.976231        80.9874 
 174   0.0000       2.988776        81.3287 
 175   0.0000       2.998392        81.5904 
 176   0.0000       3.014910        82.0399 
 177   0.0000       3.025519        82.3286 
 178   0.0000       3.052508        83.0630 
 179   0.0000       3.060320        83.2755 
 180   0.0000       3.075866        83.6986 
 181   0.0000       3.089579        84.0717 
 182   0.0000       3.119192        84.8775 
 183   0.0000       3.137529        85.3765 
 184   0.0000       3.156662        85.8971 
 185   0.0000       3.193665        86.9040 
 186   0.0000       3.222773        87.6961 
 187   0.0000       3.235087        88.0312 
 188   0.0000       3.251987        88.4911 
 189   0.0000       3.280015        89.2537 
 190   0.0000       3.290536        89.5400 
 191   0.0000       3.303004        89.8793 
 192   0.0000       3.358363        91.3857 
 193   0.0000       3.404620        92.6444 
 194   0.0000       3.474335        94.5415 
 195   0.0000       3.518809        95.7517 
 196   0.0000       3.985728       108.4572 
 197   0.0000       4.035926       109.8231 
 198   0.0000       4.048129       110.1552 
 199   0.0000       4.070101       110.7531 
 200   0.0000       4.094973       111.4299 
 201   0.0000       4.108097       111.7870 
 202   0.0000       4.132379       112.4477 
 203   0.0000       4.243174       115.4626 
 204   0.0000       4.302049       117.0647 
 205   0.0000       4.308456       117.2390 
 206   0.0000       4.320813       117.5753 
 207   0.0000       4.345198       118.2389 
 208   0.0000       4.360929       118.6669 
 209   0.0000       4.398261       119.6828 
 210   0.0000       5.478459       149.0764 
 211   0.0000       5.502608       149.7336 
 212   0.0000       5.531742       150.5264 
 213   0.0000       5.541351       150.7878 
 214   0.0000       5.551462       151.0630 
 215   0.0000       5.561894       151.3468 
 216   0.0000       5.583130       151.9247 
 217   0.0000       5.604501       152.5062 
 218   0.0000       5.631746       153.2476 
 219   0.0000       5.650161       153.7487 
 220   0.0000       5.656804       153.9295 
 221   0.0000       5.659018       153.9897 
 222   0.0000       5.681100       154.5906 
 223   0.0000       5.689594       154.8217 
 224   0.0000       5.753012       156.5474 
 225   0.0000       5.781320       157.3177 
 226   0.0000       5.789384       157.5371 
 227   0.0000       5.809897       158.0953 
 228   0.0000       5.812181       158.1575 
 229   0.0000       5.818385       158.3263 
 230   0.0000       5.822493       158.4381 
 231   0.0000       5.830255       158.6493 
 232   0.0000       5.834538       158.7659 
 233   0.0000       5.848478       159.1452 
 234   0.0000       5.851944       159.2395 
 235   0.0000       5.856927       159.3751 
 236   0.0000       5.870646       159.7484 
 237   0.0000       5.876604       159.9105 
 238   0.0000       5.885191       160.1442 
 239   0.0000       5.891853       160.3255 
 240   0.0000       5.892848       160.3526 
 241   0.0000       5.906829       160.7330 
 242   0.0000       5.917776       161.0309 
 243   0.0000       5.938279       161.5888 
 244   0.0000       5.947989       161.8530 
 245   0.0000       6.405014       174.2893 
 246   0.0000       6.432958       175.0497 
 247   0.0000       6.462089       175.8424 
 248   0.0000       6.479816       176.3248 
 249   0.0000       6.491999       176.6563 
 250   0.0000       6.497619       176.8092 
 251   0.0000       6.527585       177.6246 
 252   0.0000       6.624558       180.2634 
 253   0.0000       6.671452       181.5394 
 254   0.0000       6.682343       181.8358 
 255   0.0000       6.699218       182.2950 
 256   0.0000       6.724720       182.9889 
 257   0.0000       6.744405       183.5246 
 258   0.0000       6.757011       183.8676 
 259   0.0000       6.816806       185.4947 
 260   0.0000       6.828398       185.8102 
 261   0.0000       6.837851       186.0674 
 262   0.0000       6.844634       186.2520 
 263   0.0000       6.851693       186.4441 
 264   0.0000       6.859191       186.6481 
 265   0.0000       6.874660       187.0690 
 266   0.0000       6.883233       187.3023 
 267   0.0000       6.898668       187.7223 
 268   0.0000       6.907718       187.9686 
 269   0.0000       6.916079       188.1961 
 270   0.0000       6.922121       188.3605 
 271   0.0000       6.934034       188.6846 
 272   0.0000       6.958238       189.3433 
 273   0.0000       6.965764       189.5481 
 274   0.0000       6.988126       190.1566 
 275   0.0000       6.991906       190.2594 
 276   0.0000       7.001859       190.5303 
 277   0.0000       7.004530       190.6030 
 278   0.0000       7.048242       191.7924 
 279   0.0000       7.090997       192.9558 
 280   0.0000       7.322083       199.2440 
 281   0.0000       7.372247       200.6090 
 282   0.0000       7.377775       200.7595 
 283   0.0000       7.397236       201.2890 
 284   0.0000       7.440452       202.4650 
 285   0.0000       7.461957       203.0502 
 286   0.0000       7.490290       203.8211 
 287   0.0000       7.505678       204.2399 
 288   0.0000       7.534824       205.0330 
 289   0.0000       7.544418       205.2941 
 290   0.0000       7.550580       205.4617 
 291   0.0000       7.575131       206.1298 
 292   0.0000       7.585829       206.4209 
 293   0.0000       7.617958       207.2952 
 294   0.0000      44.906636      1221.9717 
 295   0.0000      44.935652      1222.7613 
 296   0.0000      44.980717      1223.9875 
 297   0.0000      44.989111      1224.2159 
 298   0.0000      45.008239      1224.7364 
 299   0.0000      45.024166      1225.1699 
 300   0.0000      45.061523      1226.1864 

                    ********************************
                    * MULLIKEN POPULATION ANALYSIS *
                    ********************************

-----------------------
MULLIKEN ATOMIC CHARGES
-----------------------
   0 O :   -0.778802
   1 H :    0.348040
   2 H :    0.412841
   3 O :   -0.761720
   4 H :    0.371371
   5 H :    0.376966
   6 O :   -0.772815
   7 H :    0.374963
   8 H :    0.397053
   9 O :   -0.766286
  10 H :    0.363335
  11 H :    0.382743
  12 O :   -0.746240
  13 H :    0.371529
  14 H :    0.398857
  15 O :   -0.733081
  16 H :    0.408895
  17 H :    0.352137
  18 O :   -0.708739
  19 H :    0.389349
  20 H :    0.319605
Sum of atomic charges:   -0.0000000

--------------------------------
MULLIKEN REDUCED ORBITAL CHARGES
--------------------------------
  0 O s       :     3.806325  s :     3.806325
      pz      :     1.731077  p :     4.948368
      px      :     1.783910
      py      :     1.433381
      dz2     :     0.003973  d :     0.022682
      dxz     :     0.005140
      dyz     :     0.004810
      dx2y2   :     0.002289
      dxy     :     0.006470
      f0      :     0.000089  f :     0.001428
      f+1     :     0.000178
      f-1     :     0.000332
      f+2     :     0.000062
      f-2     :     0.000357
      f+3     :     0.000329
      f-3     :     0.000082
  1 H s       :     0.606208  s :     0.606208
      pz      :     0.017110  p :     0.045751
      px      :     0.014955
      py      :     0.013686
  2 H s       :     0.531115  s :     0.531115
      pz      :     0.010420  p :     0.056044
      px      :     0.013135
      py      :     0.032489
  3 O s       :     3.806832  s :     3.806832
      pz      :     1.534130  p :     4.928767
      px      :     1.572857
      py      :     1.821780
      dz2     :     0.011608  d :     0.024686
      dxz     :     0.001287
      dyz     :     0.002860
      dx2y2   :     0.001966
      dxy     :     0.006965
      f0      :     0.000257  f :     0.001435
      f+1     :     0.000370
      f-1     :     0.000160
      f+2     :     0.000055
      f-2     :     0.000054
      f+3     :     0.000062
      f-3     :     0.000477
  4 H s       :     0.580095  s :     0.580095
      pz      :     0.023289  p :     0.048534
      px      :     0.011838
      py      :     0.013407
  5 H s       :     0.572531  s :     0.572531
      pz      :     0.009982  p :     0.050503
      px      :     0.024140
      py      :     0.016381
  6 O s       :     3.802174  s :     3.802174
      pz      :     1.570050  p :     4.946065
      px      :     1.849774
      py      :     1.526241
      dz2     :     0.010776  d :     0.023207
      dxz     :     0.002004
      dyz     :     0.002594
      dx2y2   :     0.003205
      dxy     :     0.004628
      f0      :     0.000188  f :     0.001368
      f+1     :     0.000112
      f-1     :     0.000448
      f+2     :     0.000068
      f-2     :     0.000037
      f+3     :     0.000417
      f-3     :     0.000098
  7 H s       :     0.581204  s :     0.581204
      pz      :     0.018995  p :     0.043833
      px      :     0.013202
      py      :     0.011636
  8 H s       :     0.550697  s :     0.550697
      pz      :     0.008697  p :     0.052250
      px      :     0.014479
      py      :     0.029074
  9 O s       :     3.808803  s :     3.808803
      pz      :     1.549016  p :     4.933070
      px      :     1.505687
      py      :     1.878367
      dz2     :     0.010188  d :     0.022960
      dxz     :     0.002491
      dyz     :     0.002273
      dx2y2   :     0.002907
      dxy     :     0.005101
      f0      :     0.000207  f :     0.001452
      f+1     :     0.000437
      f-1     :     0.000124
      f+2     :     0.000079
      f-2     :     0.000037
      f+3     :     0.000118
      f-3     :     0.000451
 10 H s       :     0.591980  s :     0.591980
      pz      :     0.018705  p :     0.044685
      px      :     0.012056
      py      :     0.013925
 11 H s       :     0.563612  s :     0.563612
      pz      :     0.009068  p :     0.053646
      px      :     0.028798
      py      :     0.015780
 12 O s       :     3.807304  s :     3.807304
      pz      :     1.567482  p :     4.912474
      px      :     1.494789
      py      :     1.850203
      dz2     :     0.011500  d :     0.025042
      dxz     :     0.002793
      dyz     :     0.002200
      dx2y2   :     0.003589
      dxy     :     0.004961
      f0      :     0.000184  f :     0.001420
      f+1     :     0.000457
      f-1     :     0.000116
      f+2     :     0.000068
      f-2     :     0.000038
      f+3     :     0.000106
      f-3     :     0.000452
 13 H s       :     0.584647  s :     0.584647
      pz      :     0.019135  p :     0.043824
      px      :     0.011416
      py      :     0.013273
 14 H s       :     0.559948  s :     0.559948
      pz      :     0.008814  p :     0.041195
      px      :     0.018946
      py      :     0.013435
 15 O s       :     3.797703  s :     3.797703
      pz      :     1.580884  p :     4.909031
      px      :     1.544007
      py      :     1.784140
      dz2     :     0.011868  d :     0.024951
      dxz     :     0.001176
      dyz     :     0.002357
      dx2y2   :     0.002456
      dxy     :     0.007095
      f0      :     0.000225  f :     0.001395
      f+1     :     0.000382
      f-1     :     0.000155
      f+2     :     0.000050
      f-2     :     0.000055
      f+3     :     0.000052
      f-3     :     0.000476
 16 H s       :     0.543377  s :     0.543377
      pz      :     0.025176  p :     0.047728
      px      :     0.010926
      py      :     0.011626
 17 H s       :     0.603988  s :     0.603988
      pz      :     0.010682  p :     0.043875
      px      :     0.018311
      py      :     0.014882
 18 O s       :     3.811796  s :     3.811796
      pz      :     1.553268  p :     4.869616
      px      :     1.810366
      py      :     1.505981
      dz2     :     0.011803  d :     0.025833
      dxz     :     0.003049
      dyz     :     0.001235
      dx2y2   :     0.002194
      dxy     :     0.007552
      f0      :     0.000249  f :     0.001494
      f+1     :     0.000168
      f-1     :     0.000374
      f+2     :     0.000056
      f-2     :     0.000056
      f+3     :     0.000522
      f-3     :     0.000071
 19 H s       :     0.561847  s :     0.561847
      pz      :     0.024164  p :     0.048803
      px      :     0.013024
      py      :     0.011616
 20 H s       :     0.635083  s :     0.635083
      pz      :     0.011250  p :     0.045312
      px      :     0.016079
      py      :     0.017984


                     *******************************
                     * LOEWDIN POPULATION ANALYSIS *
                     *******************************

----------------------
LOEWDIN ATOMIC CHARGES
----------------------
   0 O :   -0.350348
   1 H :    0.154214
   2 H :    0.156435
   3 O :   -0.359670
   4 H :    0.148485
   5 H :    0.151218
   6 O :   -0.304916
   7 H :    0.172995
   8 H :    0.155928
   9 O :   -0.346682
  10 H :    0.169683
  11 H :    0.150410
  12 O :   -0.284529
  13 H :    0.173456
  14 H :    0.191978
  15 O :   -0.286244
  16 H :    0.166366
  17 H :    0.166900
  18 O :   -0.336550
  19 H :    0.157122
  20 H :    0.153749

-------------------------------
LOEWDIN REDUCED ORBITAL CHARGES
-------------------------------
  0 O s       :     3.460470  s :     3.460470
      pz      :     1.709898  p :     4.859220
      px      :     1.747037
      py      :     1.402286
      dz2     :     0.004296  d :     0.028690
      dxz     :     0.005284
      dyz     :     0.007025
      dx2y2   :     0.003673
      dxy     :     0.008411
      f0      :     0.000074  f :     0.001968
      f+1     :     0.000264
      f-1     :     0.000436
      f+2     :     0.000031
      f-2     :     0.000622
      f+3     :     0.000458
      f-3     :     0.000083
  1 H s       :     0.680905  s :     0.680905
      pz      :     0.065807  p :     0.164882
      px      :     0.053092
      py      :     0.045983
  2 H s       :     0.647317  s :     0.647317
      pz      :     0.033290  p :     0.196248
      px      :     0.047442
      py      :     0.115517
  3 O s       :     3.460755  s :     3.460755
      pz      :     1.524114  p :     4.866800
      px      :     1.549659
      py      :     1.793027
      dz2     :     0.015270  d :     0.030089
      dxz     :     0.002070
      dyz     :     0.002251
      dx2y2   :     0.002013
      dxy     :     0.008485
      f0      :     0.000468  f :     0.002026
      f+1     :     0.000546
      f-1     :     0.000304
      f+2     :     0.000022
      f-2     :     0.000048
      f+3     :     0.000002
      f-3     :     0.000636
  4 H s       :     0.682071  s :     0.682071
      pz      :     0.089422  p :     0.169445
      px      :     0.037287
      py      :     0.042736
  5 H s       :     0.673362  s :     0.673362
      pz      :     0.030658  p :     0.175420
      px      :     0.086771
      py      :     0.057991
  6 O s       :     3.454953  s :     3.454953
      pz      :     1.536957  p :     4.817864
      px      :     1.790799
      py      :     1.490108
      dz2     :     0.014725  d :     0.030116
      dxz     :     0.001272
      dyz     :     0.003895
      dx2y2   :     0.004636
      dxy     :     0.005588
      f0      :     0.000375  f :     0.001984
      f+1     :     0.000193
      f-1     :     0.000731
      f+2     :     0.000039
      f-2     :     0.000045
      f+3     :     0.000535
      f-3     :     0.000065
  7 H s       :     0.666924  s :     0.666924
      pz      :     0.080175  p :     0.160080
      px      :     0.042971
      py      :     0.036934
  8 H s       :     0.657651  s :     0.657651
      pz      :     0.029201  p :     0.186421
      px      :     0.052524
      py      :     0.104696
  9 O s       :     3.461504  s :     3.461504
      pz      :     1.530012  p :     4.853651
      px      :     1.483839
      py      :     1.839800
      dz2     :     0.014212  d :     0.029513
      dxz     :     0.003971
      dyz     :     0.001563
      dx2y2   :     0.003732
      dxy     :     0.006035
      f0      :     0.000396  f :     0.002014
      f+1     :     0.000725
      f-1     :     0.000186
      f+2     :     0.000046
      f-2     :     0.000045
      f+3     :     0.000066
      f-3     :     0.000551
 10 H s       :     0.671415  s :     0.671415
      pz      :     0.079459  p :     0.158902
      px      :     0.036529
      py      :     0.042914
 11 H s       :     0.663740  s :     0.663740
      pz      :     0.029262  p :     0.185849
      px      :     0.103825
      py      :     0.052762
 12 O s       :     3.462444  s :     3.462444
      pz      :     1.535999  p :     4.787314
      px      :     1.464437
      py      :     1.786879
      dz2     :     0.016015  d :     0.032710
      dxz     :     0.004113
      dyz     :     0.001393
      dx2y2   :     0.005097
      dxy     :     0.006093
      f0      :     0.000376  f :     0.002061
      f+1     :     0.000738
      f-1     :     0.000204
      f+2     :     0.000040
      f-2     :     0.000046
      f+3     :     0.000070
      f-3     :     0.000587
 13 H s       :     0.667529  s :     0.667529
      pz      :     0.080474  p :     0.159015
      px      :     0.035805
      py      :     0.042736
 14 H s       :     0.652867  s :     0.652867
      pz      :     0.028941  p :     0.155155
      px      :     0.077168
      py      :     0.049046
 15 O s       :     3.452534  s :     3.452534
      pz      :     1.547866  p :     4.799841
      px      :     1.527778
      py      :     1.724197
      dz2     :     0.015178  d :     0.031765
      dxz     :     0.001684
      dyz     :     0.001782
      dx2y2   :     0.003734
      dxy     :     0.009386
      f0      :     0.000398  f :     0.002105
      f+1     :     0.000557
      f-1     :     0.000333
      f+2     :     0.000020
      f-2     :     0.000046
      f+3     :     0.000026
      f-3     :     0.000724
 16 H s       :     0.661376  s :     0.661376
      pz      :     0.095395  p :     0.172257
      px      :     0.035811
      py      :     0.041051
 17 H s       :     0.674799  s :     0.674799
      pz      :     0.031437  p :     0.158301
      px      :     0.072009
      py      :     0.054855
 18 O s       :     3.468277  s :     3.468277
      pz      :     1.534775  p :     4.833340
      px      :     1.784530
      py      :     1.514035
      dz2     :     0.015644  d :     0.032773
      dxz     :     0.002360
      dyz     :     0.001826
      dx2y2   :     0.002528
      dxy     :     0.010415
      f0      :     0.000439  f :     0.002160
      f+1     :     0.000320
      f-1     :     0.000568
      f+2     :     0.000024
      f-2     :     0.000044
      f+3     :     0.000761
      f-3     :     0.000003
 19 H s       :     0.672640  s :     0.672640
      pz      :     0.092626  p :     0.170239
      px      :     0.041900
      py      :     0.035713
 20 H s       :     0.689362  s :     0.689362
      pz      :     0.031564  p :     0.156889
      px      :     0.054778
      py      :     0.070547


                      *****************************
                      * MAYER POPULATION ANALYSIS *
                      *****************************

  NA   - Mulliken gross atomic population
  ZA   - Total nuclear charge
  QA   - Mulliken gross atomic charge
  VA   - Mayer's total valence
  BVA  - Mayer's bonded valence
  FA   - Mayer's free valence

  ATOM       NA         ZA         QA         VA         BVA        FA
  0 O      8.7788     8.0000    -0.7788     1.6907     1.6907    -0.0000
  1 H      0.6520     1.0000     0.3480     0.8959     0.8959     0.0000
  2 H      0.5872     1.0000     0.4128     0.8629     0.8629    -0.0000
  3 O      8.7617     8.0000    -0.7617     1.7237     1.7237     0.0000
  4 H      0.6286     1.0000     0.3714     0.8795     0.8795     0.0000
  5 H      0.6230     1.0000     0.3770     0.8967     0.8967    -0.0000
  6 O      8.7728     8.0000    -0.7728     1.7024     1.7024    -0.0000
  7 H      0.6250     1.0000     0.3750     0.8784     0.8784    -0.0000
  8 H      0.6029     1.0000     0.3971     0.8812     0.8812    -0.0000
  9 O      8.7663     8.0000    -0.7663     1.7062     1.7062    -0.0000
 10 H      0.6367     1.0000     0.3633     0.8867     0.8867    -0.0000
 11 H      0.6173     1.0000     0.3827     0.8910     0.8910     0.0000
 12 O      8.7462     8.0000    -0.7462     1.7549     1.7549    -0.0000
 13 H      0.6285     1.0000     0.3715     0.8784     0.8784     0.0000
 14 H      0.6011     1.0000     0.3989     0.8590     0.8590    -0.0000
 15 O      8.7331     8.0000    -0.7331     1.7522     1.7522     0.0000
 16 H      0.5911     1.0000     0.4089     0.8606     0.8606    -0.0000
 17 H      0.6479     1.0000     0.3521     0.8954     0.8954    -0.0000
 18 O      8.7087     8.0000    -0.7087     1.7687     1.7687    -0.0000
 19 H      0.6107     1.0000     0.3893     0.8713     0.8713    -0.0000
 20 H      0.6804     1.0000     0.3196     0.9141     0.9141     0.0000

  Mayer bond orders larger than 0.100000
B(  0-O ,  1-H ) :   0.8872 B(  0-O ,  2-H ) :   0.7889 B(  3-O ,  4-H ) :   0.8723 
B(  3-O ,  5-H ) :   0.8428 B(  6-O ,  7-H ) :   0.8665 B(  6-O ,  8-H ) :   0.8050 
B(  9-O , 10-H ) :   0.8770 B(  9-O , 11-H ) :   0.8204 B( 12-O , 13-H ) :   0.8678 
B( 12-O , 14-H ) :   0.8425 B( 15-O , 16-H ) :   0.8245 B( 15-O , 17-H ) :   0.8813 
B( 18-O , 19-H ) :   0.8510 B( 18-O , 20-H ) :   0.9068 

-------
TIMINGS
-------

Total SCF time: 0 days 0 hours 0 min 18 sec 

Total time                  ....      18.584 sec
Sum of individual times     ....      18.327 sec  ( 98.6%)

Fock matrix formation       ....      17.861 sec  ( 96.1%)
Diagonalization             ....       0.113 sec  (  0.6%)
Density matrix formation    ....       0.013 sec  (  0.1%)
Population analysis         ....       0.012 sec  (  0.1%)
Initial guess               ....       0.167 sec  (  0.9%)
Orbital Transformation      ....       0.000 sec  (  0.0%)
Orbital Orthonormalization  ....       0.000 sec  (  0.0%)
DIIS solution               ....       0.040 sec  (  0.2%)
SOSCF solution              ....       0.048 sec  (  0.3%)


           ************************************************************
           *        Program running with 6 parallel MPI-processes     *
           *              working on a common directory               *
           ************************************************************

------------------------------------------------------------------------------
                                ORCA  MP2 
------------------------------------------------------------------------------

Freezing NCore=14 chemical core electrons
MP2 will be done in the AO integral direct mode
The Q1-step will be done using symmetric double matrices
Dimension of the basis                    ...  301
Memory devoted for MP2                    ... 8000 MB   
Memory needed for all in one shot         ...  523 MB
Number of MOs that can be treated together...   75      
MP2 density construction                  ... relaxed
The MP2 gradient is requested => amplitudes will be stored on disk
Total number of MOs              ...   28
Number of MOs treated per batch  ...    5 
Number of batches necessary      ...    1 
OPERATORS   0/  0 PASS   0
-----------------------------------------------
 MP2 CORRELATION ENERGY   :     -1.811306526 Eh
-----------------------------------------------


---------------------
MP2 DENSITY FORMATION
---------------------

Completing the external part of the density      ... done
Storing the unrelaxed density                    ... done

Calculating G(D)                                 ... done
Completing the Lagrangian                        ... done
Solving the Z-vector equations                   ... 

------------------------------------------------------------------------------
                           ORCA CP-SCF CALCULATION
------------------------------------------------------------------------------

Input orbitals are from        ... 12h2o.su.etal.mol2,3,4,6,7,8,11-orca.engrad-mp2.def2tzvp.frozencore.gbw
Input Perturbation             ... 12h2o.su.etal.mol2,3,4,6,7,8,11-orca.engrad-mp2.def2tzvp.frozencore.pin.tmp
Wavefunction output            ... 12h2o.su.etal.mol2,3,4,6,7,8,11-orca.engrad-mp2.def2tzvp.frozencore.pout.tmp
Perturbation mode              ... Real perturbation (singlet)
Solver                         ... POPLE
Max. number of iterations      ... 128
Convergence tolerance          ... 1.000e-08
Integral handling              ... Direct
Number of perturbations        ... 1
Number of operators            ... 1
Orbital ranges used for CP-SCF:
 Operator 0:  Orbitals   0... 34  to  35...300
Variables per vector in CP-SCF ... 9310
Number of vectors sought       ... 1
     CP-SCF ITERATION   0: 
     CP-SCF ITERATION   1:      0.000889244651
     CP-SCF ITERATION   2:      0.000023467187
     CP-SCF ITERATION   3:      0.000001060436
     CP-SCF ITERATION   4:      0.000000107924
     CP-SCF ITERATION   5:      0.000000009588
                                                 ... done
Finalizing the relaxed density                   ... done
Transforming P to the AO basis                   ... done
Storing the relaxed density                      ... done

------------------------------------
ENERGY WEIGHTED DENSITY FINALIZATION
------------------------------------

Gathering the parts of the W-matrix              ...                                                      done
Forming the Z-density                            ... done
Transforming Z to the AO basis                   ... done
Calculating G(Z)                                 ... done
Finalizing the W-matrix                          ...                                                      done
Transforming W to the AO basis and storing       ... done

                *********************************************
                * UNRELAXED MP2 DENSITY POPULATION ANALYSIS *
                *********************************************

------------------------------------------------------------------------------
                           ORCA POPULATION ANALYSIS
------------------------------------------------------------------------------
Input electron density              ... 12h2o.su.etal.mol2,3,4,6,7,8,11-orca.engrad-mp2.def2tzvp.frozencore.pmp2ur
BaseName (.gbw .S,...)              ... 12h2o.su.etal.mol2,3,4,6,7,8,11-orca.engrad-mp2.def2tzvp.frozencore

                    ********************************
                    * MULLIKEN POPULATION ANALYSIS *
                    ********************************

-----------------------
MULLIKEN ATOMIC CHARGES
-----------------------
   0 O :   -0.772598
   1 H :    0.345734
   2 H :    0.408261
   3 O :   -0.755753
   4 H :    0.368619
   5 H :    0.373324
   6 O :   -0.765813
   7 H :    0.372470
   8 H :    0.392436
   9 O :   -0.760290
  10 H :    0.360967
  11 H :    0.378190
  12 O :   -0.739910
  13 H :    0.369108
  14 H :    0.396023
  15 O :   -0.726383
  16 H :    0.405904
  17 H :    0.349466
  18 O :   -0.703381
  19 H :    0.386485
  20 H :    0.317142
Sum of atomic charges:   -0.0000000

--------------------------------
MULLIKEN REDUCED ORBITAL CHARGES
--------------------------------
  0 O s       :     3.801364  s :     3.801364
      pz      :     1.720441  p :     4.917020
      px      :     1.771914
      py      :     1.424664
      dz2     :     0.009494  d :     0.050204
      dxz     :     0.010597
      dyz     :     0.010225
      dx2y2   :     0.007930
      dxy     :     0.011957
      f0      :     0.000459  f :     0.004011
      f+1     :     0.000543
      f-1     :     0.000697
      f+2     :     0.000432
      f-2     :     0.000723
      f+3     :     0.000698
      f-3     :     0.000458
  1 H s       :     0.606861  s :     0.606861
      pz      :     0.017598  p :     0.047405
      px      :     0.015668
      py      :     0.014139
  2 H s       :     0.534064  s :     0.534064
      pz      :     0.011237  p :     0.057675
      px      :     0.013836
      py      :     0.032601
  3 O s       :     3.802029  s :     3.802029
      pz      :     1.524787  p :     4.898009
      px      :     1.563181
      py      :     1.810042
      dz2     :     0.016766  d :     0.051704
      dxz     :     0.006743
      dyz     :     0.008368
      dx2y2   :     0.007542
      dxy     :     0.012284
      f0      :     0.000637  f :     0.004011
      f+1     :     0.000739
      f-1     :     0.000533
      f+2     :     0.000415
      f-2     :     0.000420
      f+3     :     0.000432
      f-3     :     0.000834
  4 H s       :     0.581184  s :     0.581184
      pz      :     0.023386  p :     0.050197
      px      :     0.012537
      py      :     0.014274
  5 H s       :     0.574604  s :     0.574604
      pz      :     0.010768  p :     0.052072
      px      :     0.024317
      py      :     0.016986
  6 O s       :     3.796897  s :     3.796897
      pz      :     1.560470  p :     4.913839
      px      :     1.836714
      py      :     1.516655
      dz2     :     0.016167  d :     0.051105
      dxz     :     0.007730
      dyz     :     0.008087
      dx2y2   :     0.008908
      dxy     :     0.010214
      f0      :     0.000573  f :     0.003972
      f+1     :     0.000488
      f-1     :     0.000817
      f+2     :     0.000436
      f-2     :     0.000406
      f+3     :     0.000780
      f-3     :     0.000471
  7 H s       :     0.582140  s :     0.582140
      pz      :     0.019126  p :     0.045390
      px      :     0.014027
      py      :     0.012237
  8 H s       :     0.553709  s :     0.553709
      pz      :     0.009475  p :     0.053856
      px      :     0.015152
      py      :     0.029229
  9 O s       :     3.803810  s :     3.803810
      pz      :     1.539518  p :     4.902102
      px      :     1.496300
      py      :     1.866284
      dz2     :     0.015518  d :     0.050349
      dxz     :     0.007953
      dyz     :     0.007882
      dx2y2   :     0.008450
      dxy     :     0.010546
      f0      :     0.000588  f :     0.004029
      f+1     :     0.000805
      f-1     :     0.000496
      f+2     :     0.000442
      f-2     :     0.000404
      f+3     :     0.000485
      f-3     :     0.000808
 10 H s       :     0.592759  s :     0.592759
      pz      :     0.018827  p :     0.046273
      px      :     0.012675
      py      :     0.014772
 11 H s       :     0.566498  s :     0.566498
      pz      :     0.009869  p :     0.055311
      px      :     0.028938
      py      :     0.016503
 12 O s       :     3.802206  s :     3.802206
      pz      :     1.558001  p :     4.881268
      px      :     1.485892
      py      :     1.837375
      dz2     :     0.016775  d :     0.052433
      dxz     :     0.008170
      dyz     :     0.007866
      dx2y2   :     0.009153
      dxy     :     0.010469
      f0      :     0.000568  f :     0.004003
      f+1     :     0.000822
      f-1     :     0.000492
      f+2     :     0.000433
      f-2     :     0.000404
      f+3     :     0.000476
      f-3     :     0.000808
 13 H s       :     0.585514  s :     0.585514
      pz      :     0.019286  p :     0.045378
      px      :     0.011991
      py      :     0.014101
 14 H s       :     0.561351  s :     0.561351
      pz      :     0.009575  p :     0.042627
      px      :     0.018939
      py      :     0.014113
 15 O s       :     3.792550  s :     3.792550
      pz      :     1.571122  p :     4.877550
      px      :     1.534655
      py      :     1.771773
      dz2     :     0.017095  d :     0.052291
      dxz     :     0.006632
      dyz     :     0.007975
      dx2y2   :     0.008096
      dxy     :     0.012492
      f0      :     0.000610  f :     0.003992
      f+1     :     0.000751
      f-1     :     0.000534
      f+2     :     0.000414
      f-2     :     0.000423
      f+3     :     0.000426
      f-3     :     0.000835
 16 H s       :     0.544948  s :     0.544948
      pz      :     0.025202  p :     0.049147
      px      :     0.011545
      py      :     0.012400
 17 H s       :     0.605051  s :     0.605051
      pz      :     0.011482  p :     0.045483
      px      :     0.018481
      py      :     0.015520
 18 O s       :     3.806978  s :     3.806978
      pz      :     1.543816  p :     4.839949
      px      :     1.799077
      py      :     1.497056
      dz2     :     0.016903  d :     0.052402
      dxz     :     0.008505
      dyz     :     0.006614
      dx2y2   :     0.007651
      dxy     :     0.012728
      f0      :     0.000629  f :     0.004052
      f+1     :     0.000541
      f-1     :     0.000740
      f+2     :     0.000414
      f-2     :     0.000420
      f+3     :     0.000872
      f-3     :     0.000437
 19 H s       :     0.563165  s :     0.563165
      pz      :     0.024222  p :     0.050350
      px      :     0.013861
      py      :     0.012267
 20 H s       :     0.635786  s :     0.635786
      pz      :     0.012089  p :     0.047071
      px      :     0.016788
      py      :     0.018195


                     *******************************
                     * LOEWDIN POPULATION ANALYSIS *
                     *******************************

----------------------
LOEWDIN ATOMIC CHARGES
----------------------
   0 O :   -0.346953
   1 H :    0.152916
   2 H :    0.153848
   3 O :   -0.356627
   4 H :    0.146595
   5 H :    0.148964
   6 O :   -0.300413
   7 H :    0.171460
   8 H :    0.153220
   9 O :   -0.343357
  10 H :    0.168251
  11 H :    0.147735
  12 O :   -0.279710
  13 H :    0.171998
  14 H :    0.190281
  15 O :   -0.281900
  16 H :    0.164506
  17 H :    0.165229
  18 O :   -0.333474
  19 H :    0.155269
  20 H :    0.152160

-------------------------------
LOEWDIN REDUCED ORBITAL CHARGES
-------------------------------
  0 O s       :     3.456820  s :     3.456820
      pz      :     1.699282  p :     4.828092
      px      :     1.734940
      py      :     1.393870
      dz2     :     0.009934  d :     0.057294
      dxz     :     0.011062
      dyz     :     0.012665
      dx2y2   :     0.009397
      dxy     :     0.014237
      f0      :     0.000454  f :     0.004747
      f+1     :     0.000649
      f-1     :     0.000850
      f+2     :     0.000409
      f-2     :     0.001032
      f+3     :     0.000879
      f-3     :     0.000474
  1 H s       :     0.679000  s :     0.679000
      pz      :     0.067064  p :     0.168084
      px      :     0.054085
      py      :     0.046934
  2 H s       :     0.647540  s :     0.647540
      pz      :     0.034114  p :     0.198611
      px      :     0.048285
      py      :     0.116212
  3 O s       :     3.457117  s :     3.457117
      pz      :     1.514539  p :     4.836456
      px      :     1.540120
      py      :     1.781797
      dz2     :     0.021130  d :     0.058257
      dxz     :     0.007489
      dyz     :     0.007708
      dx2y2   :     0.007571
      dxy     :     0.014359
      f0      :     0.000890  f :     0.004797
      f+1     :     0.000971
      f-1     :     0.000700
      f+2     :     0.000388
      f-2     :     0.000421
      f+3     :     0.000377
      f-3     :     0.001051
  4 H s       :     0.680824  s :     0.680824
      pz      :     0.090916  p :     0.172581
      px      :     0.038095
      py      :     0.043570
  5 H s       :     0.672755  s :     0.672755
      pz      :     0.031420  p :     0.178281
      px      :     0.087947
      py      :     0.058914
  6 O s       :     3.451199  s :     3.451199
      pz      :     1.526669  p :     4.785329
      px      :     1.777899
      py      :     1.480761
      dz2     :     0.020746  d :     0.059096
      dxz     :     0.006925
      dyz     :     0.009422
      dx2y2   :     0.010500
      dxy     :     0.011503
      f0      :     0.000793  f :     0.004788
      f+1     :     0.000585
      f-1     :     0.001171
      f+2     :     0.000414
      f-2     :     0.000420
      f+3     :     0.000954
      f-3     :     0.000450
  7 H s       :     0.665422  s :     0.665422
      pz      :     0.081657  p :     0.163118
      px      :     0.043739
      py      :     0.037722
  8 H s       :     0.657663  s :     0.657663
      pz      :     0.030019  p :     0.189117
      px      :     0.053362
      py      :     0.105736
  9 O s       :     3.457796  s :     3.457796
      pz      :     1.519821  p :     4.822745
      px      :     1.474632
      py      :     1.828293
      dz2     :     0.020165  d :     0.058029
      dxz     :     0.009453
      dyz     :     0.007108
      dx2y2   :     0.009472
      dxy     :     0.011831
      f0      :     0.000810  f :     0.004786
      f+1     :     0.001162
      f-1     :     0.000574
      f+2     :     0.000416
      f-2     :     0.000417
      f+3     :     0.000444
      f-3     :     0.000963
 10 H s       :     0.669766  s :     0.669766
      pz      :     0.080975  p :     0.161983
      px      :     0.037319
      py      :     0.043688
 11 H s       :     0.663626  s :     0.663626
      pz      :     0.030090  p :     0.188639
      px      :     0.104913
      py      :     0.053635
 12 O s       :     3.458573  s :     3.458573
      pz      :     1.525792  p :     4.755135
      px      :     1.455310
      py      :     1.774034
      dz2     :     0.021932  d :     0.061161
      dxz     :     0.009532
      dyz     :     0.006983
      dx2y2   :     0.010834
      dxy     :     0.011881
      f0      :     0.000793  f :     0.004840
      f+1     :     0.001173
      f-1     :     0.000596
      f+2     :     0.000412
      f-2     :     0.000418
      f+3     :     0.000450
      f-3     :     0.000998
 13 H s       :     0.665949  s :     0.665949
      pz      :     0.081999  p :     0.162053
      px      :     0.036543
      py      :     0.043511
 14 H s       :     0.651751  s :     0.651751
      pz      :     0.029725  p :     0.157968
      px      :     0.078337
      py      :     0.049906
 15 O s       :     3.448728  s :     3.448728
      pz      :     1.538179  p :     4.768127
      px      :     1.518209
      py      :     1.711739
      dz2     :     0.021070  d :     0.060145
      dxz     :     0.007092
      dyz     :     0.007331
      dx2y2   :     0.009359
      dxy     :     0.015294
      f0      :     0.000823  f :     0.004899
      f+1     :     0.000981
      f-1     :     0.000735
      f+2     :     0.000389
      f-2     :     0.000420
      f+3     :     0.000406
      f-3     :     0.001145
 16 H s       :     0.660596  s :     0.660596
      pz      :     0.096562  p :     0.174898
      px      :     0.036515
      py      :     0.041821
 17 H s       :     0.673280  s :     0.673280
      pz      :     0.032210  p :     0.161492
      px      :     0.073377
      py      :     0.055905
 18 O s       :     3.464522  s :     3.464522
      pz      :     1.525238  p :     4.803557
      px      :     1.773517
      py      :     1.504803
      dz2     :     0.021429  d :     0.060481
      dxz     :     0.007764
      dyz     :     0.007161
      dx2y2   :     0.007982
      dxy     :     0.016145
      f0      :     0.000860  f :     0.004913
      f+1     :     0.000716
      f-1     :     0.000988
      f+2     :     0.000388
      f-2     :     0.000416
      f+3     :     0.001170
      f-3     :     0.000374
 19 H s       :     0.671609  s :     0.671609
      pz      :     0.093965  p :     0.173122
      px      :     0.042715
      py      :     0.036443
 20 H s       :     0.687469  s :     0.687469
      pz      :     0.032360  p :     0.160371
      px      :     0.055909
      py      :     0.072102


                      *****************************
                      * MAYER POPULATION ANALYSIS *
                      *****************************

  NA   - Mulliken gross atomic population
  ZA   - Total nuclear charge
  QA   - Mulliken gross atomic charge
  VA   - Mayer's total valence
  BVA  - Mayer's bonded valence
  FA   - Mayer's free valence

  ATOM       NA         ZA         QA         VA         BVA        FA
  0 O      8.7726     8.0000    -0.7726     2.0078     1.6132     0.3946
  1 H      0.6543     1.0000     0.3457     0.9017     0.8548     0.0469
  2 H      0.5917     1.0000     0.4083     0.8704     0.8255     0.0449
  3 O      8.7558     8.0000    -0.7558     2.0370     1.6452     0.3918
  4 H      0.6314     1.0000     0.3686     0.8856     0.8398     0.0458
  5 H      0.6267     1.0000     0.3733     0.9037     0.8578     0.0460
  6 O      8.7658     8.0000    -0.7658     2.0188     1.6247     0.3942
  7 H      0.6275     1.0000     0.3725     0.8841     0.8384     0.0457
  8 H      0.6076     1.0000     0.3924     0.8891     0.8426     0.0465
  9 O      8.7603     8.0000    -0.7603     2.0208     1.6275     0.3933
 10 H      0.6390     1.0000     0.3610     0.8924     0.8461     0.0463
 11 H      0.6218     1.0000     0.3782     0.8990     0.8516     0.0474
 12 O      8.7399     8.0000    -0.7399     2.0679     1.6755     0.3924
 13 H      0.6309     1.0000     0.3691     0.8841     0.8382     0.0459
 14 H      0.6040     1.0000     0.3960     0.8649     0.8199     0.0450
 15 O      8.7264     8.0000    -0.7264     2.0619     1.6733     0.3886
 16 H      0.5941     1.0000     0.4059     0.8664     0.8238     0.0426
 17 H      0.6505     1.0000     0.3495     0.9017     0.8539     0.0478
 18 O      8.7034     8.0000    -0.7034     2.0743     1.6869     0.3874
 19 H      0.6135     1.0000     0.3865     0.8773     0.8333     0.0441
 20 H      0.6829     1.0000     0.3171     0.9206     0.8704     0.0501

  Mayer bond orders larger than 0.100000
B(  0-O ,  1-H ) :   0.8467 B(  0-O ,  2-H ) :   0.7535 B(  3-O ,  4-H ) :   0.8327 
B(  3-O ,  5-H ) :   0.8054 B(  6-O ,  7-H ) :   0.8272 B(  6-O ,  8-H ) :   0.7687 
B(  9-O , 10-H ) :   0.8371 B(  9-O , 11-H ) :   0.7829 B( 12-O , 13-H ) :   0.8283 
B( 12-O , 14-H ) :   0.8043 B( 15-O , 16-H ) :   0.7889 B( 15-O , 17-H ) :   0.8405 
B( 18-O , 19-H ) :   0.8134 B( 18-O , 20-H ) :   0.8636 


                *******************************************
                * RELAXED MP2 DENSITY POPULATION ANALYSIS *
                *******************************************

------------------------------------------------------------------------------
                           ORCA POPULATION ANALYSIS
------------------------------------------------------------------------------
Input electron density              ... 12h2o.su.etal.mol2,3,4,6,7,8,11-orca.engrad-mp2.def2tzvp.frozencore.pmp2re
BaseName (.gbw .S,...)              ... 12h2o.su.etal.mol2,3,4,6,7,8,11-orca.engrad-mp2.def2tzvp.frozencore

                    ********************************
                    * MULLIKEN POPULATION ANALYSIS *
                    ********************************

-----------------------
MULLIKEN ATOMIC CHARGES
-----------------------
   0 O :   -0.746342
   1 H :    0.339212
   2 H :    0.385756
   3 O :   -0.732129
   4 H :    0.358098
   5 H :    0.354313
   6 O :   -0.734511
   7 H :    0.364168
   8 H :    0.369900
   9 O :   -0.736209
  10 H :    0.352630
  11 H :    0.355645
  12 O :   -0.714083
  13 H :    0.361714
  14 H :    0.387069
  15 O :   -0.698656
  16 H :    0.391855
  17 H :    0.342072
  18 O :   -0.685705
  19 H :    0.373861
  20 H :    0.311342
Sum of atomic charges:   -0.0000000

--------------------------------
MULLIKEN REDUCED ORBITAL CHARGES
--------------------------------
  0 O s       :     3.802607  s :     3.802607
      pz      :     1.715199  p :     4.891394
      px      :     1.757100
      py      :     1.419095
      dz2     :     0.009306  d :     0.048397
      dxz     :     0.010304
      dyz     :     0.009665
      dx2y2   :     0.007800
      dxy     :     0.011323
      f0      :     0.000457  f :     0.003943
      f+1     :     0.000535
      f-1     :     0.000681
      f+2     :     0.000432
      f-2     :     0.000703
      f+3     :     0.000680
      f-3     :     0.000456
  1 H s       :     0.612609  s :     0.612609
      pz      :     0.017696  p :     0.048179
      px      :     0.016328
      py      :     0.014155
  2 H s       :     0.556430  s :     0.556430
      pz      :     0.011955  p :     0.057814
      px      :     0.014289
      py      :     0.031571
  3 O s       :     3.799959  s :     3.799959
      pz      :     1.519953  p :     4.878479
      px      :     1.557086
      py      :     1.801440
      dz2     :     0.015551  d :     0.049750
      dxz     :     0.006706
      dyz     :     0.008344
      dx2y2   :     0.007486
      dxy     :     0.011664
      f0      :     0.000621  f :     0.003941
      f+1     :     0.000718
      f-1     :     0.000524
      f+2     :     0.000416
      f-2     :     0.000419
      f+3     :     0.000431
      f-3     :     0.000811
  4 H s       :     0.591157  s :     0.591157
      pz      :     0.022488  p :     0.050745
      px      :     0.013056
      py      :     0.015201
  5 H s       :     0.593030  s :     0.593030
      pz      :     0.011427  p :     0.052656
      px      :     0.023779
      py      :     0.017451
  6 O s       :     3.797902  s :     3.797902
      pz      :     1.552577  p :     4.883450
      px      :     1.818463
      py      :     1.512410
      dz2     :     0.015053  d :     0.049256
      dxz     :     0.007778
      dyz     :     0.007828
      dx2y2   :     0.008731
      dxy     :     0.009866
      f0      :     0.000561  f :     0.003902
      f+1     :     0.000483
      f-1     :     0.000789
      f+2     :     0.000435
      f-2     :     0.000405
      f+3     :     0.000761
      f-3     :     0.000469
  7 H s       :     0.589804  s :     0.589804
      pz      :     0.018396  p :     0.046028
      px      :     0.014960
      py      :     0.012671
  8 H s       :     0.575912  s :     0.575912
      pz      :     0.010129  p :     0.054188
      px      :     0.015640
      py      :     0.028419
  9 O s       :     3.805121  s :     3.805121
      pz      :     1.528727  p :     4.878820
      px      :     1.490890
      py      :     1.859203
      dz2     :     0.014369  d :     0.048308
      dxz     :     0.007674
      dyz     :     0.007892
      dx2y2   :     0.008248
      dxy     :     0.010124
      f0      :     0.000576  f :     0.003960
      f+1     :     0.000776
      f-1     :     0.000490
      f+2     :     0.000442
      f-2     :     0.000403
      f+3     :     0.000484
      f-3     :     0.000790
 10 H s       :     0.600429  s :     0.600429
      pz      :     0.018100  p :     0.046940
      px      :     0.013134
      py      :     0.015706
 11 H s       :     0.588635  s :     0.588635
      pz      :     0.010566  p :     0.055721
      px      :     0.028041
      py      :     0.017113
 12 O s       :     3.805623  s :     3.805623
      pz      :     1.550736  p :     4.854235
      px      :     1.481613
      py      :     1.821887
      dz2     :     0.015569  d :     0.050296
      dxz     :     0.007890
      dyz     :     0.007930
      dx2y2   :     0.008868
      dxy     :     0.010038
      f0      :     0.000555  f :     0.003929
      f+1     :     0.000793
      f-1     :     0.000486
      f+2     :     0.000432
      f-2     :     0.000402
      f+3     :     0.000474
      f-3     :     0.000787
 13 H s       :     0.592276  s :     0.592276
      pz      :     0.018593  p :     0.046010
      px      :     0.012387
      py      :     0.015030
 14 H s       :     0.569789  s :     0.569789
      pz      :     0.010260  p :     0.043142
      px      :     0.018162
      py      :     0.014721
 15 O s       :     3.792044  s :     3.792044
      pz      :     1.568531  p :     4.852375
      px      :     1.528159
      py      :     1.755685
      dz2     :     0.015926  d :     0.050320
      dxz     :     0.006606
      dyz     :     0.007963
      dx2y2   :     0.008030
      dxy     :     0.011796
      f0      :     0.000593  f :     0.003918
      f+1     :     0.000729
      f-1     :     0.000525
      f+2     :     0.000414
      f-2     :     0.000421
      f+3     :     0.000426
      f-3     :     0.000810
 16 H s       :     0.558665  s :     0.558665
      pz      :     0.024404  p :     0.049479
      px      :     0.011956
      py      :     0.013120
 17 H s       :     0.611729  s :     0.611729
      pz      :     0.012218  p :     0.046199
      px      :     0.017899
      py      :     0.016081
 18 O s       :     3.809151  s :     3.809151
      pz      :     1.539867  p :     4.822381
      px      :     1.793224
      py      :     1.489289
      dz2     :     0.015652  d :     0.050194
      dxz     :     0.008483
      dyz     :     0.006580
      dx2y2   :     0.007555
      dxy     :     0.011923
      f0      :     0.000612  f :     0.003980
      f+1     :     0.000531
      f-1     :     0.000718
      f+2     :     0.000415
      f-2     :     0.000419
      f+3     :     0.000848
      f-3     :     0.000438
 19 H s       :     0.575303  s :     0.575303
      pz      :     0.023332  p :     0.050835
      px      :     0.014747
      py      :     0.012756
 20 H s       :     0.640687  s :     0.640687
      pz      :     0.012882  p :     0.047971
      px      :     0.017403
      py      :     0.017686


                     *******************************
                     * LOEWDIN POPULATION ANALYSIS *
                     *******************************

----------------------
LOEWDIN ATOMIC CHARGES
----------------------
   0 O :   -0.343613
   1 H :    0.154865
   2 H :    0.146300
   3 O :   -0.355446
   4 H :    0.144316
   5 H :    0.143975
   6 O :   -0.292573
   7 H :    0.172297
   8 H :    0.146031
   9 O :   -0.341920
  10 H :    0.169503
  11 H :    0.140755
  12 O :   -0.272319
  13 H :    0.173353
  14 H :    0.190471
  15 O :   -0.275230
  16 H :    0.160939
  17 H :    0.166313
  18 O :   -0.334323
  19 H :    0.152076
  20 H :    0.154228

-------------------------------
LOEWDIN REDUCED ORBITAL CHARGES
-------------------------------
  0 O s       :     3.458183  s :     3.458183
      pz      :     1.698894  p :     4.823951
      px      :     1.727312
      py      :     1.397745
      dz2     :     0.009914  d :     0.056693
      dxz     :     0.010995
      dyz     :     0.012312
      dx2y2   :     0.009428
      dxy     :     0.014044
      f0      :     0.000456  f :     0.004785
      f+1     :     0.000650
      f-1     :     0.000862
      f+2     :     0.000410
      f-2     :     0.001034
      f+3     :     0.000895
      f-3     :     0.000478
  1 H s       :     0.676998  s :     0.676998
      pz      :     0.067078  p :     0.168137
      px      :     0.054479
      py      :     0.046580
  2 H s       :     0.654959  s :     0.654959
      pz      :     0.034753  p :     0.198741
      px      :     0.048682
      py      :     0.115305
  3 O s       :     3.457959  s :     3.457959
      pz      :     1.515221  p :     4.835338
      px      :     1.541367
      py      :     1.778750
      dz2     :     0.020556  d :     0.057328
      dxz     :     0.007373
      dyz     :     0.007740
      dx2y2   :     0.007536
      dxy     :     0.014122
      f0      :     0.000894  f :     0.004821
      f+1     :     0.000979
      f-1     :     0.000699
      f+2     :     0.000389
      f-2     :     0.000421
      f+3     :     0.000377
      f-3     :     0.001062
  4 H s       :     0.682652  s :     0.682652
      pz      :     0.090028  p :     0.173032
      px      :     0.038590
      py      :     0.044414
  5 H s       :     0.677096  s :     0.677096
      pz      :     0.031839  p :     0.178928
      px      :     0.087674
      py      :     0.059416
  6 O s       :     3.452527  s :     3.452527
      pz      :     1.526017  p :     4.776617
      px      :     1.767263
      py      :     1.483337
      dz2     :     0.020359  d :     0.058607
      dxz     :     0.007004
      dyz     :     0.009227
      dx2y2   :     0.010542
      dxy     :     0.011475
      f0      :     0.000794  f :     0.004822
      f+1     :     0.000588
      f-1     :     0.001183
      f+2     :     0.000415
      f-2     :     0.000419
      f+3     :     0.000969
      f-3     :     0.000453
  7 H s       :     0.664623  s :     0.664623
      pz      :     0.080842  p :     0.163080
      px      :     0.044444
      py      :     0.037794
  8 H s       :     0.664234  s :     0.664234
      pz      :     0.030384  p :     0.189735
      px      :     0.053891
      py      :     0.105460
  9 O s       :     3.458915  s :     3.458915
      pz      :     1.518402  p :     4.820959
      px      :     1.477061
      py      :     1.825495
      dz2     :     0.019688  d :     0.057226
      dxz     :     0.009243
      dyz     :     0.007163
      dx2y2   :     0.009414
      dxy     :     0.011719
      f0      :     0.000812  f :     0.004820
      f+1     :     0.001175
      f-1     :     0.000575
      f+2     :     0.000419
      f-2     :     0.000416
      f+3     :     0.000446
      f-3     :     0.000977
 10 H s       :     0.668589  s :     0.668589
      pz      :     0.080083  p :     0.161908
      px      :     0.037320
      py      :     0.044505
 11 H s       :     0.669877  s :     0.669877
      pz      :     0.030429  p :     0.189367
      px      :     0.104538
      py      :     0.054400
 12 O s       :     3.460389  s :     3.460389
      pz      :     1.525140  p :     4.746813
      px      :     1.458106
      py      :     1.763567
      dz2     :     0.021449  d :     0.060258
      dxz     :     0.009316
      dyz     :     0.007079
      dx2y2   :     0.010710
      dxy     :     0.011703
      f0      :     0.000792  f :     0.004859
      f+1     :     0.001181
      f-1     :     0.000597
      f+2     :     0.000414
      f-2     :     0.000417
      f+3     :     0.000453
      f-3     :     0.001006
 13 H s       :     0.664638  s :     0.664638
      pz      :     0.081344  p :     0.162009
      px      :     0.036416
      py      :     0.044249
 14 H s       :     0.651935  s :     0.651935
      pz      :     0.030095  p :     0.157594
      px      :     0.077146
      py      :     0.050354
 15 O s       :     3.449455  s :     3.449455
      pz      :     1.539873  p :     4.761581
      px      :     1.519871
      py      :     1.701837
      dz2     :     0.020549  d :     0.059276
      dxz     :     0.006991
      dyz     :     0.007375
      dx2y2   :     0.009399
      dxy     :     0.014962
      f0      :     0.000826  f :     0.004918
      f+1     :     0.000986
      f-1     :     0.000736
      f+2     :     0.000390
      f-2     :     0.000420
      f+3     :     0.000408
      f-3     :     0.001151
 16 H s       :     0.664147  s :     0.664147
      pz      :     0.095708  p :     0.174914
      px      :     0.036810
      py      :     0.042396
 17 H s       :     0.672006  s :     0.672006
      pz      :     0.032694  p :     0.161681
      px      :     0.072683
      py      :     0.056304
 18 O s       :     3.466098  s :     3.466098
      pz      :     1.526078  p :     4.804052
      px      :     1.771539
      py      :     1.506435
      dz2     :     0.020789  d :     0.059242
      dxz     :     0.007804
      dyz     :     0.007045
      dx2y2   :     0.007893
      dxy     :     0.015711
      f0      :     0.000864  f :     0.004931
      f+1     :     0.000715
      f-1     :     0.000995
      f+2     :     0.000390
      f-2     :     0.000416
      f+3     :     0.001176
      f-3     :     0.000375
 19 H s       :     0.674562  s :     0.674562
      pz      :     0.093031  p :     0.173362
      px      :     0.043595
      py      :     0.036736
 20 H s       :     0.684833  s :     0.684833
      pz      :     0.032838  p :     0.160939
      px      :     0.056517
      py      :     0.071584


                      *****************************
                      * MAYER POPULATION ANALYSIS *
                      *****************************

  NA   - Mulliken gross atomic population
  ZA   - Total nuclear charge
  QA   - Mulliken gross atomic charge
  VA   - Mayer's total valence
  BVA  - Mayer's bonded valence
  FA   - Mayer's free valence

  ATOM       NA         ZA         QA         VA         BVA        FA
  0 O      8.7463     8.0000    -0.7463     2.0350     1.6462     0.3889
  1 H      0.6608     1.0000     0.3392     0.9062     0.8592     0.0470
  2 H      0.6142     1.0000     0.3858     0.8976     0.8536     0.0441
  3 O      8.7321     8.0000    -0.7321     2.0576     1.6713     0.3863
  4 H      0.6419     1.0000     0.3581     0.8985     0.8528     0.0457
  5 H      0.6457     1.0000     0.3543     0.9306     0.8854     0.0452
  6 O      8.7345     8.0000    -0.7345     2.0614     1.6736     0.3878
  7 H      0.6358     1.0000     0.3642     0.8914     0.8458     0.0457
  8 H      0.6301     1.0000     0.3699     0.9197     0.8745     0.0452
  9 O      8.7362     8.0000    -0.7362     2.0407     1.6529     0.3878
 10 H      0.6474     1.0000     0.3526     0.8990     0.8526     0.0464
 11 H      0.6444     1.0000     0.3556     0.9291     0.8830     0.0461
 12 O      8.7141     8.0000    -0.7141     2.1105     1.7245     0.3860
 13 H      0.6383     1.0000     0.3617     0.8901     0.8442     0.0458
 14 H      0.6129     1.0000     0.3871     0.8753     0.8307     0.0447
 15 O      8.6987     8.0000    -0.6987     2.0992     1.7167     0.3826
 16 H      0.6081     1.0000     0.3919     0.8857     0.8434     0.0423
 17 H      0.6579     1.0000     0.3421     0.9097     0.8622     0.0475
 18 O      8.6857     8.0000    -0.6857     2.0885     1.7064     0.3821
 19 H      0.6261     1.0000     0.3739     0.8945     0.8506     0.0439
 20 H      0.6887     1.0000     0.3113     0.9253     0.8752     0.0501

  Mayer bond orders larger than 0.100000
B(  0-O ,  1-H ) :   0.8495 B(  0-O ,  2-H ) :   0.7536 B(  3-O ,  4-H ) :   0.8379 
B(  3-O ,  5-H ) :   0.8079 B(  6-O ,  7-H ) :   0.8304 B(  6-O ,  8-H ) :   0.7665 
B(  9-O , 10-H ) :   0.8408 B(  9-O , 11-H ) :   0.7807 B( 12-O , 13-H ) :   0.8311 
B( 12-O , 14-H ) :   0.8077 B( 15-O , 16-H ) :   0.7931 B( 15-O , 17-H ) :   0.8430 
B( 18-O , 19-H ) :   0.8190 B( 18-O , 20-H ) :   0.8665 


----------------------------------
MP2 DERIVATIVE INTEGRAL GENERATION
----------------------------------


Input Wavefunction Amplitudes       ... 12h2o.su.etal.mol2,3,4,6,7,8,11-orca.engrad-mp2.def2tzvp.frozencore.mp2tsaa.tmp
Input Correlated Electron Density   ... 12h2o.su.etal.mol2,3,4,6,7,8,11-orca.engrad-mp2.def2tzvp.frozencore.pmp2re
Input Energy Weighted Density       ... 12h2o.su.etal.mol2,3,4,6,7,8,11-orca.engrad-mp2.def2tzvp.frozencore.wmp2.tmp
Input SCF Electron Density          ... 12h2o.su.etal.mol2,3,4,6,7,8,11-orca.engrad-mp2.def2tzvp.frozencore.scfp

One-Electron Terms    ...
                        ... One-Electron Terms done
Prescreening matrices              ... done

Batch handling in the gradient evaluation:
Memory available                      ... 8000.0 MB
Memory per occupied orbital in Q2     ...   19.4 MB
Memory per occupied orbital in Q3     ...    0.1 MB
Total memory requirement per |i>      ...   19.5 MB
Max. Number of orbitals possible      ...    410
Number of orbitals treated per batch  ...     28
Number of batches to be done          ...      1
Batch   0: i=    7 ...    34

---------------------------------------
MP2 TOTAL ENERGY:     -534.253972830 Eh
---------------------------------------

The final MP2 gradient
  0:   0.00085753  -0.00665857  -0.00001960
  1:  -0.00043749  -0.00061712  -0.00014730
  2:   0.00182795   0.01143376  -0.00014734
  3:  -0.00035589  -0.00112778  -0.00644977
  4:  -0.00090203  -0.00034381   0.00969650
  5:   0.00064373   0.00001121  -0.00045112
  6:   0.00217165   0.00083806   0.01154751
  7:   0.00281906   0.00000911  -0.00796698
  8:  -0.00052262  -0.00306733   0.00351157
  9:   0.00307903  -0.00408851  -0.00749418
 10:   0.00119751   0.00105231   0.00950808
 11:  -0.00593558   0.00278997  -0.00339864
 12:  -0.01462845   0.00425866  -0.01642677
 13:   0.00108873   0.00269437   0.00751979
 14:   0.01114996  -0.00352478   0.00387706
 15:   0.00868131  -0.00901008   0.00045195
 16:  -0.00148483   0.00115188  -0.00372039
 17:  -0.00836261   0.00513704   0.00186591
 18:   0.00623901   0.01046660   0.00257340
 19:  -0.00134725  -0.00007303  -0.00357436
 20:  -0.00577873  -0.01133196  -0.00075533

-----------------------------------
NORM OF THE MP2 GRADIENT:  0.045882
-----------------------------------

-------------------------   --------------------
FINAL SINGLE POINT ENERGY      -534.253972829647
-------------------------   --------------------


                            ***************************************
                            *     ORCA property calculations      *
                            ***************************************

                                    ---------------------
                                    Active property flags
                                    ---------------------
   (+) Dipole Moment


------------------------------------------------------------------------------
                       ORCA ELECTRIC PROPERTIES CALCULATION
------------------------------------------------------------------------------

Dipole Moment Calculation                       ... on
Quadrupole Moment Calculation                   ... off
Polarizability Calculation                      ... off
GBWName                                         ... 12h2o.su.etal.mol2,3,4,6,7,8,11-orca.engrad-mp2.def2tzvp.frozencore.gbw
Electron density file                           ... 12h2o.su.etal.mol2,3,4,6,7,8,11-orca.engrad-mp2.def2tzvp.frozencore.scfp
The origin for moment calculation is the CENTER OF MASS  = (-0.196134,  0.446823 -1.528441)

-------------
DIPOLE MOMENT
-------------
                                X             Y             Z
Electronic contribution:      0.07091       0.16315       0.01245
Nuclear contribution   :     -0.34045      -0.60038       0.82779
                        -----------------------------------------
Total Dipole Moment    :     -0.26955      -0.43724       0.84024
                        -----------------------------------------
Magnitude (a.u.)       :      0.98480
Magnitude (Debye)      :      2.50317



--------------------
Rotational spectrum 
--------------------
 
Rotational constants in cm-1:     0.048334     0.023901     0.018908 
Rotational constants in MHz :  1449.027657   716.530718   566.839327 

 Dipole components along the rotational axes: 
x,y,z [a.u.] :     0.615446     0.420728     0.643466 
x,y,z [Debye]:     1.564340     1.069407     1.635560 

 

                         *** MP2 UNRELAXED DENSITY ***

------------------------------------------------------------------------------
                       ORCA ELECTRIC PROPERTIES CALCULATION
------------------------------------------------------------------------------

Dipole Moment Calculation                       ... on
Quadrupole Moment Calculation                   ... off
Polarizability Calculation                      ... off
GBWName                                         ... 12h2o.su.etal.mol2,3,4,6,7,8,11-orca.engrad-mp2.def2tzvp.frozencore.gbw
Electron density file                           ... 12h2o.su.etal.mol2,3,4,6,7,8,11-orca.engrad-mp2.def2tzvp.frozencore.pmp2ur
The origin for moment calculation is the CENTER OF MASS  = (-0.196134,  0.446823 -1.528441)

-------------
DIPOLE MOMENT
-------------
                                X             Y             Z
Electronic contribution:      0.07432       0.16898       0.00501
Nuclear contribution   :     -0.34045      -0.60038       0.82779
                        -----------------------------------------
Total Dipole Moment    :     -0.26613      -0.43140       0.83280
                        -----------------------------------------
Magnitude (a.u.)       :      0.97493
Magnitude (Debye)      :      2.47808



--------------------
Rotational spectrum 
--------------------
 
Rotational constants in cm-1:     0.048334     0.023901     0.018908 
Rotational constants in MHz :  1449.027657   716.530718   566.839327 

 Dipole components along the rotational axes: 
x,y,z [a.u.] :     0.610601     0.415227     0.636588 
x,y,z [Debye]:     1.552024     1.055424     1.618077 

 

                           *** MP2 RELAXED DENSITY ***

------------------------------------------------------------------------------
                       ORCA ELECTRIC PROPERTIES CALCULATION
------------------------------------------------------------------------------

Dipole Moment Calculation                       ... on
Quadrupole Moment Calculation                   ... off
Polarizability Calculation                      ... off
GBWName                                         ... 12h2o.su.etal.mol2,3,4,6,7,8,11-orca.engrad-mp2.def2tzvp.frozencore.gbw
Electron density file                           ... 12h2o.su.etal.mol2,3,4,6,7,8,11-orca.engrad-mp2.def2tzvp.frozencore.pmp2re
The origin for moment calculation is the CENTER OF MASS  = (-0.196134,  0.446823 -1.528441)

-------------
DIPOLE MOMENT
-------------
                                X             Y             Z
Electronic contribution:      0.07357       0.16553       0.00005
Nuclear contribution   :     -0.34045      -0.60038       0.82779
                        -----------------------------------------
Total Dipole Moment    :     -0.26688      -0.43485       0.82785
                        -----------------------------------------
Magnitude (a.u.)       :      0.97244
Magnitude (Debye)      :      2.47175



--------------------
Rotational spectrum 
--------------------
 
Rotational constants in cm-1:     0.048334     0.023901     0.018908 
Rotational constants in MHz :  1449.027657   716.530718   566.839327 

 Dipole components along the rotational axes: 
x,y,z [a.u.] :     0.604943     0.417454     0.636728 
x,y,z [Debye]:     1.537642     1.061084     1.618434 

 

Timings for individual modules:

Sum of individual times         ...      111.319 sec (=   1.855 min)
GTO integral calculation        ...        0.959 sec (=   0.016 min)   0.9 %
SCF iterations                  ...       19.265 sec (=   0.321 min)  17.3 %
MP2 module                      ...       91.095 sec (=   1.518 min)  81.8 %
                             ****ORCA TERMINATED NORMALLY****
TOTAL RUN TIME: 0 days 0 hours 1 minutes 52 seconds 291 msec
