
                                 *****************
                                 * O   R   C   A *
                                 *****************

           --- An Ab Initio, DFT and Semiempirical electronic structure package ---

                  #######################################################
                  #                        -***-                        #
                  #          Department of theory and spectroscopy      #
                  #               Directorship: Frank Neese             #
                  #        Max Planck Institute fuer Kohlenforschung    #
                  #                Kaiser Wilhelm Platz 1               #
                  #                 D-45470 Muelheim/Ruhr               #
                  #                      Germany                        #
                  #                                                     #
                  #                  All rights reserved                #
                  #                        -***-                        #
                  #######################################################


                         Program Version 4.2.0 -  RELEASE  -


 With contributions from (in alphabetic order):
   Daniel Aravena         : Magnetic Suceptibility
   Michael Atanasov       : Ab Initio Ligand Field Theory (pilot matlab implementation)
   Alexander A. Auer      : GIAO ZORA, VPT2
   Ute Becker             : Parallelization
   Giovanni Bistoni       : ED, misc. LED, open-shell LED, HFLED
   Martin Brehm           : Molecular dynamics
   Dmytro Bykov           : SCF Hessian
   Vijay G. Chilkuri      : MRCI spin determinant printing, contributions to CSF-ICE
   Dipayan Datta          : RHF DLPNO-CCSD density
   Achintya Kumar Dutta   : EOM-CC, STEOM-CC
   Dmitry Ganyushin       : Spin-Orbit,Spin-Spin,Magnetic field MRCI
   Miquel Garcia          : C-PCM Hessian, Gaussian charge scheme
   Yang Guo               : DLPNO-NEVPT2, CIM, IAO-localization
   Andreas Hansen         : Spin unrestricted coupled pair/coupled cluster methods
   Benjamin Helmich-Paris : CASSCF linear response (MC-RPA)
   Lee Huntington         : MR-EOM, pCC
   Robert Izsak           : Overlap fitted RIJCOSX, COSX-SCS-MP3, EOM
   Christian Kollmar      : KDIIS, OOCD, Brueckner-CCSD(T), CCSD density
   Simone Kossmann        : Meta GGA functionals, TD-DFT gradient, OOMP2, MP2 Hessian
   Martin Krupicka        : AUTO-CI
   Lucas Lang             : DCDCAS
   Dagmar Lenk            : GEPOL surface, SMD
   Dimitrios Liakos       : Extrapolation schemes; Compound Job, initial MDCI parallelization
   Dimitrios Manganas     : Further ROCIS development; embedding schemes
   Dimitrios Pantazis     : SARC Basis sets
   Taras Petrenko         : DFT Hessian,TD-DFT gradient, ASA, ECA, R-Raman, ABS, FL, XAS/XES, NRVS
   Peter Pinski           : DLPNO-MP2, DLPNO-MP2 Gradient
   Christoph Reimann      : Effective Core Potentials
   Marius Retegan         : Local ZFS, SOC
   Christoph Riplinger    : Optimizer, TS searches, QM/MM, DLPNO-CCSD(T), (RO)-DLPNO pert. Triples
   Tobias Risthaus        : Range-separated hybrids, TD-DFT gradient, RPA, STAB
   Michael Roemelt        : Original ROCIS implementation
   Masaaki Saitow         : Open-shell DLPNO-CCSD energy and density
   Barbara Sandhoefer     : DKH picture change effects
   Avijit Sen             : IP-ROCIS
   Kantharuban Sivalingam : CASSCF convergence, NEVPT2, FIC-MRCI
   Bernardo de Souza      : ESD, SOC TD-DFT
   Georgi Stoychev        : AutoAux, RI-MP2 NMR
   Willem Van den Heuvel  : Paramagnetic NMR
   Boris Wezisla          : Elementary symmetry handling
   Frank Wennmohs         : Technical directorship


 We gratefully acknowledge several colleagues who have allowed us to
 interface, adapt or use parts of their codes:
   Stefan Grimme, W. Hujo, H. Kruse,             : VdW corrections, initial TS optimization,
                  C. Bannwarth                     DFT functionals, gCP, sTDA/sTD-DF
   Ed Valeev, F. Pavosevic, A. Kumar             : LibInt (2-el integral package), F12 methods
   Garnet Chan, S. Sharma, J. Yang, R. Olivares  : DMRG
   Ulf Ekstrom                                   : XCFun DFT Library
   Mihaly Kallay                                 : mrcc  (arbitrary order and MRCC methods)
   Andreas Klamt, Michael Diedenhofen            : otool_cosmo (COSMO solvation model)
   Jiri Pittner, Ondrej Demel                    : Mk-CCSD
   Frank Weinhold                                : gennbo (NPA and NBO analysis)
   Christopher J. Cramer and Donald G. Truhlar   : smd solvation model
   Lars Goerigk                                  : TD-DFT with DH, B97 family of functionals
   V. Asgeirsson, H. Jonsson                     : NEB implementation
   FAccTs GmbH                                   : IRC, NEB, NEB-TS, Multilevel, MM, QM/MM, CI optimization
   S Lehtola, MJT Oliveira, MAL Marques          : LibXC Library


 Your calculation uses the libint2 library for the computation of 2-el integrals
 For citations please refer to: http://libint.valeyev.net

 Your ORCA version has been built with support for libXC version: 4.2.3
 For citations please refer to: https://tddft.org/programs/libxc/

 This ORCA versions uses:
   CBLAS   interface :  Fast vector & matrix operations
   LAPACKE interface :  Fast linear algebra routines
   SCALAPACK package :  Parallel linear algebra routines


----- Orbital basis set information -----
Your calculation utilizes the basis: def2-TZVP
   F. Weigend and R. Ahlrichs, Phys. Chem. Chem. Phys. 7, 3297 (2005).

================================================================================
                                        WARNINGS
                       Please study these warnings very carefully!
================================================================================


WARNING: The frozen-core approximation for MP2-gradient calculations is turned on by default.

INFO   : the flag for use of LIBINT has been found!

================================================================================
                                       INPUT FILE
================================================================================
NAME = 12h2o.su.etal.mol0,2,3,4,5,7,11-orca.engrad-mp2.def2tzvp.frozencore.inp
|  1> # 12h2o.su.etal.mol0,2,3,4,5,7,11
|  2> ! MP2 def2-TZVP EnGrad TightSCF
|  3> 
|  4> %pal
|  5>     nprocs 6
|  6> end
|  7> 
|  8> %maxcore 8000
|  9> 
| 10> %scf
| 11>     ConvForced true
| 12> end
| 13> 
| 14> *xyz 0 1
| 15> O   1.794470000   0.923410000   2.768350000
| 16> H   2.338250000   1.359750000   3.430940000
| 17> H   0.879480000   1.303000000   2.865760000
| 18> O   0.923410000  -1.794470000  -2.768350000
| 19> H   1.359750000  -2.338250000  -3.430940000
| 20> H   1.303000000  -0.879480000  -2.865760000
| 21> O  -1.752130000  -0.741530000  -2.896280000
| 22> H  -2.036450000  -0.920500000  -1.984040000
| 23> H  -0.921210000  -1.242140000  -2.984230000
| 24> O  -0.885520000   1.737840000   0.052730000
| 25> H  -1.032320000   2.090180000  -0.841890000
| 26> H  -1.284090000   0.839590000   0.017130000
| 27> O   0.885520000  -1.737840000   0.052730000
| 28> H   1.284090000  -0.839590000   0.017130000
| 29> H   1.032320000  -2.090180000  -0.841890000
| 30> O  -1.737840000  -0.885520000  -0.052730000
| 31> H  -2.090180000  -1.032320000   0.841890000
| 32> H  -0.839590000  -1.284090000  -0.017130000
| 33> O  -0.741530000   1.752130000   2.896280000
| 34> H  -0.920500000   2.036450000   1.984040000
| 35> H  -1.242140000   0.921210000   2.984230000
| 36> *
| 37> 
| 38>                          ****END OF INPUT****
================================================================================

                     *******************************
                     * Energy+Gradient Calculation *
                     *******************************

---------------------------------
CARTESIAN COORDINATES (ANGSTROEM)
---------------------------------
  O      1.794470    0.923410    2.768350
  H      2.338250    1.359750    3.430940
  H      0.879480    1.303000    2.865760
  O      0.923410   -1.794470   -2.768350
  H      1.359750   -2.338250   -3.430940
  H      1.303000   -0.879480   -2.865760
  O     -1.752130   -0.741530   -2.896280
  H     -2.036450   -0.920500   -1.984040
  H     -0.921210   -1.242140   -2.984230
  O     -0.885520    1.737840    0.052730
  H     -1.032320    2.090180   -0.841890
  H     -1.284090    0.839590    0.017130
  O      0.885520   -1.737840    0.052730
  H      1.284090   -0.839590    0.017130
  H      1.032320   -2.090180   -0.841890
  O     -1.737840   -0.885520   -0.052730
  H     -2.090180   -1.032320    0.841890
  H     -0.839590   -1.284090   -0.017130
  O     -0.741530    1.752130    2.896280
  H     -0.920500    2.036450    1.984040
  H     -1.242140    0.921210    2.984230

----------------------------
CARTESIAN COORDINATES (A.U.)
----------------------------
  NO LB      ZA    FRAG     MASS         X           Y           Z
   0 O     8.0000    0    15.999    3.391057    1.744992    5.231423
   1 H     1.0000    0     1.008    4.418652    2.569555    6.483537
   2 H     1.0000    0     1.008    1.661976    2.462313    5.415502
   3 O     8.0000    0    15.999    1.744992   -3.391057   -5.231423
   4 H     1.0000    0     1.008    2.569555   -4.418652   -6.483537
   5 H     1.0000    0     1.008    2.462313   -1.661976   -5.415502
   6 O     8.0000    0    15.999   -3.311046   -1.401289   -5.473176
   7 H     1.0000    0     1.008   -3.848333   -1.739493   -3.749292
   8 H     1.0000    0     1.008   -1.740835   -2.347304   -5.639377
   9 O     8.0000    0    15.999   -1.673390    3.284042    0.099645
  10 H     1.0000    0     1.008   -1.950802    3.949868   -1.590942
  11 H     1.0000    0     1.008   -2.426578    1.586595    0.032371
  12 O     8.0000    0    15.999    1.673390   -3.284042    0.099645
  13 H     1.0000    0     1.008    2.426578   -1.586595    0.032371
  14 H     1.0000    0     1.008    1.950802   -3.949868   -1.590942
  15 O     8.0000    0    15.999   -3.284042   -1.673390   -0.099645
  16 H     1.0000    0     1.008   -3.949868   -1.950802    1.590942
  17 H     1.0000    0     1.008   -1.586595   -2.426578   -0.032371
  18 O     8.0000    0    15.999   -1.401289    3.311046    5.473176
  19 H     1.0000    0     1.008   -1.739493    3.848333    3.749292
  20 H     1.0000    0     1.008   -2.347304    1.740835    5.639377

--------------------------------
INTERNAL COORDINATES (ANGSTROEM)
--------------------------------
 O      0   0   0     0.000000000000     0.00000000     0.00000000
 H      1   0   0     0.961828878803     0.00000000     0.00000000
 H      1   2   0     0.995381322057   106.21731035     0.00000000
 O      1   2   3     6.229017908788   152.78811022   148.20682389
 H      4   1   2     0.961828878803   142.70840549    32.77530239
 H      4   1   2     0.995381322057    68.44287781   304.10042923
 O      4   1   2     2.878117964938    90.56600904   213.46992033
 H      7   4   1     0.972136791249    99.37069922   316.39996436
 H      7   4   1     0.974050112161    12.30570018   203.88443535
 O      3   1   2     3.349245975813   116.85538783   143.82107740
 H     10   3   1     0.972645187106   154.03893681   304.15813038
 H     10   3   1     0.983350632989    97.20424340    87.67157074
 O      4   1   2     2.821902722526    26.43043848   121.43990250
 H     13   4   1     0.983350632989    88.66470709   356.04997417
 H     13   4   1     0.972645187106    21.75017499   221.89319655
 O     12  10   3     1.785153773264   170.81379649   301.36914736
 H     16  12  10     0.972645187106   101.65007623   109.44492584
 H     16  12  10     0.983350632989    99.09581498     3.33484705
 O      3   1   2     1.682356278379   171.61043709   195.73896161
 H     19   3   1     0.972136791249   103.79460456   289.35412162
 H     19   3   1     0.974050112161   105.61118924    38.30604821

---------------------------
INTERNAL COORDINATES (A.U.)
---------------------------
 O      0   0   0     0.000000000000     0.00000000     0.00000000
 H      1   0   0     1.817593168635     0.00000000     0.00000000
 H      1   2   0     1.880998097508   106.21731035     0.00000000
 O      1   2   3    11.771137930900   152.78811022   148.20682389
 H      4   1   2     1.817593168635   142.70840549    32.77530239
 H      4   1   2     1.880998097508    68.44287781   304.10042923
 O      4   1   2     5.438854734852    90.56600904   213.46992033
 H      7   4   1     1.837072300170    99.37069922   316.39996436
 H      7   4   1     1.840687952699    12.30570018   203.88443535
 O      3   1   2     6.329157649425   116.85538783   143.82107740
 H     10   3   1     1.838033029106   154.03893681   304.15813038
 H     10   3   1     1.858263389967    97.20424340    87.67157074
 O      4   1   2     5.332623322141    26.43043848   121.43990250
 H     13   4   1     1.858263389967    88.66470709   356.04997417
 H     13   4   1     1.838033029106    21.75017499   221.89319655
 O     12  10   3     3.373451738406   170.81379649   301.36914736
 H     16  12  10     1.838033029106   101.65007623   109.44492584
 H     16  12  10     1.858263389967    99.09581498     3.33484705
 O      3   1   2     3.179192625819   171.61043709   195.73896161
 H     19   3   1     1.837072300170   103.79460456   289.35412162
 H     19   3   1     1.840687952699   105.61118924    38.30604821

---------------------
BASIS SET INFORMATION
---------------------
There are 2 groups of distinct atoms

 Group   1 Type O   : 11s6p2d1f contracted to 5s3p2d1f pattern {62111/411/11/1}
 Group   2 Type H   : 5s1p contracted to 3s1p pattern {311/1}

Atom   0O    basis set group =>   1
Atom   1H    basis set group =>   2
Atom   2H    basis set group =>   2
Atom   3O    basis set group =>   1
Atom   4H    basis set group =>   2
Atom   5H    basis set group =>   2
Atom   6O    basis set group =>   1
Atom   7H    basis set group =>   2
Atom   8H    basis set group =>   2
Atom   9O    basis set group =>   1
Atom  10H    basis set group =>   2
Atom  11H    basis set group =>   2
Atom  12O    basis set group =>   1
Atom  13H    basis set group =>   2
Atom  14H    basis set group =>   2
Atom  15O    basis set group =>   1
Atom  16H    basis set group =>   2
Atom  17H    basis set group =>   2
Atom  18O    basis set group =>   1
Atom  19H    basis set group =>   2
Atom  20H    basis set group =>   2


           ************************************************************
           *        Program running with 6 parallel MPI-processes     *
           *              working on a common directory               *
           ************************************************************
------------------------------------------------------------------------------
                           ORCA GTO INTEGRAL CALCULATION
------------------------------------------------------------------------------

                         BASIS SET STATISTICS AND STARTUP INFO

 # of primitive gaussian shells          ...  224
 # of primitive gaussian functions       ...  434
 # of contracted shells                  ...  133
 # of contracted basis functions         ...  301
 Highest angular momentum                ...    3
 Maximum contraction depth               ...    6
 Integral package used                   ... LIBINT
 Integral threshhold            Thresh   ...  2.500e-11
 Primitive cut-off              TCut     ...  2.500e-12


------------------------------ INTEGRAL EVALUATION ----------------------------


 * One electron integrals 
 Pre-screening matrix                    ... done
 Shell pair data                         ... done (   0.002 sec)



           ************************************************************
           *        Program running with 6 parallel MPI-processes     *
           *              working on a common directory               *
           ************************************************************
-------------------------------------------------------------------------------
                                 ORCA SCF
-------------------------------------------------------------------------------

------------
SCF SETTINGS
------------
Hamiltonian:
 Ab initio Hamiltonian  Method          .... Hartree-Fock(GTOs)


General Settings:
 Integral files         IntName         .... 12h2o.su.etal.mol0,2,3,4,5,7,11-orca.engrad-mp2.def2tzvp.frozencore
 Hartree-Fock type      HFTyp           .... RHF
 Total Charge           Charge          ....    0
 Multiplicity           Mult            ....    1
 Number of Electrons    NEL             ....   70
 Basis Dimension        Dim             ....  301
 Nuclear Repulsion      ENuc            ....    356.1847112522 Eh

Convergence Acceleration:
 DIIS                   CNVDIIS         .... on
   Start iteration      DIISMaxIt       ....    12
   Startup error        DIISStart       ....  0.200000
   # of expansion vecs  DIISMaxEq       ....     5
   Bias factor          DIISBfac        ....   1.050
   Max. coefficient     DIISMaxC        ....  10.000
 Newton-Raphson         CNVNR           .... off
 SOSCF                  CNVSOSCF        .... on
   Start iteration      SOSCFMaxIt      ....   150
   Startup grad/error   SOSCFStart      ....  0.003300
 Level Shifting         CNVShift        .... on
   Level shift para.    LevelShift      ....    0.2500
   Turn off err/grad.   ShiftErr        ....    0.0010
 Zerner damping         CNVZerner       .... off
 Static damping         CNVDamp         .... on
   Fraction old density DampFac         ....    0.7000
   Max. Damping (<1)    DampMax         ....    0.9800
   Min. Damping (>=0)   DampMin         ....    0.0000
   Turn off err/grad.   DampErr         ....    0.1000
 Fernandez-Rico         CNVRico         .... off

SCF Procedure:
 Maximum # iterations   MaxIter         ....   125
 SCF integral mode      SCFMode         .... Direct
   Integral package                     .... LIBINT
 Reset frequency        DirectResetFreq ....    20
 Integral Threshold     Thresh          ....  2.500e-11 Eh
 Primitive CutOff       TCut            ....  2.500e-12 Eh

Convergence Tolerance:
 Convergence Check Mode ConvCheckMode   .... Total+1el-Energy
 Convergence forced     ConvForced      .... 1
 Energy Change          TolE            ....  1.000e-08 Eh
 1-El. energy change                    ....  1.000e-05 Eh
 Orbital Gradient       TolG            ....  1.000e-05
 Orbital Rotation angle TolX            ....  1.000e-05
 DIIS Error             TolErr          ....  5.000e-07


Diagonalization of the overlap matrix:
Smallest eigenvalue                        ... 3.349e-03
Time for diagonalization                   ...    0.013 sec
Threshold for overlap eigenvalues          ... 1.000e-08
Number of eigenvalues below threshold      ... 0
Time for construction of square roots      ...    0.007 sec
Total time needed                          ...    0.021 sec

-------------------
DFT GRID GENERATION
-------------------

General Integration Accuracy     IntAcc      ...  4.340
Radial Grid Type                 RadialGrid  ... Gauss-Chebyshev
Angular Grid (max. acc.)         AngularGrid ... Lebedev-110
Angular grid pruning method      GridPruning ... 3 (G Style)
Weight generation scheme         WeightScheme... Becke
Basis function cutoff            BFCut       ...    1.0000e-11
Integration weight cutoff        WCut        ...    1.0000e-14
Grids for H and He will be reduced by one unit

# of grid points (after initial pruning)     ...  23128 (   0.0 sec)
# of grid points (after weights+screening)   ...  21690 (   0.0 sec)
nearest neighbour list constructed           ...    0.0 sec
Grid point re-assignment to atoms done       ...    0.0 sec
Grid point division into batches done        ...    0.0 sec
Reduced shell lists constructed in    0.0 sec

Total number of grid points                  ...    21690
Total number of batches                      ...      349
Average number of points per batch           ...       62
Average number of grid points per atom       ...     1033
Average number of shells per batch           ...    58.18 (43.75%)
Average number of basis functions per batch  ...   116.48 (38.70%)
Average number of large shells per batch     ...    39.33 (67.60%)
Average number of large basis fcns per batch ...    79.30 (68.08%)
Maximum spatial batch extension              ...  12.83, 18.30, 14.52 au
Average spatial batch extension              ...   0.54,  0.61,  0.59 au

Time for grid setup =    0.080 sec

------------------------------
INITIAL GUESS: MODEL POTENTIAL
------------------------------
Loading Hartree-Fock densities                     ... done
Calculating cut-offs                               ... done
Setting up the integral package                    ... done
Initializing the effective Hamiltonian             ... done
Starting the Coulomb interaction                   ... done (   0.0 sec)
Reading the grid                                   ... done
Mapping shells                                     ... done
Starting the XC term evaluation                    ... done (   0.0 sec)
Transforming the Hamiltonian                       ... done (   0.0 sec)
Diagonalizing the Hamiltonian                      ... done (   0.0 sec)
Back transforming the eigenvectors                 ... done (   0.0 sec)
Now organizing SCF variables                       ... done
                      ------------------
                      INITIAL GUESS DONE (   0.2 sec)
                      ------------------
--------------
SCF ITERATIONS
--------------
ITER       Energy         Delta-E        Max-DP      RMS-DP      [F,P]     Damp
               ***  Starting incremental Fock matrix formation  ***
  0   -531.8255434468   0.000000000000 0.04401013  0.00089317  0.3502819 0.7000
  1   -532.0655578210  -0.240014374120 0.02937691  0.00061909  0.2167314 0.7000
                               ***Turning on DIIS***
  2   -532.1929564049  -0.127398583973 0.01644363  0.00034673  0.1634691 0.7000
  3   -533.3560315280  -1.163075123019 0.00763266  0.00015987  0.1218404 0.7000
  4   -533.1210971647   0.234934363209 0.01736614  0.00037121  0.0861886 0.0000
  5   -532.4854192153   0.635677949444 0.00223499  0.00005967  0.0053274 0.0000
                      *** Initiating the SOSCF procedure ***
                           *** Shutting down DIIS ***
                      *** Re-Reading the Fockian *** 
                      *** Removing any level shift *** 
ITER      Energy       Delta-E        Grad      Rot      Max-DP    RMS-DP
  6   -532.44990070   0.0355185186  0.000870  0.000870  0.001416  0.000037
               *** Restarting incremental Fock matrix formation ***
  7   -532.43938950   0.0105111936  0.000300  0.000410  0.000649  0.000016
  8   -532.43939977  -0.0000102685  0.000138  0.000328  0.000548  0.000013
  9   -532.43940223  -0.0000024563  0.000078  0.000043  0.000089  0.000002
 10   -532.43940243  -0.0000002015  0.000014  0.000008  0.000020  0.000000
                  ***Gradient check signals convergence***
              ***Rediagonalizing the Fockian in SOSCF/NRSCF***

               *****************************************************
               *                     SUCCESS                       *
               *           SCF CONVERGED AFTER  11 CYCLES          *
               *****************************************************


----------------
TOTAL SCF ENERGY
----------------

Total Energy       :         -532.43940243 Eh          -14488.41272 eV

Components:
Nuclear Repulsion  :          356.18471125 Eh            9692.27874 eV
Electronic Energy  :         -888.62411369 Eh          -24180.69146 eV
One Electron Energy:        -1445.10027613 Eh          -39323.17767 eV
Two Electron Energy:          556.47616244 Eh           15142.48621 eV

Virial components:
Potential Energy   :        -1064.18634478 Eh          -28957.98264 eV
Kinetic Energy     :          531.74694234 Eh           14469.56992 eV
Virial Ratio       :            2.00130224


---------------
SCF CONVERGENCE
---------------

  Last Energy change         ...   -5.5218e-09  Tolerance :   1.0000e-08
  Last MAX-Density change    ...    6.2783e-06  Tolerance :   1.0000e-07
  Last RMS-Density change    ...    1.3035e-07  Tolerance :   5.0000e-09
  Last Orbital Gradient      ...    2.4547e-06  Tolerance :   1.0000e-05
  Last Orbital Rotation      ...    2.6805e-06  Tolerance :   1.0000e-05

             **** THE GBW FILE WAS UPDATED (12h2o.su.etal.mol0,2,3,4,5,7,11-orca.engrad-mp2.def2tzvp.frozencore.gbw) ****
             **** DENSITY FILE WAS UPDATED (12h2o.su.etal.mol0,2,3,4,5,7,11-orca.engrad-mp2.def2tzvp.frozencore.scfp) ****
             **** ENERGY FILE WAS UPDATED (12h2o.su.etal.mol0,2,3,4,5,7,11-orca.engrad-mp2.def2tzvp.frozencore.en.tmp) ****
             **** THE GBW FILE WAS UPDATED (12h2o.su.etal.mol0,2,3,4,5,7,11-orca.engrad-mp2.def2tzvp.frozencore.gbw) ****
             **** DENSITY FILE WAS UPDATED (12h2o.su.etal.mol0,2,3,4,5,7,11-orca.engrad-mp2.def2tzvp.frozencore.scfp) ****
----------------
ORBITAL ENERGIES
----------------

  NO   OCC          E(Eh)            E(eV) 
   0   2.0000     -20.625168      -561.2394 
   1   2.0000     -20.583939      -560.1174 
   2   2.0000     -20.577770      -559.9496 
   3   2.0000     -20.565448      -559.6143 
   4   2.0000     -20.555133      -559.3336 
   5   2.0000     -20.524386      -558.4969 
   6   2.0000     -20.508888      -558.0752 
   7   2.0000      -1.405655       -38.2498 
   8   2.0000      -1.377325       -37.4789 
   9   2.0000      -1.357009       -36.9261 
  10   2.0000      -1.354969       -36.8706 
  11   2.0000      -1.335594       -36.3434 
  12   2.0000      -1.309538       -35.6343 
  13   2.0000      -1.290824       -35.1251 
  14   2.0000      -0.771094       -20.9825 
  15   2.0000      -0.738146       -20.0860 
  16   2.0000      -0.724833       -19.7237 
  17   2.0000      -0.719305       -19.5733 
  18   2.0000      -0.707383       -19.2489 
  19   2.0000      -0.689961       -18.7748 
  20   2.0000      -0.678684       -18.4679 
  21   2.0000      -0.648477       -17.6460 
  22   2.0000      -0.622666       -16.9436 
  23   2.0000      -0.603424       -16.4200 
  24   2.0000      -0.602693       -16.4001 
  25   2.0000      -0.578051       -15.7296 
  26   2.0000      -0.561987       -15.2925 
  27   2.0000      -0.541023       -14.7220 
  28   2.0000      -0.538353       -14.6493 
  29   2.0000      -0.524301       -14.2670 
  30   2.0000      -0.518868       -14.1191 
  31   2.0000      -0.505601       -13.7581 
  32   2.0000      -0.494326       -13.4513 
  33   2.0000      -0.473883       -12.8950 
  34   2.0000      -0.459434       -12.5018 
  35   0.0000       0.082379         2.2416 
  36   0.0000       0.105784         2.8785 
  37   0.0000       0.145809         3.9677 
  38   0.0000       0.168787         4.5929 
  39   0.0000       0.172608         4.6969 
  40   0.0000       0.185624         5.0511 
  41   0.0000       0.205203         5.5839 
  42   0.0000       0.234583         6.3833 
  43   0.0000       0.257201         6.9988 
  44   0.0000       0.268885         7.3167 
  45   0.0000       0.305210         8.3052 
  46   0.0000       0.318430         8.6649 
  47   0.0000       0.334736         9.1086 
  48   0.0000       0.351617         9.5680 
  49   0.0000       0.421698        11.4750 
  50   0.0000       0.465278        12.6609 
  51   0.0000       0.480279        13.0691 
  52   0.0000       0.487753        13.2724 
  53   0.0000       0.500333        13.6148 
  54   0.0000       0.517248        14.0750 
  55   0.0000       0.529663        14.4129 
  56   0.0000       0.545410        14.8414 
  57   0.0000       0.557358        15.1665 
  58   0.0000       0.560813        15.2605 
  59   0.0000       0.571085        15.5400 
  60   0.0000       0.590937        16.0802 
  61   0.0000       0.603803        16.4303 
  62   0.0000       0.606271        16.4975 
  63   0.0000       0.616139        16.7660 
  64   0.0000       0.631271        17.1778 
  65   0.0000       0.652478        17.7548 
  66   0.0000       0.659236        17.9387 
  67   0.0000       0.669276        18.2119 
  68   0.0000       0.680673        18.5221 
  69   0.0000       0.690442        18.7879 
  70   0.0000       0.697465        18.9790 
  71   0.0000       0.712916        19.3994 
  72   0.0000       0.726138        19.7592 
  73   0.0000       0.733304        19.9542 
  74   0.0000       0.758771        20.6472 
  75   0.0000       0.762373        20.7452 
  76   0.0000       0.794976        21.6324 
  77   0.0000       0.799343        21.7512 
  78   0.0000       0.811656        22.0863 
  79   0.0000       0.833075        22.6691 
  80   0.0000       0.836576        22.7644 
  81   0.0000       0.846523        23.0351 
  82   0.0000       0.881291        23.9811 
  83   0.0000       0.923413        25.1274 
  84   0.0000       0.938446        25.5364 
  85   0.0000       0.972138        26.4532 
  86   0.0000       0.980789        26.6886 
  87   0.0000       1.031010        28.0552 
  88   0.0000       1.057108        28.7654 
  89   0.0000       1.109603        30.1938 
  90   0.0000       1.113965        30.3125 
  91   0.0000       1.349800        36.7299 
  92   0.0000       1.354275        36.8517 
  93   0.0000       1.378431        37.5090 
  94   0.0000       1.389380        37.8070 
  95   0.0000       1.392197        37.8836 
  96   0.0000       1.414509        38.4908 
  97   0.0000       1.418854        38.6090 
  98   0.0000       1.432219        38.9727 
  99   0.0000       1.456309        39.6282 
 100   0.0000       1.488909        40.5153 
 101   0.0000       1.501298        40.8524 
 102   0.0000       1.503441        40.9107 
 103   0.0000       1.521177        41.3933 
 104   0.0000       1.524944        41.4958 
 105   0.0000       1.552497        42.2456 
 106   0.0000       1.562968        42.5305 
 107   0.0000       1.594906        43.3996 
 108   0.0000       1.603331        43.6289 
 109   0.0000       1.607707        43.7479 
 110   0.0000       1.645409        44.7738 
 111   0.0000       1.654609        45.0242 
 112   0.0000       1.785370        48.5824 
 113   0.0000       1.817129        49.4466 
 114   0.0000       1.824927        49.6588 
 115   0.0000       1.837468        50.0001 
 116   0.0000       1.854687        50.4686 
 117   0.0000       1.872020        50.9402 
 118   0.0000       1.894387        51.5489 
 119   0.0000       1.928068        52.4654 
 120   0.0000       1.937576        52.7241 
 121   0.0000       1.949593        53.0511 
 122   0.0000       1.962550        53.4037 
 123   0.0000       1.989162        54.1278 
 124   0.0000       2.002297        54.4853 
 125   0.0000       2.050315        55.7919 
 126   0.0000       2.061284        56.0904 
 127   0.0000       2.072811        56.4040 
 128   0.0000       2.110141        57.4199 
 129   0.0000       2.119798        57.6826 
 130   0.0000       2.133517        58.0559 
 131   0.0000       2.165982        58.9394 
 132   0.0000       2.209930        60.1352 
 133   0.0000       2.247280        61.1516 
 134   0.0000       2.265963        61.6600 
 135   0.0000       2.280865        62.0655 
 136   0.0000       2.298522        62.5460 
 137   0.0000       2.305212        62.7280 
 138   0.0000       2.329741        63.3955 
 139   0.0000       2.334760        63.5320 
 140   0.0000       2.339642        63.6649 
 141   0.0000       2.353799        64.0501 
 142   0.0000       2.367587        64.4253 
 143   0.0000       2.371670        64.5364 
 144   0.0000       2.393055        65.1183 
 145   0.0000       2.412984        65.6606 
 146   0.0000       2.436994        66.3140 
 147   0.0000       2.446804        66.5809 
 148   0.0000       2.459934        66.9382 
 149   0.0000       2.486459        67.6600 
 150   0.0000       2.522913        68.6519 
 151   0.0000       2.536919        69.0331 
 152   0.0000       2.547657        69.3253 
 153   0.0000       2.565879        69.8211 
 154   0.0000       2.603729        70.8511 
 155   0.0000       2.605480        70.8987 
 156   0.0000       2.634778        71.6960 
 157   0.0000       2.635867        71.7256 
 158   0.0000       2.641407        71.8763 
 159   0.0000       2.650041        72.1113 
 160   0.0000       2.659648        72.3727 
 161   0.0000       2.692162        73.2574 
 162   0.0000       2.700222        73.4768 
 163   0.0000       2.713206        73.8301 
 164   0.0000       2.723896        74.1210 
 165   0.0000       2.761866        75.1542 
 166   0.0000       2.780317        75.6563 
 167   0.0000       2.821945        76.7890 
 168   0.0000       2.870526        78.1110 
 169   0.0000       2.904131        79.0254 
 170   0.0000       2.925113        79.5964 
 171   0.0000       2.941101        80.0314 
 172   0.0000       2.956485        80.4501 
 173   0.0000       2.975089        80.9563 
 174   0.0000       2.983798        81.1933 
 175   0.0000       2.995826        81.5206 
 176   0.0000       3.003767        81.7367 
 177   0.0000       3.035924        82.6117 
 178   0.0000       3.053815        83.0985 
 179   0.0000       3.061949        83.3199 
 180   0.0000       3.082767        83.8863 
 181   0.0000       3.094648        84.2096 
 182   0.0000       3.118368        84.8551 
 183   0.0000       3.138288        85.3971 
 184   0.0000       3.140164        85.4482 
 185   0.0000       3.189458        86.7896 
 186   0.0000       3.233910        87.9992 
 187   0.0000       3.248250        88.3894 
 188   0.0000       3.267724        88.9193 
 189   0.0000       3.274882        89.1141 
 190   0.0000       3.300985        89.8244 
 191   0.0000       3.331269        90.6484 
 192   0.0000       3.348559        91.1189 
 193   0.0000       3.429736        93.3279 
 194   0.0000       3.486628        94.8760 
 195   0.0000       3.525944        95.9458 
 196   0.0000       3.958069       107.7045 
 197   0.0000       4.039268       109.9141 
 198   0.0000       4.049455       110.1913 
 199   0.0000       4.079850       111.0184 
 200   0.0000       4.096828       111.4804 
 201   0.0000       4.126513       112.2881 
 202   0.0000       4.134946       112.5176 
 203   0.0000       4.256656       115.8295 
 204   0.0000       4.296691       116.9189 
 205   0.0000       4.311127       117.3117 
 206   0.0000       4.331298       117.8606 
 207   0.0000       4.352336       118.4331 
 208   0.0000       4.366038       118.8059 
 209   0.0000       4.420688       120.2930 
 210   0.0000       5.488811       149.3581 
 211   0.0000       5.518574       150.1680 
 212   0.0000       5.526703       150.3892 
 213   0.0000       5.539921       150.7489 
 214   0.0000       5.550992       151.0502 
 215   0.0000       5.579827       151.8348 
 216   0.0000       5.582639       151.9113 
 217   0.0000       5.596419       152.2863 
 218   0.0000       5.647231       153.6690 
 219   0.0000       5.656156       153.9118 
 220   0.0000       5.660790       154.0379 
 221   0.0000       5.679551       154.5484 
 222   0.0000       5.686976       154.7505 
 223   0.0000       5.695738       154.9889 
 224   0.0000       5.751031       156.4935 
 225   0.0000       5.790814       157.5761 
 226   0.0000       5.793419       157.6470 
 227   0.0000       5.809525       158.0852 
 228   0.0000       5.823690       158.4707 
 229   0.0000       5.825203       158.5118 
 230   0.0000       5.831357       158.6793 
 231   0.0000       5.844703       159.0425 
 232   0.0000       5.848781       159.1534 
 233   0.0000       5.858309       159.4127 
 234   0.0000       5.861360       159.4957 
 235   0.0000       5.867918       159.6742 
 236   0.0000       5.873292       159.8204 
 237   0.0000       5.878361       159.9583 
 238   0.0000       5.883115       160.0877 
 239   0.0000       5.898456       160.5051 
 240   0.0000       5.900375       160.5574 
 241   0.0000       5.905009       160.6835 
 242   0.0000       5.914876       160.9520 
 243   0.0000       5.938016       161.5816 
 244   0.0000       5.978255       162.6766 
 245   0.0000       6.369655       173.3271 
 246   0.0000       6.447946       175.4575 
 247   0.0000       6.457630       175.7211 
 248   0.0000       6.472144       176.1160 
 249   0.0000       6.490675       176.6203 
 250   0.0000       6.516789       177.3308 
 251   0.0000       6.520227       177.4244 
 252   0.0000       6.638905       180.6538 
 253   0.0000       6.653771       181.0583 
 254   0.0000       6.708625       182.5510 
 255   0.0000       6.713777       182.6911 
 256   0.0000       6.723283       182.9498 
 257   0.0000       6.764297       184.0659 
 258   0.0000       6.768257       184.1736 
 259   0.0000       6.824798       185.7122 
 260   0.0000       6.831511       185.8949 
 261   0.0000       6.848978       186.3702 
 262   0.0000       6.852172       186.4571 
 263   0.0000       6.859596       186.6591 
 264   0.0000       6.871742       186.9896 
 265   0.0000       6.878294       187.1679 
 266   0.0000       6.887571       187.4203 
 267   0.0000       6.896553       187.6647 
 268   0.0000       6.903272       187.8476 
 269   0.0000       6.916972       188.2204 
 270   0.0000       6.926102       188.4688 
 271   0.0000       6.937012       188.7657 
 272   0.0000       6.961166       189.4230 
 273   0.0000       6.963499       189.4864 
 274   0.0000       6.992266       190.2692 
 275   0.0000       7.001013       190.5072 
 276   0.0000       7.007903       190.6947 
 277   0.0000       7.016977       190.9417 
 278   0.0000       7.068255       192.3370 
 279   0.0000       7.098749       193.1668 
 280   0.0000       7.326035       199.3515 
 281   0.0000       7.349911       200.0012 
 282   0.0000       7.413026       201.7187 
 283   0.0000       7.432469       202.2478 
 284   0.0000       7.433319       202.2709 
 285   0.0000       7.446189       202.6211 
 286   0.0000       7.484967       203.6763 
 287   0.0000       7.516711       204.5401 
 288   0.0000       7.542494       205.2417 
 289   0.0000       7.546329       205.3461 
 290   0.0000       7.566540       205.8960 
 291   0.0000       7.585246       206.4050 
 292   0.0000       7.592756       206.6094 
 293   0.0000       7.616727       207.2617 
 294   0.0000      44.873084      1221.0587 
 295   0.0000      44.971731      1223.7430 
 296   0.0000      44.976840      1223.8820 
 297   0.0000      44.980908      1223.9927 
 298   0.0000      44.990782      1224.2614 
 299   0.0000      45.036433      1225.5036 
 300   0.0000      45.087479      1226.8927 

                    ********************************
                    * MULLIKEN POPULATION ANALYSIS *
                    ********************************

-----------------------
MULLIKEN ATOMIC CHARGES
-----------------------
   0 O :   -0.761954
   1 H :    0.330000
   2 H :    0.397141
   3 O :   -0.745617
   4 H :    0.379337
   5 H :    0.381141
   6 O :   -0.749761
   7 H :    0.383466
   8 H :    0.359743
   9 O :   -0.765504
  10 H :    0.359472
  11 H :    0.383303
  12 O :   -0.735931
  13 H :    0.373627
  14 H :    0.392254
  15 O :   -0.770937
  16 H :    0.359701
  17 H :    0.405212
  18 O :   -0.723990
  19 H :    0.408014
  20 H :    0.341285
Sum of atomic charges:    0.0000000

--------------------------------
MULLIKEN REDUCED ORBITAL CHARGES
--------------------------------
  0 O s       :     3.808125  s :     3.808125
      pz      :     1.715913  p :     4.928694
      px      :     1.410031
      py      :     1.802750
      dz2     :     0.004014  d :     0.023665
      dxz     :     0.004691
      dyz     :     0.005521
      dx2y2   :     0.002300
      dxy     :     0.007140
      f0      :     0.000088  f :     0.001471
      f+1     :     0.000327
      f-1     :     0.000186
      f+2     :     0.000070
      f-2     :     0.000360
      f+3     :     0.000089
      f-3     :     0.000352
  1 H s       :     0.623824  s :     0.623824
      pz      :     0.017036  p :     0.046176
      px      :     0.013914
      py      :     0.015226
  2 H s       :     0.545978  s :     0.545978
      pz      :     0.010744  p :     0.056882
      px      :     0.032161
      py      :     0.013977
  3 O s       :     3.806865  s :     3.806865
      pz      :     1.734310  p :     4.913396
      px      :     1.797174
      py      :     1.381913
      dz2     :     0.003951  d :     0.023876
      dxz     :     0.005425
      dyz     :     0.004410
      dx2y2   :     0.002564
      dxy     :     0.007527
      f0      :     0.000085  f :     0.001481
      f+1     :     0.000180
      f-1     :     0.000334
      f+2     :     0.000063
      f-2     :     0.000349
      f+3     :     0.000375
      f-3     :     0.000094
  4 H s       :     0.575801  s :     0.575801
      pz      :     0.016940  p :     0.044862
      px      :     0.014638
      py      :     0.013285
  5 H s       :     0.578313  s :     0.578313
      pz      :     0.010464  p :     0.040546
      px      :     0.012094
      py      :     0.017988
  6 O s       :     3.806185  s :     3.806185
      pz      :     1.547488  p :     4.917225
      px      :     1.552805
      py      :     1.816932
      dz2     :     0.011511  d :     0.024903
      dxz     :     0.001237
      dyz     :     0.002909
      dx2y2   :     0.002101
      dxy     :     0.007144
      f0      :     0.000252  f :     0.001448
      f+1     :     0.000371
      f-1     :     0.000161
      f+2     :     0.000056
      f-2     :     0.000055
      f+3     :     0.000066
      f-3     :     0.000487
  7 H s       :     0.567895  s :     0.567895
      pz      :     0.023845  p :     0.048640
      px      :     0.011676
      py      :     0.013118
  8 H s       :     0.589659  s :     0.589659
      pz      :     0.010498  p :     0.050598
      px      :     0.023332
      py      :     0.016767
  9 O s       :     3.808563  s :     3.808563
      pz      :     1.545185  p :     4.932569
      px      :     1.879573
      py      :     1.507811
      dz2     :     0.010147  d :     0.022920
      dxz     :     0.002295
      dyz     :     0.002510
      dx2y2   :     0.002864
      dxy     :     0.005105
      f0      :     0.000207  f :     0.001453
      f+1     :     0.000124
      f-1     :     0.000437
      f+2     :     0.000078
      f-2     :     0.000037
      f+3     :     0.000451
      f-3     :     0.000118
 10 H s       :     0.595786  s :     0.595786
      pz      :     0.018661  p :     0.044743
      px      :     0.013998
      py      :     0.012083
 11 H s       :     0.563062  s :     0.563062
      pz      :     0.009019  p :     0.053636
      px      :     0.015712
      py      :     0.028904
 12 O s       :     3.805300  s :     3.805300
      pz      :     1.593023  p :     4.903863
      px      :     1.837924
      py      :     1.472916
      dz2     :     0.011705  d :     0.025402
      dxz     :     0.002275
      dyz     :     0.002983
      dx2y2   :     0.003609
      dxy     :     0.004831
      f0      :     0.000147  f :     0.001366
      f+1     :     0.000111
      f-1     :     0.000457
      f+2     :     0.000066
      f-2     :     0.000039
      f+3     :     0.000443
      f-3     :     0.000103
 13 H s       :     0.583794  s :     0.583794
      pz      :     0.009916  p :     0.042579
      px      :     0.013938
      py      :     0.018725
 14 H s       :     0.559393  s :     0.559393
      pz      :     0.024780  p :     0.048353
      px      :     0.012732
      py      :     0.010840
 15 O s       :     3.802463  s :     3.802463
      pz      :     1.556543  p :     4.943899
      px      :     1.535985
      py      :     1.851370
      dz2     :     0.010841  d :     0.023216
      dxz     :     0.002674
      dyz     :     0.002043
      dx2y2   :     0.003131
      dxy     :     0.004527
      f0      :     0.000189  f :     0.001360
      f+1     :     0.000446
      f-1     :     0.000112
      f+2     :     0.000068
      f-2     :     0.000037
      f+3     :     0.000095
      f-3     :     0.000412
 16 H s       :     0.596164  s :     0.596164
      pz      :     0.018785  p :     0.044135
      px      :     0.011874
      py      :     0.013476
 17 H s       :     0.542446  s :     0.542446
      pz      :     0.008497  p :     0.052342
      px      :     0.029639
      py      :     0.014206
 18 O s       :     3.797282  s :     3.797282
      pz      :     1.581546  p :     4.900274
      px      :     1.784432
      py      :     1.534295
      dz2     :     0.011799  d :     0.025029
      dxz     :     0.002414
      dyz     :     0.001159
      dx2y2   :     0.002502
      dxy     :     0.007155
      f0      :     0.000225  f :     0.001405
      f+1     :     0.000157
      f-1     :     0.000382
      f+2     :     0.000051
      f-2     :     0.000056
      f+3     :     0.000480
      f-3     :     0.000055
 19 H s       :     0.544229  s :     0.544229
      pz      :     0.025165  p :     0.047756
      px      :     0.011647
      py      :     0.010944
 20 H s       :     0.614586  s :     0.614586
      pz      :     0.010831  p :     0.044129
      px      :     0.015156
      py      :     0.018142


                     *******************************
                     * LOEWDIN POPULATION ANALYSIS *
                     *******************************

----------------------
LOEWDIN ATOMIC CHARGES
----------------------
   0 O :   -0.375724
   1 H :    0.146579
   2 H :    0.152644
   3 O :   -0.297757
   4 H :    0.170041
   5 H :    0.193126
   6 O :   -0.355179
   7 H :    0.153893
   8 H :    0.145651
   9 O :   -0.346975
  10 H :    0.167815
  11 H :    0.150996
  12 O :   -0.304066
  13 H :    0.180218
  14 H :    0.157095
  15 O :   -0.306434
  16 H :    0.166346
  17 H :    0.158609
  18 O :   -0.286718
  19 H :    0.166298
  20 H :    0.163541

-------------------------------
LOEWDIN REDUCED ORBITAL CHARGES
-------------------------------
  0 O s       :     3.467596  s :     3.467596
      pz      :     1.704489  p :     4.876525
      px      :     1.392312
      py      :     1.779724
      dz2     :     0.004253  d :     0.029589
      dxz     :     0.007230
      dyz     :     0.005794
      dx2y2   :     0.003292
      dxy     :     0.009020
      f0      :     0.000073  f :     0.002014
      f+1     :     0.000440
      f-1     :     0.000268
      f+2     :     0.000034
      f-2     :     0.000636
      f+3     :     0.000084
      f-3     :     0.000479
  1 H s       :     0.689121  s :     0.689121
      pz      :     0.065491  p :     0.164300
      px      :     0.045489
      py      :     0.053321
  2 H s       :     0.652981  s :     0.652981
      pz      :     0.033478  p :     0.194375
      px      :     0.113379
      py      :     0.047518
  3 O s       :     3.462253  s :     3.462253
      pz      :     1.688053  p :     4.802120
      px      :     1.749245
      py      :     1.364822
      dz2     :     0.005423  d :     0.031319
      dxz     :     0.005240
      dyz     :     0.006526
      dx2y2   :     0.004256
      dxy     :     0.009873
      f0      :     0.000089  f :     0.002065
      f+1     :     0.000271
      f-1     :     0.000448
      f+2     :     0.000033
      f-2     :     0.000594
      f+3     :     0.000539
      f-3     :     0.000091
  4 H s       :     0.665744  s :     0.665744
      pz      :     0.066746  p :     0.164215
      px      :     0.052821
      py      :     0.044648
  5 H s       :     0.657931  s :     0.657931
      pz      :     0.033301  p :     0.148943
      px      :     0.043546
      py      :     0.072096
  6 O s       :     3.460870  s :     3.460870
      pz      :     1.531777  p :     4.861704
      px      :     1.538976
      py      :     1.790951
      dz2     :     0.015057  d :     0.030555
      dxz     :     0.001888
      dyz     :     0.002255
      dx2y2   :     0.002206
      dxy     :     0.009148
      f0      :     0.000449  f :     0.002050
      f+1     :     0.000548
      f-1     :     0.000306
      f+2     :     0.000023
      f-2     :     0.000047
      f+3     :     0.000002
      f-3     :     0.000675
  7 H s       :     0.675524  s :     0.675524
      pz      :     0.091521  p :     0.170584
      px      :     0.036793
      py      :     0.042270
  8 H s       :     0.681931  s :     0.681931
      pz      :     0.031430  p :     0.172418
      px      :     0.083277
      py      :     0.057711
  9 O s       :     3.461561  s :     3.461561
      pz      :     1.528538  p :     4.853913
      px      :     1.840153
      py      :     1.485222
      dz2     :     0.014198  d :     0.029485
      dxz     :     0.001586
      dyz     :     0.004031
      dx2y2   :     0.003667
      dxy     :     0.006003
      f0      :     0.000399  f :     0.002015
      f+1     :     0.000186
      f-1     :     0.000727
      f+2     :     0.000046
      f-2     :     0.000044
      f+3     :     0.000548
      f-3     :     0.000065
 10 H s       :     0.673310  s :     0.673310
      pz      :     0.079276  p :     0.158875
      px      :     0.043048
      py      :     0.036551
 11 H s       :     0.662824  s :     0.662824
      pz      :     0.029132  p :     0.186180
      px      :     0.052719
      py      :     0.104329
 12 O s       :     3.462543  s :     3.462543
      pz      :     1.571711  p :     4.807975
      px      :     1.778970
      py      :     1.457293
      dz2     :     0.014654  d :     0.031549
      dxz     :     0.001353
      dyz     :     0.003954
      dx2y2   :     0.005346
      dxy     :     0.006242
      f0      :     0.000330  f :     0.001999
      f+1     :     0.000204
      f-1     :     0.000710
      f+2     :     0.000038
      f-2     :     0.000044
      f+3     :     0.000601
      f-3     :     0.000072
 13 H s       :     0.665035  s :     0.665035
      pz      :     0.030209  p :     0.154747
      px      :     0.049062
      py      :     0.075476
 14 H s       :     0.670698  s :     0.670698
      pz      :     0.093406  p :     0.172207
      px      :     0.042652
      py      :     0.036148
 15 O s       :     3.456303  s :     3.456303
      pz      :     1.530954  p :     4.817811
      px      :     1.495647
      py      :     1.791209
      dz2     :     0.015041  d :     0.030335
      dxz     :     0.004115
      dyz     :     0.001320
      dx2y2   :     0.004483
      dxy     :     0.005376
      f0      :     0.000386  f :     0.001985
      f+1     :     0.000737
      f-1     :     0.000194
      f+2     :     0.000039
      f-2     :     0.000047
      f+3     :     0.000063
      f-3     :     0.000519
 16 H s       :     0.673768  s :     0.673768
      pz      :     0.079309  p :     0.159886
      px      :     0.037253
      py      :     0.043324
 17 H s       :     0.652716  s :     0.652716
      pz      :     0.028802  p :     0.188676
      px      :     0.107341
      py      :     0.052532
 18 O s       :     3.454021  s :     3.454021
      pz      :     1.548539  p :     4.798375
      px      :     1.725951
      py      :     1.523885
      dz2     :     0.015208  d :     0.032189
      dxz     :     0.001828
      dyz     :     0.001667
      dx2y2   :     0.003824
      dxy     :     0.009662
      f0      :     0.000397  f :     0.002133
      f+1     :     0.000336
      f-1     :     0.000563
      f+2     :     0.000021
      f-2     :     0.000045
      f+3     :     0.000743
      f-3     :     0.000027
 19 H s       :     0.661371  s :     0.661371
      pz      :     0.095542  p :     0.172331
      px      :     0.041129
      py      :     0.035660
 20 H s       :     0.678598  s :     0.678598
      pz      :     0.031556  p :     0.157861
      px      :     0.054938
      py      :     0.071367


                      *****************************
                      * MAYER POPULATION ANALYSIS *
                      *****************************

  NA   - Mulliken gross atomic population
  ZA   - Total nuclear charge
  QA   - Mulliken gross atomic charge
  VA   - Mayer's total valence
  BVA  - Mayer's bonded valence
  FA   - Mayer's free valence

  ATOM       NA         ZA         QA         VA         BVA        FA
  0 O      8.7620     8.0000    -0.7620     1.6941     1.6941     0.0000
  1 H      0.6700     1.0000     0.3300     0.9068     0.9068     0.0000
  2 H      0.6029     1.0000     0.3971     0.8774     0.8774    -0.0000
  3 O      8.7456     8.0000    -0.7456     1.7539     1.7539    -0.0000
  4 H      0.6207     1.0000     0.3793     0.8723     0.8723    -0.0000
  5 H      0.6189     1.0000     0.3811     0.8699     0.8699    -0.0000
  6 O      8.7498     8.0000    -0.7498     1.7384     1.7384     0.0000
  7 H      0.6165     1.0000     0.3835     0.8758     0.8758     0.0000
  8 H      0.6403     1.0000     0.3597     0.8981     0.8981     0.0000
  9 O      8.7655     8.0000    -0.7655     1.7038     1.7038    -0.0000
 10 H      0.6405     1.0000     0.3595     0.8896     0.8896    -0.0000
 11 H      0.6167     1.0000     0.3833     0.8932     0.8932    -0.0000
 12 O      8.7359     8.0000    -0.7359     1.7612     1.7612     0.0000
 13 H      0.6264     1.0000     0.3736     0.8789     0.8789     0.0000
 14 H      0.6077     1.0000     0.3923     0.8703     0.8703    -0.0000
 15 O      8.7709     8.0000    -0.7709     1.6944     1.6944     0.0000
 16 H      0.6403     1.0000     0.3597     0.8879     0.8879     0.0000
 17 H      0.5948     1.0000     0.4052     0.8770     0.8770     0.0000
 18 O      8.7240     8.0000    -0.7240     1.7551     1.7551    -0.0000
 19 H      0.5920     1.0000     0.4080     0.8625     0.8625    -0.0000
 20 H      0.6587     1.0000     0.3413     0.9000     0.9000     0.0000

  Mayer bond orders larger than 0.100000
B(  0-O ,  1-H ) :   0.9008 B(  0-O ,  2-H ) :   0.8114 B(  3-O ,  4-H ) :   0.8631 
B(  3-O ,  5-H ) :   0.8571 B(  6-O ,  7-H ) :   0.8580 B(  6-O ,  8-H ) :   0.8723 
B(  9-O , 10-H ) :   0.8796 B(  9-O , 11-H ) :   0.8168 B( 12-O , 13-H ) :   0.8634 
B( 12-O , 14-H ) :   0.8414 B( 15-O , 16-H ) :   0.8777 B( 15-O , 17-H ) :   0.7872 
B( 18-O , 19-H ) :   0.8246 B( 18-O , 20-H ) :   0.8906 

-------
TIMINGS
-------

Total SCF time: 0 days 0 hours 0 min 18 sec 

Total time                  ....      18.305 sec
Sum of individual times     ....      18.022 sec  ( 98.5%)

Fock matrix formation       ....      17.542 sec  ( 95.8%)
Diagonalization             ....       0.112 sec  (  0.6%)
Density matrix formation    ....       0.012 sec  (  0.1%)
Population analysis         ....       0.019 sec  (  0.1%)
Initial guess               ....       0.169 sec  (  0.9%)
Orbital Transformation      ....       0.000 sec  (  0.0%)
Orbital Orthonormalization  ....       0.000 sec  (  0.0%)
DIIS solution               ....       0.040 sec  (  0.2%)
SOSCF solution              ....       0.048 sec  (  0.3%)


           ************************************************************
           *        Program running with 6 parallel MPI-processes     *
           *              working on a common directory               *
           ************************************************************

------------------------------------------------------------------------------
                                ORCA  MP2 
------------------------------------------------------------------------------

Freezing NCore=14 chemical core electrons
MP2 will be done in the AO integral direct mode
The Q1-step will be done using symmetric double matrices
Dimension of the basis                    ...  301
Memory devoted for MP2                    ... 8000 MB   
Memory needed for all in one shot         ...  523 MB
Number of MOs that can be treated together...   75      
MP2 density construction                  ... relaxed
The MP2 gradient is requested => amplitudes will be stored on disk
Total number of MOs              ...   28
Number of MOs treated per batch  ...    5 
Number of batches necessary      ...    1 
OPERATORS   0/  0 PASS   0
-----------------------------------------------
 MP2 CORRELATION ENERGY   :     -1.810995956 Eh
-----------------------------------------------


---------------------
MP2 DENSITY FORMATION
---------------------

Completing the external part of the density      ... done
Storing the unrelaxed density                    ... done

Calculating G(D)                                 ... done
Completing the Lagrangian                        ... done
Solving the Z-vector equations                   ... 

------------------------------------------------------------------------------
                           ORCA CP-SCF CALCULATION
------------------------------------------------------------------------------

Input orbitals are from        ... 12h2o.su.etal.mol0,2,3,4,5,7,11-orca.engrad-mp2.def2tzvp.frozencore.gbw
Input Perturbation             ... 12h2o.su.etal.mol0,2,3,4,5,7,11-orca.engrad-mp2.def2tzvp.frozencore.pin.tmp
Wavefunction output            ... 12h2o.su.etal.mol0,2,3,4,5,7,11-orca.engrad-mp2.def2tzvp.frozencore.pout.tmp
Perturbation mode              ... Real perturbation (singlet)
Solver                         ... POPLE
Max. number of iterations      ... 128
Convergence tolerance          ... 1.000e-08
Integral handling              ... Direct
Number of perturbations        ... 1
Number of operators            ... 1
Orbital ranges used for CP-SCF:
 Operator 0:  Orbitals   0... 34  to  35...300
Variables per vector in CP-SCF ... 9310
Number of vectors sought       ... 1
     CP-SCF ITERATION   0: 
     CP-SCF ITERATION   1:      0.000882964180
     CP-SCF ITERATION   2:      0.000022562684
     CP-SCF ITERATION   3:      0.000000844757
     CP-SCF ITERATION   4:      0.000000098443
     CP-SCF ITERATION   5:      0.000000008327
                                                 ... done
Finalizing the relaxed density                   ... done
Transforming P to the AO basis                   ... done
Storing the relaxed density                      ... done

------------------------------------
ENERGY WEIGHTED DENSITY FINALIZATION
------------------------------------

Gathering the parts of the W-matrix              ...                                                      done
Forming the Z-density                            ... done
Transforming Z to the AO basis                   ... done
Calculating G(Z)                                 ... done
Finalizing the W-matrix                          ...                                                      done
Transforming W to the AO basis and storing       ... done

                *********************************************
                * UNRELAXED MP2 DENSITY POPULATION ANALYSIS *
                *********************************************

------------------------------------------------------------------------------
                           ORCA POPULATION ANALYSIS
------------------------------------------------------------------------------
Input electron density              ... 12h2o.su.etal.mol0,2,3,4,5,7,11-orca.engrad-mp2.def2tzvp.frozencore.pmp2ur
BaseName (.gbw .S,...)              ... 12h2o.su.etal.mol0,2,3,4,5,7,11-orca.engrad-mp2.def2tzvp.frozencore

                    ********************************
                    * MULLIKEN POPULATION ANALYSIS *
                    ********************************

-----------------------
MULLIKEN ATOMIC CHARGES
-----------------------
   0 O :   -0.756551
   1 H :    0.327746
   2 H :    0.392760
   3 O :   -0.739949
   4 H :    0.377104
   5 H :    0.378273
   6 O :   -0.743927
   7 H :    0.380559
   8 H :    0.356586
   9 O :   -0.759484
  10 H :    0.357088
  11 H :    0.378612
  12 O :   -0.729016
  13 H :    0.370808
  14 H :    0.389323
  15 O :   -0.763928
  16 H :    0.357226
  17 H :    0.400538
  18 O :   -0.717488
  19 H :    0.404979
  20 H :    0.338742
Sum of atomic charges:    0.0000000

--------------------------------
MULLIKEN REDUCED ORBITAL CHARGES
--------------------------------
  0 O s       :     3.803221  s :     3.803221
      pz      :     1.705512  p :     4.898586
      px      :     1.401585
      py      :     1.791489
      dz2     :     0.009492  d :     0.050708
      dxz     :     0.010060
      dyz     :     0.010860
      dx2y2   :     0.007804
      dxy     :     0.012492
      f0      :     0.000456  f :     0.004037
      f+1     :     0.000691
      f-1     :     0.000548
      f+2     :     0.000438
      f-2     :     0.000725
      f+3     :     0.000462
      f-3     :     0.000718
  1 H s       :     0.624341  s :     0.624341
      pz      :     0.017552  p :     0.047913
      px      :     0.014383
      py      :     0.015979
  2 H s       :     0.548688  s :     0.548688
      pz      :     0.011578  p :     0.058552
      px      :     0.032266
      py      :     0.014708
  3 O s       :     3.802010  s :     3.802010
      pz      :     1.723256  p :     4.882731
      px      :     1.785383
      py      :     1.374091
      dz2     :     0.009515  d :     0.051160
      dxz     :     0.010937
      dyz     :     0.009814
      dx2y2   :     0.008046
      dxy     :     0.012847
      f0      :     0.000457  f :     0.004049
      f+1     :     0.000548
      f-1     :     0.000696
      f+2     :     0.000433
      f-2     :     0.000714
      f+3     :     0.000736
      f-3     :     0.000465
  4 H s       :     0.576533  s :     0.576533
      pz      :     0.017389  p :     0.046363
      px      :     0.015320
      py      :     0.013653
  5 H s       :     0.579686  s :     0.579686
      pz      :     0.011280  p :     0.042041
      px      :     0.012837
      py      :     0.017923
  6 O s       :     3.801394  s :     3.801394
      pz      :     1.537985  p :     4.886649
      px      :     1.543345
      py      :     1.805320
      dz2     :     0.016677  d :     0.051862
      dxz     :     0.006692
      dyz     :     0.008412
      dx2y2   :     0.007664
      dxy     :     0.012417
      f0      :     0.000633  f :     0.004022
      f+1     :     0.000740
      f-1     :     0.000535
      f+2     :     0.000416
      f-2     :     0.000421
      f+3     :     0.000435
      f-3     :     0.000843
  7 H s       :     0.569213  s :     0.569213
      pz      :     0.023910  p :     0.050228
      px      :     0.012354
      py      :     0.013964
  8 H s       :     0.591135  s :     0.591135
      pz      :     0.011320  p :     0.052279
      px      :     0.023554
      py      :     0.017405
  9 O s       :     3.803543  s :     3.803543
      pz      :     1.535707  p :     4.901601
      px      :     1.867498
      py      :     1.498396
      dz2     :     0.015477  d :     0.050311
      dxz     :     0.007903
      dyz     :     0.007969
      dx2y2   :     0.008410
      dxy     :     0.010553
      f0      :     0.000589  f :     0.004029
      f+1     :     0.000496
      f-1     :     0.000805
      f+2     :     0.000442
      f-2     :     0.000404
      f+3     :     0.000809
      f-3     :     0.000485
 10 H s       :     0.596567  s :     0.596567
      pz      :     0.018787  p :     0.046346
      px      :     0.014851
      py      :     0.012708
 11 H s       :     0.566098  s :     0.566098
      pz      :     0.009816  p :     0.055290
      px      :     0.016433
      py      :     0.029041
 12 O s       :     3.800217  s :     3.800217
      pz      :     1.583074  p :     4.872199
      px      :     1.825036
      py      :     1.464089
      dz2     :     0.016917  d :     0.052648
      dxz     :     0.007908
      dyz     :     0.008340
      dx2y2   :     0.009155
      dxy     :     0.010327
      f0      :     0.000535  f :     0.003952
      f+1     :     0.000488
      f-1     :     0.000825
      f+2     :     0.000431
      f-2     :     0.000405
      f+3     :     0.000798
      f-3     :     0.000471
 13 H s       :     0.585068  s :     0.585068
      pz      :     0.010741  p :     0.044124
      px      :     0.014640
      py      :     0.018743
 14 H s       :     0.560810  s :     0.560810
      pz      :     0.024892  p :     0.049867
      px      :     0.013555
      py      :     0.011420
 15 O s       :     3.797143  s :     3.797143
      pz      :     1.547085  p :     4.911706
      px      :     1.526338
      py      :     1.838284
      dz2     :     0.016219  d :     0.051115
      dxz     :     0.008159
      dyz     :     0.007765
      dx2y2   :     0.008845
      dxy     :     0.010128
      f0      :     0.000574  f :     0.003964
      f+1     :     0.000816
      f-1     :     0.000488
      f+2     :     0.000435
      f-2     :     0.000406
      f+3     :     0.000470
      f-3     :     0.000776
 16 H s       :     0.597015  s :     0.597015
      pz      :     0.018943  p :     0.045759
      px      :     0.012491
      py      :     0.014324
 17 H s       :     0.545558  s :     0.545558
      pz      :     0.009259  p :     0.053904
      px      :     0.029786
      py      :     0.014859
 18 O s       :     3.792125  s :     3.792125
      pz      :     1.571806  p :     4.869043
      px      :     1.772178
      py      :     1.525059
      dz2     :     0.017023  d :     0.052319
      dxz     :     0.008026
      dyz     :     0.006606
      dx2y2   :     0.008136
      dxy     :     0.012527
      f0      :     0.000610  f :     0.004001
      f+1     :     0.000536
      f-1     :     0.000751
      f+2     :     0.000414
      f-2     :     0.000423
      f+3     :     0.000838
      f-3     :     0.000428
 19 H s       :     0.545849  s :     0.545849
      pz      :     0.025189  p :     0.049172
      px      :     0.012423
      py      :     0.011560
 20 H s       :     0.615474  s :     0.615474
      pz      :     0.011643  p :     0.045784
      px      :     0.015804
      py      :     0.018336


                     *******************************
                     * LOEWDIN POPULATION ANALYSIS *
                     *******************************

----------------------
LOEWDIN ATOMIC CHARGES
----------------------
   0 O :   -0.373339
   1 H :    0.145274
   2 H :    0.150149
   3 O :   -0.293417
   4 H :    0.168905
   5 H :    0.191338
   6 O :   -0.352147
   7 H :    0.151992
   8 H :    0.143518
   9 O :   -0.343673
  10 H :    0.166351
  11 H :    0.148290
  12 O :   -0.299404
  13 H :    0.178488
  14 H :    0.155128
  15 O :   -0.301991
  16 H :    0.164767
  17 H :    0.155923
  18 O :   -0.282508
  19 H :    0.164425
  20 H :    0.161930

-------------------------------
LOEWDIN REDUCED ORBITAL CHARGES
-------------------------------
  0 O s       :     3.463951  s :     3.463951
      pz      :     1.694077  p :     4.846913
      px      :     1.384031
      py      :     1.768805
      dz2     :     0.009809  d :     0.057700
      dxz     :     0.012821
      dyz     :     0.011453
      dx2y2   :     0.008895
      dxy     :     0.014721
      f0      :     0.000452  f :     0.004776
      f+1     :     0.000852
      f-1     :     0.000650
      f+2     :     0.000410
      f-2     :     0.001045
      f+3     :     0.000471
      f-3     :     0.000897
  1 H s       :     0.687075  s :     0.687075
      pz      :     0.066812  p :     0.167651
      px      :     0.046478
      py      :     0.054361
  2 H s       :     0.653020  s :     0.653020
      pz      :     0.034316  p :     0.196831
      px      :     0.114124
      py      :     0.048392
  3 O s       :     3.458489  s :     3.458489
      pz      :     1.676563  p :     4.770420
      px      :     1.737218
      py      :     1.356638
      dz2     :     0.011117  d :     0.059680
      dxz     :     0.011030
      dyz     :     0.012139
      dx2y2   :     0.009840
      dxy     :     0.015553
      f0      :     0.000473  f :     0.004828
      f+1     :     0.000658
      f-1     :     0.000858
      f+2     :     0.000409
      f-2     :     0.001002
      f+3     :     0.000953
      f-3     :     0.000476
  4 H s       :     0.664013  s :     0.664013
      pz      :     0.067879  p :     0.167082
      px      :     0.053775
      py      :     0.045427
  5 H s       :     0.656734  s :     0.656734
      pz      :     0.034128  p :     0.151928
      px      :     0.044523
      py      :     0.073277
  6 O s       :     3.457203  s :     3.457203
      pz      :     1.522186  p :     4.831457
      px      :     1.529475
      py      :     1.779796
      dz2     :     0.020917  d :     0.058666
      dxz     :     0.007301
      dyz     :     0.007707
      dx2y2   :     0.007747
      dxy     :     0.014995
      f0      :     0.000871  f :     0.004821
      f+1     :     0.000972
      f-1     :     0.000703
      f+2     :     0.000388
      f-2     :     0.000420
      f+3     :     0.000376
      f-3     :     0.001090
  7 H s       :     0.674452  s :     0.674452
      pz      :     0.092902  p :     0.173555
      px      :     0.037566
      py      :     0.043088
  8 H s       :     0.680944  s :     0.680944
      pz      :     0.032233  p :     0.175539
      px      :     0.084590
      py      :     0.058716
  9 O s       :     3.457857  s :     3.457857
      pz      :     1.518351  p :     4.823026
      px      :     1.828660
      py      :     1.476015
      dz2     :     0.020152  d :     0.058003
      dxz     :     0.007131
      dyz     :     0.009512
      dx2y2   :     0.009410
      dxy     :     0.011799
      f0      :     0.000812  f :     0.004788
      f+1     :     0.000574
      f-1     :     0.001164
      f+2     :     0.000417
      f-2     :     0.000417
      f+3     :     0.000960
      f-3     :     0.000443
 10 H s       :     0.671658  s :     0.671658
      pz      :     0.080813  p :     0.161992
      px      :     0.043827
      py      :     0.037351
 11 H s       :     0.662766  s :     0.662766
      pz      :     0.029956  p :     0.188943
      px      :     0.053589
      py      :     0.105399
 12 O s       :     3.458713  s :     3.458713
      pz      :     1.561733  p :     4.776046
      px      :     1.766071
      py      :     1.448243
      dz2     :     0.020486  d :     0.059863
      dxz     :     0.006910
      dyz     :     0.009357
      dx2y2   :     0.011080
      dxy     :     0.012030
      f0      :     0.000748  f :     0.004782
      f+1     :     0.000596
      f-1     :     0.001147
      f+2     :     0.000410
      f-2     :     0.000416
      f+3     :     0.001013
      f-3     :     0.000451
 13 H s       :     0.663737  s :     0.663737
      pz      :     0.031022  p :     0.157776
      px      :     0.049956
      py      :     0.076798
 14 H s       :     0.669828  s :     0.669828
      pz      :     0.094736  p :     0.175044
      px      :     0.043419
      py      :     0.036889
 15 O s       :     3.452545  s :     3.452545
      pz      :     1.520704  p :     4.785329
      px      :     1.486326
      py      :     1.778299
      dz2     :     0.021061  d :     0.059328
      dxz     :     0.009640
      dyz     :     0.006973
      dx2y2   :     0.010355
      dxy     :     0.011299
      f0      :     0.000804  f :     0.004789
      f+1     :     0.001177
      f-1     :     0.000587
      f+2     :     0.000414
      f-2     :     0.000422
      f+3     :     0.000448
      f-3     :     0.000938
 16 H s       :     0.672141  s :     0.672141
      pz      :     0.080909  p :     0.163092
      px      :     0.038071
      py      :     0.044112
 17 H s       :     0.652829  s :     0.652829
      pz      :     0.029601  p :     0.191247
      px      :     0.108310
      py      :     0.053336
 18 O s       :     3.450206  s :     3.450206
      pz      :     1.538876  p :     4.766855
      px      :     1.713596
      py      :     1.514384
      dz2     :     0.021094  d :     0.060520
      dxz     :     0.007370
      dyz     :     0.007066
      dx2y2   :     0.009438
      dxy     :     0.015552
      f0      :     0.000823  f :     0.004926
      f+1     :     0.000738
      f-1     :     0.000986
      f+2     :     0.000389
      f-2     :     0.000420
      f+3     :     0.001163
      f-3     :     0.000407
 19 H s       :     0.660611  s :     0.660611
      pz      :     0.096699  p :     0.174964
      px      :     0.041905
      py      :     0.036360
 20 H s       :     0.676909  s :     0.676909
      pz      :     0.032341  p :     0.161161
      px      :     0.056022
      py      :     0.072798


                      *****************************
                      * MAYER POPULATION ANALYSIS *
                      *****************************

  NA   - Mulliken gross atomic population
  ZA   - Total nuclear charge
  QA   - Mulliken gross atomic charge
  VA   - Mayer's total valence
  BVA  - Mayer's bonded valence
  FA   - Mayer's free valence

  ATOM       NA         ZA         QA         VA         BVA        FA
  0 O      8.7566     8.0000    -0.7566     2.0076     1.6156     0.3919
  1 H      0.6723     1.0000     0.3277     0.9129     0.8647     0.0482
  2 H      0.6072     1.0000     0.3928     0.8847     0.8392     0.0454
  3 O      8.7399     8.0000    -0.7399     2.0666     1.6745     0.3921
  4 H      0.6229     1.0000     0.3771     0.8777     0.8336     0.0441
  5 H      0.6217     1.0000     0.3783     0.8759     0.8289     0.0471
  6 O      8.7439     8.0000    -0.7439     2.0496     1.6591     0.3905
  7 H      0.6194     1.0000     0.3806     0.8819     0.8371     0.0448
  8 H      0.6434     1.0000     0.3566     0.9047     0.8578     0.0469
  9 O      8.7595     8.0000    -0.7595     2.0184     1.6252     0.3932
 10 H      0.6429     1.0000     0.3571     0.8953     0.8487     0.0467
 11 H      0.6214     1.0000     0.3786     0.9013     0.8538     0.0475
 12 O      8.7290     8.0000    -0.7290     2.0723     1.6810     0.3913
 13 H      0.6292     1.0000     0.3708     0.8851     0.8381     0.0470
 14 H      0.6107     1.0000     0.3893     0.8762     0.8323     0.0440
 15 O      8.7639     8.0000    -0.7639     2.0111     1.6166     0.3946
 16 H      0.6428     1.0000     0.3572     0.8937     0.8465     0.0471
 17 H      0.5995     1.0000     0.4005     0.8848     0.8391     0.0456
 18 O      8.7175     8.0000    -0.7175     2.0636     1.6758     0.3878
 19 H      0.5950     1.0000     0.4050     0.8684     0.8257     0.0427
 20 H      0.6613     1.0000     0.3387     0.9062     0.8577     0.0485

  Mayer bond orders larger than 0.100000
B(  0-O ,  1-H ) :   0.8592 B(  0-O ,  2-H ) :   0.7750 B(  3-O ,  4-H ) :   0.8250 
B(  3-O ,  5-H ) :   0.8168 B(  6-O ,  7-H ) :   0.8198 B(  6-O ,  8-H ) :   0.8326 
B(  9-O , 10-H ) :   0.8394 B(  9-O , 11-H ) :   0.7796 B( 12-O , 13-H ) :   0.8234 
B( 12-O , 14-H ) :   0.8042 B( 15-O , 16-H ) :   0.8371 B( 15-O , 17-H ) :   0.7521 
B( 18-O , 19-H ) :   0.7890 B( 18-O , 20-H ) :   0.8490 


                *******************************************
                * RELAXED MP2 DENSITY POPULATION ANALYSIS *
                *******************************************

------------------------------------------------------------------------------
                           ORCA POPULATION ANALYSIS
------------------------------------------------------------------------------
Input electron density              ... 12h2o.su.etal.mol0,2,3,4,5,7,11-orca.engrad-mp2.def2tzvp.frozencore.pmp2re
BaseName (.gbw .S,...)              ... 12h2o.su.etal.mol0,2,3,4,5,7,11-orca.engrad-mp2.def2tzvp.frozencore

                    ********************************
                    * MULLIKEN POPULATION ANALYSIS *
                    ********************************

-----------------------
MULLIKEN ATOMIC CHARGES
-----------------------
   0 O :   -0.737949
   1 H :    0.321701
   2 H :    0.370689
   3 O :   -0.718084
   4 H :    0.369922
   5 H :    0.371261
   6 O :   -0.721535
   7 H :    0.368577
   8 H :    0.341942
   9 O :   -0.735236
  10 H :    0.348714
  11 H :    0.354812
  12 O :   -0.698997
  13 H :    0.362924
  14 H :    0.375842
  15 O :   -0.732442
  16 H :    0.349841
  17 H :    0.376072
  18 O :   -0.690910
  19 H :    0.390267
  20 H :    0.332588
Sum of atomic charges:    0.0000000

--------------------------------
MULLIKEN REDUCED ORBITAL CHARGES
--------------------------------
  0 O s       :     3.804452  s :     3.804452
      pz      :     1.699720  p :     4.880739
      px      :     1.395118
      py      :     1.785901
      dz2     :     0.009289  d :     0.048787
      dxz     :     0.009489
      dyz     :     0.010538
      dx2y2   :     0.007682
      dxy     :     0.011789
      f0      :     0.000453  f :     0.003971
      f+1     :     0.000674
      f-1     :     0.000540
      f+2     :     0.000438
      f-2     :     0.000706
      f+3     :     0.000460
      f-3     :     0.000700
  1 H s       :     0.629584  s :     0.629584
      pz      :     0.017669  p :     0.048715
      px      :     0.014409
      py      :     0.016637
  2 H s       :     0.570544  s :     0.570544
      pz      :     0.012351  p :     0.058767
      px      :     0.031194
      py      :     0.015223
  3 O s       :     3.805568  s :     3.805568
      pz      :     1.713981  p :     4.859514
      px      :     1.774460
      py      :     1.371073
      dz2     :     0.009288  d :     0.049026
      dxz     :     0.010685
      dyz     :     0.009234
      dx2y2   :     0.007806
      dxy     :     0.012013
      f0      :     0.000456  f :     0.003976
      f+1     :     0.000539
      f-1     :     0.000677
      f+2     :     0.000432
      f-2     :     0.000693
      f+3     :     0.000715
      f-3     :     0.000463
  4 H s       :     0.583056  s :     0.583056
      pz      :     0.017484  p :     0.047022
      px      :     0.015971
      py      :     0.013566
  5 H s       :     0.586167  s :     0.586167
      pz      :     0.012087  p :     0.042571
      px      :     0.013526
      py      :     0.016958
  6 O s       :     3.799770  s :     3.799770
      pz      :     1.533253  p :     4.867930
      px      :     1.537264
      py      :     1.797413
      dz2     :     0.015467  d :     0.049883
      dxz     :     0.006665
      dyz     :     0.008386
      dx2y2   :     0.007614
      dxy     :     0.011749
      f0      :     0.000617  f :     0.003953
      f+1     :     0.000718
      f-1     :     0.000525
      f+2     :     0.000416
      f-2     :     0.000420
      f+3     :     0.000435
      f-3     :     0.000820
  7 H s       :     0.580701  s :     0.580701
      pz      :     0.023023  p :     0.050723
      px      :     0.012849
      py      :     0.014850
  8 H s       :     0.605104  s :     0.605104
      pz      :     0.012052  p :     0.052954
      px      :     0.023017
      py      :     0.017885
  9 O s       :     3.804694  s :     3.804694
      pz      :     1.524893  p :     4.878300
      px      :     1.860556
      py      :     1.492850
      dz2     :     0.014335  d :     0.048282
      dxz     :     0.007913
      dyz     :     0.007687
      dx2y2   :     0.008215
      dxy     :     0.010131
      f0      :     0.000577  f :     0.003960
      f+1     :     0.000490
      f-1     :     0.000776
      f+2     :     0.000441
      f-2     :     0.000403
      f+3     :     0.000790
      f-3     :     0.000484
 10 H s       :     0.604260  s :     0.604260
      pz      :     0.018056  p :     0.047027
      px      :     0.015796
      py      :     0.013175
 11 H s       :     0.589500  s :     0.589500
      pz      :     0.010507  p :     0.055688
      px      :     0.017040
      py      :     0.028141
 12 O s       :     3.800461  s :     3.800461
      pz      :     1.579193  p :     4.844014
      px      :     1.807358
      py      :     1.457463
      dz2     :     0.015843  d :     0.050642
      dxz     :     0.007971
      dyz     :     0.008106
      dx2y2   :     0.008836
      dxy     :     0.009887
      f0      :     0.000522  f :     0.003879
      f+1     :     0.000482
      f-1     :     0.000796
      f+2     :     0.000431
      f-2     :     0.000403
      f+3     :     0.000776
      f-3     :     0.000469
 13 H s       :     0.592325  s :     0.592325
      pz      :     0.011492  p :     0.044750
      px      :     0.015336
      py      :     0.017923
 14 H s       :     0.573753  s :     0.573753
      pz      :     0.024251  p :     0.050405
      px      :     0.014415
      py      :     0.011739
 15 O s       :     3.798319  s :     3.798319
      pz      :     1.539335  p :     4.880963
      px      :     1.521678
      py      :     1.819950
      dz2     :     0.015090  d :     0.049265
      dxz     :     0.007886
      dyz     :     0.007814
      dx2y2   :     0.008678
      dxy     :     0.009796
      f0      :     0.000561  f :     0.003895
      f+1     :     0.000788
      f-1     :     0.000482
      f+2     :     0.000434
      f-2     :     0.000405
      f+3     :     0.000467
      f-3     :     0.000757
 16 H s       :     0.603692  s :     0.603692
      pz      :     0.018225  p :     0.046467
      px      :     0.012947
      py      :     0.015295
 17 H s       :     0.569769  s :     0.569769
      pz      :     0.009894  p :     0.054159
      px      :     0.028964
      py      :     0.015301
 18 O s       :     3.792314  s :     3.792314
      pz      :     1.569257  p :     4.844317
      px      :     1.756689
      py      :     1.518371
      dz2     :     0.015854  d :     0.050353
      dxz     :     0.008015
      dyz     :     0.006580
      dx2y2   :     0.008089
      dxy     :     0.011814
      f0      :     0.000593  f :     0.003927
      f+1     :     0.000527
      f-1     :     0.000729
      f+2     :     0.000415
      f-2     :     0.000421
      f+3     :     0.000813
      f-3     :     0.000428
 19 H s       :     0.560218  s :     0.560218
      pz      :     0.024376  p :     0.049515
      px      :     0.013165
      py      :     0.011974
 20 H s       :     0.620858  s :     0.620858
      pz      :     0.012398  p :     0.046554
      px      :     0.016386
      py      :     0.017770


                     *******************************
                     * LOEWDIN POPULATION ANALYSIS *
                     *******************************

----------------------
LOEWDIN ATOMIC CHARGES
----------------------
   0 O :   -0.375686
   1 H :    0.147194
   2 H :    0.142901
   3 O :   -0.287998
   4 H :    0.170453
   5 H :    0.192371
   6 O :   -0.351306
   7 H :    0.149155
   8 H :    0.139965
   9 O :   -0.342309
  10 H :    0.167520
  11 H :    0.140960
  12 O :   -0.291742
  13 H :    0.179442
  14 H :    0.151544
  15 O :   -0.294443
  16 H :    0.166126
  17 H :    0.148160
  18 O :   -0.276528
  19 H :    0.160601
  20 H :    0.163619

-------------------------------
LOEWDIN REDUCED ORBITAL CHARGES
-------------------------------
  0 O s       :     3.465494  s :     3.465494
      pz      :     1.693670  p :     4.848503
      px      :     1.387517
      py      :     1.767316
      dz2     :     0.009758  d :     0.056876
      dxz     :     0.012444
      dyz     :     0.011349
      dx2y2   :     0.008880
      dxy     :     0.014444
      f0      :     0.000454  f :     0.004813
      f+1     :     0.000864
      f-1     :     0.000651
      f+2     :     0.000410
      f-2     :     0.001045
      f+3     :     0.000476
      f-3     :     0.000913
  1 H s       :     0.684816  s :     0.684816
      pz      :     0.066921  p :     0.167990
      px      :     0.046090
      py      :     0.054978
  2 H s       :     0.660113  s :     0.660113
      pz      :     0.035009  p :     0.196986
      px      :     0.113029
      py      :     0.048947
  3 O s       :     3.460238  s :     3.460238
      pz      :     1.671547  p :     4.764248
      px      :     1.730841
      py      :     1.361861
      dz2     :     0.011067  d :     0.058665
      dxz     :     0.011027
      dyz     :     0.011793
      dx2y2   :     0.009647
      dxy     :     0.015131
      f0      :     0.000476  f :     0.004847
      f+1     :     0.000659
      f-1     :     0.000864
      f+2     :     0.000409
      f-2     :     0.001002
      f+3     :     0.000958
      f-3     :     0.000478
  4 H s       :     0.662795  s :     0.662795
      pz      :     0.067809  p :     0.166752
      px      :     0.054299
      py      :     0.044644
  5 H s       :     0.655796  s :     0.655796
      pz      :     0.034788  p :     0.151832
      px      :     0.045202
      py      :     0.071843
  6 O s       :     3.458010  s :     3.458010
      pz      :     1.523070  p :     4.830763
      px      :     1.530466
      py      :     1.777226
      dz2     :     0.020346  d :     0.057691
      dxz     :     0.007187
      dyz     :     0.007738
      dx2y2   :     0.007710
      dxy     :     0.014710
      f0      :     0.000874  f :     0.004843
      f+1     :     0.000980
      f-1     :     0.000702
      f+2     :     0.000390
      f-2     :     0.000420
      f+3     :     0.000376
      f-3     :     0.001101
  7 H s       :     0.676952  s :     0.676952
      pz      :     0.092001  p :     0.173893
      px      :     0.037980
      py      :     0.043911
  8 H s       :     0.683724  s :     0.683724
      pz      :     0.032780  p :     0.176311
      px      :     0.084220
      py      :     0.059311
  9 O s       :     3.459003  s :     3.459003
      pz      :     1.516970  p :     4.821269
      px      :     1.825910
      py      :     1.478389
      dz2     :     0.019679  d :     0.057216
      dxz     :     0.007186
      dyz     :     0.009296
      dx2y2   :     0.009363
      dxy     :     0.011691
      f0      :     0.000814  f :     0.004822
      f+1     :     0.000575
      f-1     :     0.001177
      f+2     :     0.000419
      f-2     :     0.000416
      f+3     :     0.000975
      f-3     :     0.000446
 10 H s       :     0.670505  s :     0.670505
      pz      :     0.079942  p :     0.161975
      px      :     0.044665
      py      :     0.037367
 11 H s       :     0.669379  s :     0.669379
      pz      :     0.030288  p :     0.189662
      px      :     0.054358
      py      :     0.105015
 12 O s       :     3.459759  s :     3.459759
      pz      :     1.562712  p :     4.768249
      px      :     1.754533
      py      :     1.451004
      dz2     :     0.020020  d :     0.058935
      dxz     :     0.006993
      dyz     :     0.009161
      dx2y2   :     0.010930
      dxy     :     0.011832
      f0      :     0.000748  f :     0.004799
      f+1     :     0.000597
      f-1     :     0.001155
      f+2     :     0.000412
      f-2     :     0.000415
      f+3     :     0.001019
      f-3     :     0.000453
 13 H s       :     0.662834  s :     0.662834
      pz      :     0.031597  p :     0.157724
      px      :     0.050373
      py      :     0.075753
 14 H s       :     0.673167  s :     0.673167
      pz      :     0.094268  p :     0.175288
      px      :     0.044092
      py      :     0.036929
 15 O s       :     3.454092  s :     3.454092
      pz      :     1.520209  p :     4.776648
      px      :     1.488924
      py      :     1.767515
      dz2     :     0.020664  d :     0.058878
      dxz     :     0.009431
      dyz     :     0.007056
      dx2y2   :     0.010425
      dxy     :     0.011301
      f0      :     0.000805  f :     0.004825
      f+1     :     0.001190
      f-1     :     0.000589
      f+2     :     0.000416
      f-2     :     0.000421
      f+3     :     0.000452
      f-3     :     0.000953
 16 H s       :     0.670584  s :     0.670584
      pz      :     0.080242  p :     0.163290
      px      :     0.038194
      py      :     0.044854
 17 H s       :     0.660017  s :     0.660017
      pz      :     0.029931  p :     0.191823
      px      :     0.108079
      py      :     0.053813
 18 O s       :     3.451118  s :     3.451118
      pz      :     1.540548  p :     4.760804
      px      :     1.704224
      py      :     1.516033
      dz2     :     0.020580  d :     0.059659
      dxz     :     0.007416
      dyz     :     0.006964
      dx2y2   :     0.009485
      dxy     :     0.015215
      f0      :     0.000826  f :     0.004946
      f+1     :     0.000739
      f-1     :     0.000992
      f+2     :     0.000391
      f-2     :     0.000420
      f+3     :     0.001170
      f-3     :     0.000408
 19 H s       :     0.664395  s :     0.664395
      pz      :     0.095815  p :     0.175003
      px      :     0.042537
      py      :     0.036651
 20 H s       :     0.674900  s :     0.674900
      pz      :     0.032844  p :     0.161481
      px      :     0.056504
      py      :     0.072133


                      *****************************
                      * MAYER POPULATION ANALYSIS *
                      *****************************

  NA   - Mulliken gross atomic population
  ZA   - Total nuclear charge
  QA   - Mulliken gross atomic charge
  VA   - Mayer's total valence
  BVA  - Mayer's bonded valence
  FA   - Mayer's free valence

  ATOM       NA         ZA         QA         VA         BVA        FA
  0 O      8.7379     8.0000    -0.7379     2.0142     1.6270     0.3872
  1 H      0.6783     1.0000     0.3217     0.9165     0.8682     0.0483
  2 H      0.6293     1.0000     0.3707     0.9119     0.8672     0.0448
  3 O      8.7181     8.0000    -0.7181     2.1052     1.7195     0.3857
  4 H      0.6301     1.0000     0.3699     0.8834     0.8394     0.0441
  5 H      0.6287     1.0000     0.3713     0.8834     0.8365     0.0469
  6 O      8.7215     8.0000    -0.7215     2.0698     1.6846     0.3851
  7 H      0.6314     1.0000     0.3686     0.8977     0.8531     0.0446
  8 H      0.6581     1.0000     0.3419     0.9250     0.8785     0.0465
  9 O      8.7352     8.0000    -0.7352     2.0377     1.6499     0.3878
 10 H      0.6513     1.0000     0.3487     0.9020     0.8553     0.0467
 11 H      0.6452     1.0000     0.3548     0.9334     0.8873     0.0461
 12 O      8.6990     8.0000    -0.6990     2.1118     1.7268     0.3850
 13 H      0.6371     1.0000     0.3629     0.8937     0.8469     0.0468
 14 H      0.6242     1.0000     0.3758     0.8946     0.8509     0.0437
 15 O      8.7324     8.0000    -0.7324     2.0525     1.6644     0.3882
 16 H      0.6502     1.0000     0.3498     0.8992     0.8521     0.0471
 17 H      0.6239     1.0000     0.3761     0.9164     0.8720     0.0444
 18 O      8.6909     8.0000    -0.6909     2.1001     1.7182     0.3818
 19 H      0.6097     1.0000     0.3903     0.8888     0.8465     0.0423
 20 H      0.6674     1.0000     0.3326     0.9116     0.8632     0.0484

  Mayer bond orders larger than 0.100000
B(  0-O ,  1-H ) :   0.8622 B(  0-O ,  2-H ) :   0.7770 B(  3-O ,  4-H ) :   0.8286 
B(  3-O ,  5-H ) :   0.8200 B(  6-O ,  7-H ) :   0.8249 B(  6-O ,  8-H ) :   0.8362 
B(  9-O , 10-H ) :   0.8430 B(  9-O , 11-H ) :   0.7775 B( 12-O , 13-H ) :   0.8258 
B( 12-O , 14-H ) :   0.8080 B( 12-O , 17-H ) :   0.1098 B( 15-O , 16-H ) :   0.8395 
B( 15-O , 17-H ) :   0.7496 B( 18-O , 19-H ) :   0.7936 B( 18-O , 20-H ) :   0.8515 



----------------------------------
MP2 DERIVATIVE INTEGRAL GENERATION
----------------------------------


Input Wavefunction Amplitudes       ... 12h2o.su.etal.mol0,2,3,4,5,7,11-orca.engrad-mp2.def2tzvp.frozencore.mp2tsaa.tmp
Input Correlated Electron Density   ... 12h2o.su.etal.mol0,2,3,4,5,7,11-orca.engrad-mp2.def2tzvp.frozencore.pmp2re
Input Energy Weighted Density       ... 12h2o.su.etal.mol0,2,3,4,5,7,11-orca.engrad-mp2.def2tzvp.frozencore.wmp2.tmp
Input SCF Electron Density          ... 12h2o.su.etal.mol0,2,3,4,5,7,11-orca.engrad-mp2.def2tzvp.frozencore.scfp

One-Electron Terms    ...
                        ... One-Electron Terms done
Prescreening matrices              ... done

Batch handling in the gradient evaluation:
Memory available                      ... 8000.0 MB
Memory per occupied orbital in Q2     ...   19.4 MB
Memory per occupied orbital in Q3     ...    0.1 MB
Total memory requirement per |i>      ...   19.5 MB
Max. Number of orbitals possible      ...    410
Number of orbitals treated per batch  ...     28
Number of batches to be done          ...      1
Batch   0: i=    7 ...    34

---------------------------------------
MP2 TOTAL ENERGY:     -534.250398391 Eh
---------------------------------------

The final MP2 gradient
  0:   0.00841123  -0.00242621   0.00059378
  1:   0.00202623  -0.00013878   0.00059483
  2:  -0.01745863   0.00489468  -0.00016910
  3:  -0.01061934  -0.02546611  -0.00059877
  4:  -0.00237320   0.00017988   0.00310741
  5:   0.00911729   0.02579928   0.00067207
  6:  -0.00520174   0.00274375  -0.00259491
  7:  -0.00065300  -0.00129001   0.00542215
  8:   0.00921579  -0.00263631  -0.00122825
  9:   0.00426947   0.00169747   0.00769249
 10:  -0.00065891   0.00160927  -0.00971807
 11:  -0.00306969  -0.00463789   0.00380296
 12:  -0.00223706  -0.01562674   0.00497241
 13:   0.00385798   0.01482960  -0.00637019
 14:  -0.00007364  -0.00139446  -0.00165772
 15:   0.00274889   0.00029255  -0.01393480
 16:   0.00028920   0.00243964   0.00936323
 17:  -0.00330083   0.00181405  -0.00160607
 18:   0.01224805   0.00841409  -0.00136990
 19:  -0.00155916  -0.00108195   0.00403882
 20:  -0.00497893  -0.01001582  -0.00101239

-----------------------------------
NORM OF THE MP2 GRADIENT:  0.059672
-----------------------------------

-------------------------   --------------------
FINAL SINGLE POINT ENERGY      -534.250398391002
-------------------------   --------------------


                            ***************************************
                            *     ORCA property calculations      *
                            ***************************************

                                    ---------------------
                                    Active property flags
                                    ---------------------
   (+) Dipole Moment


------------------------------------------------------------------------------
                       ORCA ELECTRIC PROPERTIES CALCULATION
------------------------------------------------------------------------------

Dipole Moment Calculation                       ... on
Quadrupole Moment Calculation                   ... off
Polarizability Calculation                      ... off
GBWName                                         ... 12h2o.su.etal.mol0,2,3,4,5,7,11-orca.engrad-mp2.def2tzvp.frozencore.gbw
Electron density file                           ... 12h2o.su.etal.mol0,2,3,4,5,7,11-orca.engrad-mp2.def2tzvp.frozencore.scfp
The origin for moment calculation is the CENTER OF MASS  = (-0.395663, -0.210213  0.000184)

-------------
DIPOLE MOMENT
-------------
                                X             Y             Z
Electronic contribution:     -0.03974      -0.22361      -0.16603
Nuclear contribution   :      0.71387      -0.48644      -0.77428
                        -----------------------------------------
Total Dipole Moment    :      0.67413      -0.71005      -0.94031
                        -----------------------------------------
Magnitude (a.u.)       :      1.35750
Magnitude (Debye)      :      3.45049



--------------------
Rotational spectrum 
--------------------
 
Rotational constants in cm-1:     0.052501     0.020688     0.017064 
Rotational constants in MHz :  1573.946012   620.222413   511.563472 

 Dipole components along the rotational axes: 
x,y,z [a.u.] :    -1.076969    -0.797717    -0.215845 
x,y,z [Debye]:    -2.737437    -2.027636    -0.548635 

 

                         *** MP2 UNRELAXED DENSITY ***

------------------------------------------------------------------------------
                       ORCA ELECTRIC PROPERTIES CALCULATION
------------------------------------------------------------------------------

Dipole Moment Calculation                       ... on
Quadrupole Moment Calculation                   ... off
Polarizability Calculation                      ... off
GBWName                                         ... 12h2o.su.etal.mol0,2,3,4,5,7,11-orca.engrad-mp2.def2tzvp.frozencore.gbw
Electron density file                           ... 12h2o.su.etal.mol0,2,3,4,5,7,11-orca.engrad-mp2.def2tzvp.frozencore.pmp2ur
The origin for moment calculation is the CENTER OF MASS  = (-0.395663, -0.210213  0.000184)

-------------
DIPOLE MOMENT
-------------
                                X             Y             Z
Electronic contribution:     -0.04550      -0.22295      -0.16151
Nuclear contribution   :      0.71387      -0.48644      -0.77428
                        -----------------------------------------
Total Dipole Moment    :      0.66838      -0.70939      -0.93579
                        -----------------------------------------
Magnitude (a.u.)       :      1.35117
Magnitude (Debye)      :      3.43441



--------------------
Rotational spectrum 
--------------------
 
Rotational constants in cm-1:     0.052501     0.020688     0.017064 
Rotational constants in MHz :  1573.946012   620.222413   511.563472 

 Dipole components along the rotational axes: 
x,y,z [a.u.] :    -1.073411    -0.792901    -0.211588 
x,y,z [Debye]:    -2.728393    -2.015394    -0.537813 

 

                           *** MP2 RELAXED DENSITY ***

------------------------------------------------------------------------------
                       ORCA ELECTRIC PROPERTIES CALCULATION
------------------------------------------------------------------------------

Dipole Moment Calculation                       ... on
Quadrupole Moment Calculation                   ... off
Polarizability Calculation                      ... off
GBWName                                         ... 12h2o.su.etal.mol0,2,3,4,5,7,11-orca.engrad-mp2.def2tzvp.frozencore.gbw
Electron density file                           ... 12h2o.su.etal.mol0,2,3,4,5,7,11-orca.engrad-mp2.def2tzvp.frozencore.pmp2re
The origin for moment calculation is the CENTER OF MASS  = (-0.395663, -0.210213  0.000184)

-------------
DIPOLE MOMENT
-------------
                                X             Y             Z
Electronic contribution:     -0.04012      -0.23654      -0.16488
Nuclear contribution   :      0.71387      -0.48644      -0.77428
                        -----------------------------------------
Total Dipole Moment    :      0.67376      -0.72298      -0.93915
                        -----------------------------------------
Magnitude (a.u.)       :      1.36333
Magnitude (Debye)      :      3.46531



--------------------
Rotational spectrum 
--------------------
 
Rotational constants in cm-1:     0.052501     0.020688     0.017064 
Rotational constants in MHz :  1573.946012   620.222413   511.563472 

 Dipole components along the rotational axes: 
x,y,z [a.u.] :    -1.082183    -0.803350    -0.205360 
x,y,z [Debye]:    -2.750691    -2.041954    -0.521983 

 

Timings for individual modules:

Sum of individual times         ...      116.401 sec (=   1.940 min)
GTO integral calculation        ...        0.976 sec (=   0.016 min)   0.8 %
SCF iterations                  ...       18.947 sec (=   0.316 min)  16.3 %
MP2 module                      ...       96.478 sec (=   1.608 min)  82.9 %
                             ****ORCA TERMINATED NORMALLY****
TOTAL RUN TIME: 0 days 0 hours 1 minutes 57 seconds 441 msec
