16
Energy:   -490.20837293
O   -0.81056158   2.18796130  -1.88766264
H   -1.48971690   1.78238491  -1.34869353
H    0.00933567   1.82137751  -1.55657857
O    0.44341044  -1.81567038  -0.58805772
H    0.74366422  -0.91810025  -0.73105204
H    0.31102227  -1.87659850   0.35798297
O    0.57154216  -1.47287224   2.16955949
H    0.26424379  -0.63384986   1.82627971
H    1.51381357  -1.47043774   2.00118338
O   -1.94322186   0.13385957  -0.38913054
H   -1.47735368  -0.34672720  -1.07340757
H   -1.25265163   0.45827035   0.18888524
C    1.21174753   1.09153624   0.40604604
O    2.24423049   0.41120670   0.99603675
O    0.04936784   0.83496259   1.08438387
O    1.08113074   0.68344007  -0.89555950
