16
Energy:   -496.39596912
O   -1.41727661  -2.94606270   0.60716472
H   -0.52947943  -2.93899445   0.96493288
H   -1.65339508  -2.02143238   0.53274234
O    2.13972671   0.53921674  -0.24970458
H    1.68965735   1.38268809  -0.20252936
H    1.61090683  -0.04565509   0.29297979
O   -0.18998935   0.03210762  -1.67506744
H    0.72377309  -0.04708992  -1.40121019
H   -0.69359171  -0.10078328  -0.87197559
O   -0.16313032   2.52194794  -0.48534219
H   -0.17783437   2.09238490   0.36993042
H   -0.29558433   1.81152070  -1.11302119
C   -0.47317193  -0.22225490   1.48536928
O   -0.06251730   1.07390676   1.65355394
O    0.58859506  -0.98889906   1.08286911
O   -1.45779956  -0.26910072   0.53347952
