45
Energy:   -615.74729374
O   -1.12265800   0.04844556   2.37636845
H   -1.09381179  -0.66763640   1.74183999
H   -1.80509528   0.63340518   2.04722797
O   -2.72051744   1.93071821   1.10228687
H   -3.40031369   2.53627831   1.39793170
H   -1.98872595   2.49487369   0.85240359
O    0.90822720   1.90496393   2.27020401
H    1.70663997   1.45924468   1.98717884
H    0.23738988   1.22219121   2.26467668
O    0.56314142   0.32828324   4.62180886
H   -0.18240694   0.02932291   4.10122053
H    0.81296202   1.16316814   4.22584332
O    1.34185795  -2.01990254  -2.89044139
H    1.60081389  -1.60962846  -2.06530574
H    0.59035421  -2.56662039  -2.66115210
O    2.70680471  -1.08741825   3.76700607
H    1.95687602  -0.63992860   4.15891399
H    2.83509095  -1.86347215   4.31245528
O   -1.09255646  -3.15071183  -2.14781423
H   -1.52497148  -2.47271893  -2.66702009
H   -1.49099543  -3.96953510  -2.44278320
O    3.06711237   0.37554428   1.51716237
H    3.00253379  -0.20517486   2.27533566
H    3.97709306   0.67246716   1.51911220
O   -0.50139012   3.25145515   0.34615929
H    0.09670247   2.95069290   1.03030779
H   -0.17553111   2.84110359  -0.45487713
O   -2.11651966  -1.05085694  -3.48787367
H   -1.36612754  -0.59124728  -3.86457311
H   -2.39037393  -0.50154574  -2.75337187
O    0.10149491   1.46579760  -1.72543687
H   -0.77080821   1.12463466  -1.52813765
H    0.25375172   1.22184129  -2.63841827
O    1.52936408  -0.55082106  -0.56038387
H    1.15328238   0.25291753  -0.91926922
H    2.13293447  -0.25074451   0.11924007
O   -2.26759366   0.30677182  -1.07297581
H   -1.85896926  -0.41701693  -0.59822557
H   -2.62075080   0.87421886  -0.38776361
O    0.31801240   0.12500777  -4.15490002
H    0.75097308  -0.64490705  -3.78610729
H    0.71382132   0.23162349  -5.01988571
O   -0.84604433  -1.64288613   0.17879130
H    0.04304555  -1.33507686   0.00271042
H   -0.99244022  -2.33511292  -0.46589635
