45
Energy:   -615.90495918
O   -1.59598216   2.80496382   2.32605263
H   -1.68045014   3.17652586   1.44796457
H   -1.71186467   3.55098520   2.91448717
O    0.68534761  -2.71956900   0.84101721
H    0.88480407  -3.02020666  -0.04558640
H    1.32716266  -2.02998735   1.01067105
O    1.80728234  -2.78312752   3.42276647
H    1.42057421  -3.23674056   4.17171498
H    1.30750393  -3.09576964   2.66863896
O    1.56944107  -3.08557657  -1.74595311
H    1.99692042  -3.83998493  -2.15136806
H    2.28942164  -2.50284328  -1.50453697
O   -3.40311197   0.81707748   1.58541313
H   -2.82315927   0.06217154   1.48539450
H   -2.85785093   1.48524494   2.00071360
O   -1.81972242   3.56863218  -0.24461525
H   -1.01674406   3.20655636  -0.61926001
H   -2.51983198   3.02630043  -0.60787097
O    3.40059690  -1.26841173  -0.98208577
H    3.27248211  -1.04737699  -0.05960970
H    3.16052430  -0.47177155  -1.45533139
O    0.51404983  -1.01931157  -3.26025581
H    0.76339026  -1.82355033  -2.80499632
H   -0.30503355  -0.75168944  -2.84346730
O    2.31985602   0.80381695  -2.45406162
H    2.76698350   1.18533891  -3.20954150
H    1.70068871   0.17921915  -2.83187280
O   -1.46641558   0.10796133  -1.67029569
H   -0.82892966   0.79600413  -1.47940135
H   -2.31521753   0.54817041  -1.62576405
O    0.35191945   0.96997959   1.60778439
H   -0.17815016   1.64796594   2.02682205
H   -0.26904193   0.26972840   1.40706794
O    0.35390174   1.97972638  -0.93444131
H    1.12666996   1.70151585  -1.42603060
H    0.51349573   1.67210989  -0.04217806
O    2.47535798  -0.79762543   1.59270034
H    2.47629095  -1.29844248   2.40842901
H    1.86356799  -0.07910479   1.75292814
O   -1.39489510  -0.95394793   0.83275725
H   -0.80078285  -1.70431005   0.84756147
H   -1.45605086  -0.71447380  -0.09198270
O   -3.67872308   1.62519818  -0.96845204
H   -4.60289805   1.70546389  -1.20443910
H   -3.68830562   1.32597851  -0.05927241
