45
Energy:   -618.96122950
O   -1.58564292  -2.34342037   1.11567285
H   -2.28597613  -1.74589907   1.37784365
H   -1.55302465  -2.99639389   1.81481052
O   -0.77872252  -3.65380328   3.42381742
H   -0.15916780  -2.92429955   3.43824362
H   -0.36918500  -4.32724992   3.96693847
O   -1.18430945   0.81210076   3.27954148
H   -1.98906501   0.40097853   2.96398031
H   -0.51441681   0.13559134   3.18049254
O    0.58502285   0.97920217  -4.05204591
H    0.43756558   1.00868026  -4.99736027
H    0.92485242   0.09924567  -3.88949048
O    0.82267805   2.03731037  -0.25106170
H    0.13836266   1.67776747  -0.81557316
H    0.34634859   2.47900127   0.45196834
O   -1.03808943   0.83606512  -1.81558159
H   -0.64671003   0.96787020  -2.67911007
H   -0.80962649  -0.06400549  -1.58339752
O   -3.30323187  -0.34150135   1.90107112
H   -4.23849161  -0.34509725   2.10480663
H   -3.20486101   0.34099153   1.23717468
O    2.57087310   2.03397367  -2.41401580
H    1.91895120   1.82585680  -3.08328185
H    2.05587654   2.26314256  -1.64039314
O   -2.81902124   1.65362624   0.15765887
H   -2.34088899   1.41131818  -0.63537846
H   -2.22582508   2.24152348   0.62534144
O    1.93496212  -0.36470435   0.40848869
H    1.61098914   0.52782543   0.28739393
H    2.65666448  -0.44473273  -0.21518831
O    1.56968865  -1.41009769  -3.30206870
H    2.37896785  -1.19367140  -2.83897186
H    0.96894810  -1.69690367  -2.61425698
O   -0.89540105   2.96303970   1.69062497
H   -0.96611571   3.75226938   2.22760522
H   -0.94660622   2.24114238   2.31710253
O    3.63803477  -0.35145541  -1.77231192
H    4.58582830  -0.34947373  -1.90616015
H    3.35913763   0.53066083  -2.01791153
O    0.45950246  -1.27744365   2.57490030
H   -0.23294882  -1.58987638   1.99255258
H    1.15584861  -0.98730689   1.98570207
O   -0.03850184  -1.57639413  -1.03750957
H    0.67325985  -1.23585968  -0.49560237
H   -0.63259104  -1.99768104  -0.41637577
