
                                 *****************
                                 * O   R   C   A *
                                 *****************

           --- An Ab Initio, DFT and Semiempirical electronic structure package ---

                  #######################################################
                  #                        -***-                        #
                  #          Department of theory and spectroscopy      #
                  #               Directorship: Frank Neese             #
                  #        Max Planck Institute fuer Kohlenforschung    #
                  #                Kaiser Wilhelm Platz 1               #
                  #                 D-45470 Muelheim/Ruhr               #
                  #                      Germany                        #
                  #                                                     #
                  #                  All rights reserved                #
                  #                        -***-                        #
                  #######################################################


                         Program Version 4.2.0 -  RELEASE  -


 With contributions from (in alphabetic order):
   Daniel Aravena         : Magnetic Suceptibility
   Michael Atanasov       : Ab Initio Ligand Field Theory (pilot matlab implementation)
   Alexander A. Auer      : GIAO ZORA, VPT2
   Ute Becker             : Parallelization
   Giovanni Bistoni       : ED, misc. LED, open-shell LED, HFLED
   Martin Brehm           : Molecular dynamics
   Dmytro Bykov           : SCF Hessian
   Vijay G. Chilkuri      : MRCI spin determinant printing, contributions to CSF-ICE
   Dipayan Datta          : RHF DLPNO-CCSD density
   Achintya Kumar Dutta   : EOM-CC, STEOM-CC
   Dmitry Ganyushin       : Spin-Orbit,Spin-Spin,Magnetic field MRCI
   Miquel Garcia          : C-PCM Hessian, Gaussian charge scheme
   Yang Guo               : DLPNO-NEVPT2, CIM, IAO-localization
   Andreas Hansen         : Spin unrestricted coupled pair/coupled cluster methods
   Benjamin Helmich-Paris : CASSCF linear response (MC-RPA)
   Lee Huntington         : MR-EOM, pCC
   Robert Izsak           : Overlap fitted RIJCOSX, COSX-SCS-MP3, EOM
   Christian Kollmar      : KDIIS, OOCD, Brueckner-CCSD(T), CCSD density
   Simone Kossmann        : Meta GGA functionals, TD-DFT gradient, OOMP2, MP2 Hessian
   Martin Krupicka        : AUTO-CI
   Lucas Lang             : DCDCAS
   Dagmar Lenk            : GEPOL surface, SMD
   Dimitrios Liakos       : Extrapolation schemes; Compound Job, initial MDCI parallelization
   Dimitrios Manganas     : Further ROCIS development; embedding schemes
   Dimitrios Pantazis     : SARC Basis sets
   Taras Petrenko         : DFT Hessian,TD-DFT gradient, ASA, ECA, R-Raman, ABS, FL, XAS/XES, NRVS
   Peter Pinski           : DLPNO-MP2, DLPNO-MP2 Gradient
   Christoph Reimann      : Effective Core Potentials
   Marius Retegan         : Local ZFS, SOC
   Christoph Riplinger    : Optimizer, TS searches, QM/MM, DLPNO-CCSD(T), (RO)-DLPNO pert. Triples
   Tobias Risthaus        : Range-separated hybrids, TD-DFT gradient, RPA, STAB
   Michael Roemelt        : Original ROCIS implementation
   Masaaki Saitow         : Open-shell DLPNO-CCSD energy and density
   Barbara Sandhoefer     : DKH picture change effects
   Avijit Sen             : IP-ROCIS
   Kantharuban Sivalingam : CASSCF convergence, NEVPT2, FIC-MRCI
   Bernardo de Souza      : ESD, SOC TD-DFT
   Georgi Stoychev        : AutoAux, RI-MP2 NMR
   Willem Van den Heuvel  : Paramagnetic NMR
   Boris Wezisla          : Elementary symmetry handling
   Frank Wennmohs         : Technical directorship


 We gratefully acknowledge several colleagues who have allowed us to
 interface, adapt or use parts of their codes:
   Stefan Grimme, W. Hujo, H. Kruse,             : VdW corrections, initial TS optimization,
                  C. Bannwarth                     DFT functionals, gCP, sTDA/sTD-DF
   Ed Valeev, F. Pavosevic, A. Kumar             : LibInt (2-el integral package), F12 methods
   Garnet Chan, S. Sharma, J. Yang, R. Olivares  : DMRG
   Ulf Ekstrom                                   : XCFun DFT Library
   Mihaly Kallay                                 : mrcc  (arbitrary order and MRCC methods)
   Andreas Klamt, Michael Diedenhofen            : otool_cosmo (COSMO solvation model)
   Jiri Pittner, Ondrej Demel                    : Mk-CCSD
   Frank Weinhold                                : gennbo (NPA and NBO analysis)
   Christopher J. Cramer and Donald G. Truhlar   : smd solvation model
   Lars Goerigk                                  : TD-DFT with DH, B97 family of functionals
   V. Asgeirsson, H. Jonsson                     : NEB implementation
   FAccTs GmbH                                   : IRC, NEB, NEB-TS, Multilevel, MM, QM/MM, CI optimization
   S Lehtola, MJT Oliveira, MAL Marques          : LibXC Library


 Your calculation uses the libint2 library for the computation of 2-el integrals
 For citations please refer to: http://libint.valeyev.net

 Your ORCA version has been built with support for libXC version: 4.2.3
 For citations please refer to: https://tddft.org/programs/libxc/

 This ORCA versions uses:
   CBLAS   interface :  Fast vector & matrix operations
   LAPACKE interface :  Fast linear algebra routines
   SCALAPACK package :  Parallel linear algebra routines


----- Orbital basis set information -----
Your calculation utilizes the basis: def2-TZVP
   F. Weigend and R. Ahlrichs, Phys. Chem. Chem. Phys. 7, 3297 (2005).

================================================================================
                                        WARNINGS
                       Please study these warnings very carefully!
================================================================================


WARNING: The frozen-core approximation for MP2-gradient calculations is turned on by default.

INFO   : the flag for use of LIBINT has been found!

================================================================================
                                       INPUT FILE
================================================================================
NAME = 12h2o.su.etal.mol1,2,4,5,6,7,8,9,10,11-orca.engrad-mp2.def2tzvp.frozencore.inp
|  1> # 12h2o.su.etal.mol1,2,4,5,6,7,8,9,10,11
|  2> ! MP2 def2-TZVP EnGrad TightSCF
|  3> 
|  4> %pal
|  5>     nprocs 6
|  6> end
|  7> 
|  8> %maxcore 8000
|  9> 
| 10> %scf
| 11>     ConvForced true
| 12> end
| 13> 
| 14> *xyz 0 1
| 15> O  -1.794470000  -0.923410000   2.768350000
| 16> H  -2.338250000  -1.359750000   3.430940000
| 17> H  -0.879480000  -1.303000000   2.865760000
| 18> O   0.923410000  -1.794470000  -2.768350000
| 19> H   1.359750000  -2.338250000  -3.430940000
| 20> H   1.303000000  -0.879480000  -2.865760000
| 21> O  -0.885520000   1.737840000   0.052730000
| 22> H  -1.032320000   2.090180000  -0.841890000
| 23> H  -1.284090000   0.839590000   0.017130000
| 24> O   0.885520000  -1.737840000   0.052730000
| 25> H   1.284090000  -0.839590000   0.017130000
| 26> H   1.032320000  -2.090180000  -0.841890000
| 27> O   1.737840000   0.885520000  -0.052730000
| 28> H   2.090180000   1.032320000   0.841890000
| 29> H   0.839590000   1.284090000  -0.017130000
| 30> O  -1.737840000  -0.885520000  -0.052730000
| 31> H  -2.090180000  -1.032320000   0.841890000
| 32> H  -0.839590000  -1.284090000  -0.017130000
| 33> O   1.752130000   0.741530000  -2.896280000
| 34> H   2.036450000   0.920500000  -1.984040000
| 35> H   0.921210000   1.242140000  -2.984230000
| 36> O   0.741530000  -1.752130000   2.896280000
| 37> H   0.920500000  -2.036450000   1.984040000
| 38> H   1.242140000  -0.921210000   2.984230000
| 39> O  -0.923410000   1.794470000  -2.768350000
| 40> H  -1.359750000   2.338250000  -3.430940000
| 41> H  -1.303000000   0.879480000  -2.865760000
| 42> O  -0.741530000   1.752130000   2.896280000
| 43> H  -0.920500000   2.036450000   1.984040000
| 44> H  -1.242140000   0.921210000   2.984230000
| 45> *
| 46> 
| 47>                          ****END OF INPUT****
================================================================================

                     *******************************
                     * Energy+Gradient Calculation *
                     *******************************

---------------------------------
CARTESIAN COORDINATES (ANGSTROEM)
---------------------------------
  O     -1.794470   -0.923410    2.768350
  H     -2.338250   -1.359750    3.430940
  H     -0.879480   -1.303000    2.865760
  O      0.923410   -1.794470   -2.768350
  H      1.359750   -2.338250   -3.430940
  H      1.303000   -0.879480   -2.865760
  O     -0.885520    1.737840    0.052730
  H     -1.032320    2.090180   -0.841890
  H     -1.284090    0.839590    0.017130
  O      0.885520   -1.737840    0.052730
  H      1.284090   -0.839590    0.017130
  H      1.032320   -2.090180   -0.841890
  O      1.737840    0.885520   -0.052730
  H      2.090180    1.032320    0.841890
  H      0.839590    1.284090   -0.017130
  O     -1.737840   -0.885520   -0.052730
  H     -2.090180   -1.032320    0.841890
  H     -0.839590   -1.284090   -0.017130
  O      1.752130    0.741530   -2.896280
  H      2.036450    0.920500   -1.984040
  H      0.921210    1.242140   -2.984230
  O      0.741530   -1.752130    2.896280
  H      0.920500   -2.036450    1.984040
  H      1.242140   -0.921210    2.984230
  O     -0.923410    1.794470   -2.768350
  H     -1.359750    2.338250   -3.430940
  H     -1.303000    0.879480   -2.865760
  O     -0.741530    1.752130    2.896280
  H     -0.920500    2.036450    1.984040
  H     -1.242140    0.921210    2.984230

----------------------------
CARTESIAN COORDINATES (A.U.)
----------------------------
  NO LB      ZA    FRAG     MASS         X           Y           Z
   0 O     8.0000    0    15.999   -3.391057   -1.744992    5.231423
   1 H     1.0000    0     1.008   -4.418652   -2.569555    6.483537
   2 H     1.0000    0     1.008   -1.661976   -2.462313    5.415502
   3 O     8.0000    0    15.999    1.744992   -3.391057   -5.231423
   4 H     1.0000    0     1.008    2.569555   -4.418652   -6.483537
   5 H     1.0000    0     1.008    2.462313   -1.661976   -5.415502
   6 O     8.0000    0    15.999   -1.673390    3.284042    0.099645
   7 H     1.0000    0     1.008   -1.950802    3.949868   -1.590942
   8 H     1.0000    0     1.008   -2.426578    1.586595    0.032371
   9 O     8.0000    0    15.999    1.673390   -3.284042    0.099645
  10 H     1.0000    0     1.008    2.426578   -1.586595    0.032371
  11 H     1.0000    0     1.008    1.950802   -3.949868   -1.590942
  12 O     8.0000    0    15.999    3.284042    1.673390   -0.099645
  13 H     1.0000    0     1.008    3.949868    1.950802    1.590942
  14 H     1.0000    0     1.008    1.586595    2.426578   -0.032371
  15 O     8.0000    0    15.999   -3.284042   -1.673390   -0.099645
  16 H     1.0000    0     1.008   -3.949868   -1.950802    1.590942
  17 H     1.0000    0     1.008   -1.586595   -2.426578   -0.032371
  18 O     8.0000    0    15.999    3.311046    1.401289   -5.473176
  19 H     1.0000    0     1.008    3.848333    1.739493   -3.749292
  20 H     1.0000    0     1.008    1.740835    2.347304   -5.639377
  21 O     8.0000    0    15.999    1.401289   -3.311046    5.473176
  22 H     1.0000    0     1.008    1.739493   -3.848333    3.749292
  23 H     1.0000    0     1.008    2.347304   -1.740835    5.639377
  24 O     8.0000    0    15.999   -1.744992    3.391057   -5.231423
  25 H     1.0000    0     1.008   -2.569555    4.418652   -6.483537
  26 H     1.0000    0     1.008   -2.462313    1.661976   -5.415502
  27 O     8.0000    0    15.999   -1.401289    3.311046    5.473176
  28 H     1.0000    0     1.008   -1.739493    3.848333    3.749292
  29 H     1.0000    0     1.008   -2.347304    1.740835    5.639377

--------------------------------
INTERNAL COORDINATES (ANGSTROEM)
--------------------------------
 O      0   0   0     0.000000000000     0.00000000     0.00000000
 H      1   0   0     0.961828878803     0.00000000     0.00000000
 H      1   2   0     0.995381322057   106.21731035     0.00000000
 O      3   1   2     5.935920367146   102.58474291   140.89009172
 H      4   3   1     0.961828878803   146.97742434   224.01286022
 H      4   3   1     0.995381322057    97.62005672    87.72090689
 O      1   2   3     3.909352075396   156.75189195   192.19368952
 H      7   1   2     0.972645187106   148.25827701   289.33301105
 H      7   1   2     0.983350632989    46.29716176   266.74328444
 O      4   3   1     2.821902722526    17.32744736   169.52589616
 H     10   4   3     0.983350632989    88.66470709   258.45499027
 H     10   4   3     0.972645187106    21.75017499   124.29821266
 O     11  10   4     1.785153773264   170.81379649    89.95043540
 H     13  11  10     0.972645187106   101.65007623   109.44492584
 H     13  11  10     0.983350632989    99.09581498     3.33484705
 O      9   7   1     1.785153773264   170.81379649   273.82543867
 H     16   9   7     0.972645187106   101.65007623   109.44492584
 H     16   9   7     0.983350632989    99.09581498     3.33484705
 O      6   4   3     1.682356278379   171.61043709   321.17145860
 H     19   6   4     0.972136791249   103.79460456    70.64587838
 H     19   6   4     0.974050112161   105.61118924   321.69395179
 O      3   1   2     1.682356278379   171.61043709   195.73896161
 H     22   3   1     0.972136791249   103.79460456   289.35412162
 H     22   3   1     0.974050112161   105.61118924    38.30604821
 O     21  19   6     1.937600461318   161.54375213    39.05245435
 H     25  21  19     0.961828878803   121.08403650   202.75419110
 H     25  21  19     0.995381322057    95.17003195   315.21089530
 O      7   1   2     2.847229166523    47.26764468    83.33509555
 H     28   7   1     0.972136791249    19.08819947   225.99629915
 H     28   7   1     0.974050112161    93.43428486   350.09257904

---------------------------
INTERNAL COORDINATES (A.U.)
---------------------------
 O      0   0   0     0.000000000000     0.00000000     0.00000000
 H      1   0   0     1.817593168635     0.00000000     0.00000000
 H      1   2   0     1.880998097508   106.21731035     0.00000000
 O      3   1   2    11.217263846671   102.58474291   140.89009172
 H      4   3   1     1.817593168635   146.97742434   224.01286022
 H      4   3   1     1.880998097508    97.62005672    87.72090689
 O      1   2   3     7.387604783574   156.75189195   192.19368952
 H      7   1   2     1.838033029106   148.25827701   289.33301105
 H      7   1   2     1.858263389967    46.29716176   266.74328444
 O      4   3   1     5.332623322141    17.32744736   169.52589616
 H     10   4   3     1.858263389967    88.66470709   258.45499027
 H     10   4   3     1.838033029106    21.75017499   124.29821266
 O     11  10   4     3.373451738406   170.81379649    89.95043540
 H     13  11  10     1.838033029106   101.65007623   109.44492584
 H     13  11  10     1.858263389967    99.09581498     3.33484705
 O      9   7   1     3.373451738406   170.81379649   273.82543867
 H     16   9   7     1.838033029106   101.65007623   109.44492584
 H     16   9   7     1.858263389967    99.09581498     3.33484705
 O      6   4   3     3.179192625819   171.61043709   321.17145860
 H     19   6   4     1.837072300170   103.79460456    70.64587838
 H     19   6   4     1.840687952699   105.61118924   321.69395179
 O      3   1   2     3.179192625819   171.61043709   195.73896161
 H     22   3   1     1.837072300170   103.79460456   289.35412162
 H     22   3   1     1.840687952699   105.61118924    38.30604821
 O     21  19   6     3.661534228851   161.54375213    39.05245435
 H     25  21  19     1.817593168635   121.08403650   202.75419110
 H     25  21  19     1.880998097508    95.17003195   315.21089530
 O      7   1   2     5.380483365242    47.26764468    83.33509555
 H     28   7   1     1.837072300170    19.08819947   225.99629915
 H     28   7   1     1.840687952699    93.43428486   350.09257904

---------------------
BASIS SET INFORMATION
---------------------
There are 2 groups of distinct atoms

 Group   1 Type O   : 11s6p2d1f contracted to 5s3p2d1f pattern {62111/411/11/1}
 Group   2 Type H   : 5s1p contracted to 3s1p pattern {311/1}

Atom   0O    basis set group =>   1
Atom   1H    basis set group =>   2
Atom   2H    basis set group =>   2
Atom   3O    basis set group =>   1
Atom   4H    basis set group =>   2
Atom   5H    basis set group =>   2
Atom   6O    basis set group =>   1
Atom   7H    basis set group =>   2
Atom   8H    basis set group =>   2
Atom   9O    basis set group =>   1
Atom  10H    basis set group =>   2
Atom  11H    basis set group =>   2
Atom  12O    basis set group =>   1
Atom  13H    basis set group =>   2
Atom  14H    basis set group =>   2
Atom  15O    basis set group =>   1
Atom  16H    basis set group =>   2
Atom  17H    basis set group =>   2
Atom  18O    basis set group =>   1
Atom  19H    basis set group =>   2
Atom  20H    basis set group =>   2
Atom  21O    basis set group =>   1
Atom  22H    basis set group =>   2
Atom  23H    basis set group =>   2
Atom  24O    basis set group =>   1
Atom  25H    basis set group =>   2
Atom  26H    basis set group =>   2
Atom  27O    basis set group =>   1
Atom  28H    basis set group =>   2
Atom  29H    basis set group =>   2


           ************************************************************
           *        Program running with 6 parallel MPI-processes     *
           *              working on a common directory               *
           ************************************************************
------------------------------------------------------------------------------
                           ORCA GTO INTEGRAL CALCULATION
------------------------------------------------------------------------------

                         BASIS SET STATISTICS AND STARTUP INFO

 # of primitive gaussian shells          ...  320
 # of primitive gaussian functions       ...  620
 # of contracted shells                  ...  190
 # of contracted basis functions         ...  430
 Highest angular momentum                ...    3
 Maximum contraction depth               ...    6
 Integral package used                   ... LIBINT
 Integral threshhold            Thresh   ...  2.500e-11
 Primitive cut-off              TCut     ...  2.500e-12


------------------------------ INTEGRAL EVALUATION ----------------------------


 * One electron integrals 
 Pre-screening matrix                    ... done
 Shell pair data                         ... done (   0.004 sec)



           ************************************************************
           *        Program running with 6 parallel MPI-processes     *
           *              working on a common directory               *
           ************************************************************
-------------------------------------------------------------------------------
                                 ORCA SCF
-------------------------------------------------------------------------------

------------
SCF SETTINGS
------------
Hamiltonian:
 Ab initio Hamiltonian  Method          .... Hartree-Fock(GTOs)


General Settings:
 Integral files         IntName         .... 12h2o.su.etal.mol1,2,4,5,6,7,8,9,10,11-orca.engrad-mp2.def2tzvp.frozencore
 Hartree-Fock type      HFTyp           .... RHF
 Total Charge           Charge          ....    0
 Multiplicity           Mult            ....    1
 Number of Electrons    NEL             ....  100
 Basis Dimension        Dim             ....  430
 Nuclear Repulsion      ENuc            ....    715.3714864090 Eh

Convergence Acceleration:
 DIIS                   CNVDIIS         .... on
   Start iteration      DIISMaxIt       ....    12
   Startup error        DIISStart       ....  0.200000
   # of expansion vecs  DIISMaxEq       ....     5
   Bias factor          DIISBfac        ....   1.050
   Max. coefficient     DIISMaxC        ....  10.000
 Newton-Raphson         CNVNR           .... off
 SOSCF                  CNVSOSCF        .... on
   Start iteration      SOSCFMaxIt      ....   150
   Startup grad/error   SOSCFStart      ....  0.003300
 Level Shifting         CNVShift        .... on
   Level shift para.    LevelShift      ....    0.2500
   Turn off err/grad.   ShiftErr        ....    0.0010
 Zerner damping         CNVZerner       .... off
 Static damping         CNVDamp         .... on
   Fraction old density DampFac         ....    0.7000
   Max. Damping (<1)    DampMax         ....    0.9800
   Min. Damping (>=0)   DampMin         ....    0.0000
   Turn off err/grad.   DampErr         ....    0.1000
 Fernandez-Rico         CNVRico         .... off

SCF Procedure:
 Maximum # iterations   MaxIter         ....   125
 SCF integral mode      SCFMode         .... Direct
   Integral package                     .... LIBINT
 Reset frequency        DirectResetFreq ....    20
 Integral Threshold     Thresh          ....  2.500e-11 Eh
 Primitive CutOff       TCut            ....  2.500e-12 Eh

Convergence Tolerance:
 Convergence Check Mode ConvCheckMode   .... Total+1el-Energy
 Convergence forced     ConvForced      .... 1
 Energy Change          TolE            ....  1.000e-08 Eh
 1-El. energy change                    ....  1.000e-05 Eh
 Orbital Gradient       TolG            ....  1.000e-05
 Orbital Rotation angle TolX            ....  1.000e-05
 DIIS Error             TolErr          ....  5.000e-07


Diagonalization of the overlap matrix:
Smallest eigenvalue                        ... 2.689e-03
Time for diagonalization                   ...    0.026 sec
Threshold for overlap eigenvalues          ... 1.000e-08
Number of eigenvalues below threshold      ... 0
Time for construction of square roots      ...    0.013 sec
Total time needed                          ...    0.040 sec

-------------------
DFT GRID GENERATION
-------------------

General Integration Accuracy     IntAcc      ...  4.340
Radial Grid Type                 RadialGrid  ... Gauss-Chebyshev
Angular Grid (max. acc.)         AngularGrid ... Lebedev-110
Angular grid pruning method      GridPruning ... 3 (G Style)
Weight generation scheme         WeightScheme... Becke
Basis function cutoff            BFCut       ...    1.0000e-11
Integration weight cutoff        WCut        ...    1.0000e-14
Grids for H and He will be reduced by one unit

# of grid points (after initial pruning)     ...  33040 (   0.0 sec)
# of grid points (after weights+screening)   ...  30277 (   0.0 sec)
nearest neighbour list constructed           ...    0.0 sec
Grid point re-assignment to atoms done       ...    0.0 sec
Grid point division into batches done        ...    0.0 sec
Reduced shell lists constructed in    0.1 sec

Total number of grid points                  ...    30277
Total number of batches                      ...      489
Average number of points per batch           ...       61
Average number of grid points per atom       ...     1009
Average number of shells per batch           ...    79.19 (41.68%)
Average number of basis functions per batch  ...   155.00 (36.05%)
Average number of large shells per batch     ...    50.66 (63.97%)
Average number of large basis fcns per batch ...    97.58 (62.95%)
Maximum spatial batch extension              ...  21.02, 16.09, 12.83 au
Average spatial batch extension              ...   0.64,  0.61,  0.56 au

Time for grid setup =    0.131 sec

------------------------------
INITIAL GUESS: MODEL POTENTIAL
------------------------------
Loading Hartree-Fock densities                     ... done
Calculating cut-offs                               ... done
Setting up the integral package                    ... done
Initializing the effective Hamiltonian             ... done
Starting the Coulomb interaction                   ... done (   0.1 sec)
Reading the grid                                   ... done
Mapping shells                                     ... done
Starting the XC term evaluation                    ... done (   0.1 sec)
Transforming the Hamiltonian                       ... done (   0.0 sec)
Diagonalizing the Hamiltonian                      ... done (   0.0 sec)
Back transforming the eigenvectors                 ... done (   0.0 sec)
Now organizing SCF variables                       ... done
                      ------------------
                      INITIAL GUESS DONE (   0.4 sec)
                      ------------------
--------------
SCF ITERATIONS
--------------
ITER       Energy         Delta-E        Max-DP      RMS-DP      [F,P]     Damp
               ***  Starting incremental Fock matrix formation  ***
  0   -759.8483023937   0.000000000000 0.04387799  0.00073082  0.3393026 0.7000
  1   -760.1653329019  -0.317030508185 0.02914749  0.00050824  0.2167413 0.7000
                               ***Turning on DIIS***
  2   -760.3349841588  -0.169651256929 0.01617350  0.00028766  0.1633909 0.7000
  3   -761.9432280736  -1.608243914810 0.00741971  0.00013535  0.1217181 0.7000
  4   -761.6203585231   0.322869550523 0.01688428  0.00031415  0.0861066 0.0000
  5   -760.7206833817   0.899675141381 0.00223052  0.00004988  0.0051119 0.0000
                      *** Initiating the SOSCF procedure ***
                           *** Shutting down DIIS ***
                      *** Re-Reading the Fockian *** 
                      *** Removing any level shift *** 
ITER      Energy       Delta-E        Grad      Rot      Max-DP    RMS-DP
  6   -760.67683432   0.0438490602  0.000909  0.000909  0.001464  0.000031
               *** Restarting incremental Fock matrix formation ***
  7   -760.66445032   0.0123840045  0.000295  0.000377  0.000654  0.000014
  8   -760.66446427  -0.0000139525  0.000120  0.000324  0.000571  0.000012
  9   -760.66446773  -0.0000034603  0.000057  0.000038  0.000098  0.000002
 10   -760.66446801  -0.0000002845  0.000012  0.000011  0.000020  0.000000
                  ***Gradient check signals convergence***
              ***Rediagonalizing the Fockian in SOSCF/NRSCF***

               *****************************************************
               *                     SUCCESS                       *
               *           SCF CONVERGED AFTER  11 CYCLES          *
               *****************************************************


----------------
TOTAL SCF ENERGY
----------------

Total Energy       :         -760.66446802 Eh          -20698.73248 eV

Components:
Nuclear Repulsion  :          715.37148641 Eh           19466.24779 eV
Electronic Energy  :        -1476.03595443 Eh          -40164.98027 eV
One Electron Energy:        -2477.37928386 Eh          -67412.91752 eV
Two Electron Energy:         1001.34332942 Eh           27247.93725 eV

Virial components:
Potential Energy   :        -1520.44085088 Eh          -41373.29893 eV
Kinetic Energy     :          759.77638286 Eh           20674.56645 eV
Virial Ratio       :            2.00116888


---------------
SCF CONVERGENCE
---------------

  Last Energy change         ...   -9.2414e-09  Tolerance :   1.0000e-08
  Last MAX-Density change    ...    6.5057e-06  Tolerance :   1.0000e-07
  Last RMS-Density change    ...    1.1407e-07  Tolerance :   5.0000e-09
  Last Orbital Gradient      ...    2.3737e-06  Tolerance :   1.0000e-05
  Last Orbital Rotation      ...    3.0550e-06  Tolerance :   1.0000e-05

             **** THE GBW FILE WAS UPDATED (12h2o.su.etal.mol1,2,4,5,6,7,8,9,10,11-orca.engrad-mp2.def2tzvp.frozencore.gbw) ****
             **** DENSITY FILE WAS UPDATED (12h2o.su.etal.mol1,2,4,5,6,7,8,9,10,11-orca.engrad-mp2.def2tzvp.frozencore.scfp) ****
             **** ENERGY FILE WAS UPDATED (12h2o.su.etal.mol1,2,4,5,6,7,8,9,10,11-orca.engrad-mp2.def2tzvp.frozencore.en.tmp) ****
             **** THE GBW FILE WAS UPDATED (12h2o.su.etal.mol1,2,4,5,6,7,8,9,10,11-orca.engrad-mp2.def2tzvp.frozencore.gbw) ****
             **** DENSITY FILE WAS UPDATED (12h2o.su.etal.mol1,2,4,5,6,7,8,9,10,11-orca.engrad-mp2.def2tzvp.frozencore.scfp) ****
----------------
ORBITAL ENERGIES
----------------

  NO   OCC          E(Eh)            E(eV) 
   0   2.0000     -20.620880      -561.1227 
   1   2.0000     -20.587244      -560.2074 
   2   2.0000     -20.577269      -559.9360 
   3   2.0000     -20.563564      -559.5630 
   4   2.0000     -20.558905      -559.4363 
   5   2.0000     -20.558832      -559.4343 
   6   2.0000     -20.558681      -559.4301 
   7   2.0000     -20.548148      -559.1435 
   8   2.0000     -20.536252      -558.8198 
   9   2.0000     -20.509317      -558.0869 
  10   2.0000      -1.401662       -38.1412 
  11   2.0000      -1.381009       -37.5792 
  12   2.0000      -1.369946       -37.2781 
  13   2.0000      -1.357187       -36.9309 
  14   2.0000      -1.350063       -36.7371 
  15   2.0000      -1.349899       -36.7326 
  16   2.0000      -1.342862       -36.5411 
  17   2.0000      -1.328283       -36.1444 
  18   2.0000      -1.318968       -35.8909 
  19   2.0000      -1.294189       -35.2167 
  20   2.0000      -0.766943       -20.8696 
  21   2.0000      -0.742259       -20.1979 
  22   2.0000      -0.731757       -19.9121 
  23   2.0000      -0.725376       -19.7385 
  24   2.0000      -0.722307       -19.6550 
  25   2.0000      -0.722174       -19.6514 
  26   2.0000      -0.717185       -19.5156 
  27   2.0000      -0.713177       -19.4065 
  28   2.0000      -0.697919       -18.9913 
  29   2.0000      -0.672058       -18.2876 
  30   2.0000      -0.651773       -17.7356 
  31   2.0000      -0.634251       -17.2588 
  32   2.0000      -0.623290       -16.9606 
  33   2.0000      -0.608958       -16.5706 
  34   2.0000      -0.599728       -16.3194 
  35   2.0000      -0.594310       -16.1720 
  36   2.0000      -0.584663       -15.9095 
  37   2.0000      -0.568967       -15.4824 
  38   2.0000      -0.563183       -15.3250 
  39   2.0000      -0.551270       -15.0008 
  40   2.0000      -0.533419       -14.5151 
  41   2.0000      -0.528770       -14.3886 
  42   2.0000      -0.516827       -14.0636 
  43   2.0000      -0.508432       -13.8351 
  44   2.0000      -0.507181       -13.8011 
  45   2.0000      -0.503896       -13.7117 
  46   2.0000      -0.500863       -13.6292 
  47   2.0000      -0.498113       -13.5543 
  48   2.0000      -0.484909       -13.1950 
  49   2.0000      -0.459460       -12.5025 
  50   0.0000       0.093279         2.5383 
  51   0.0000       0.111060         3.0221 
  52   0.0000       0.146099         3.9756 
  53   0.0000       0.147881         4.0240 
  54   0.0000       0.182869         4.9761 
  55   0.0000       0.189716         5.1624 
  56   0.0000       0.209718         5.7067 
  57   0.0000       0.217234         5.9112 
  58   0.0000       0.230169         6.2632 
  59   0.0000       0.259646         7.0653 
  60   0.0000       0.267038         7.2665 
  61   0.0000       0.288046         7.8381 
  62   0.0000       0.292488         7.9590 
  63   0.0000       0.310011         8.4358 
  64   0.0000       0.325622         8.8606 
  65   0.0000       0.330229         8.9860 
  66   0.0000       0.338560         9.2127 
  67   0.0000       0.348554         9.4846 
  68   0.0000       0.351965         9.5775 
  69   0.0000       0.361297         9.8314 
  70   0.0000       0.402563        10.9543 
  71   0.0000       0.459573        12.5056 
  72   0.0000       0.477734        12.9998 
  73   0.0000       0.481764        13.1095 
  74   0.0000       0.487224        13.2580 
  75   0.0000       0.509866        13.8742 
  76   0.0000       0.517701        14.0874 
  77   0.0000       0.527905        14.3650 
  78   0.0000       0.529292        14.4028 
  79   0.0000       0.533680        14.5222 
  80   0.0000       0.538302        14.6479 
  81   0.0000       0.549957        14.9651 
  82   0.0000       0.554254        15.0820 
  83   0.0000       0.558115        15.1871 
  84   0.0000       0.561163        15.2700 
  85   0.0000       0.576069        15.6756 
  86   0.0000       0.597499        16.2588 
  87   0.0000       0.602486        16.3945 
  88   0.0000       0.613041        16.6817 
  89   0.0000       0.621822        16.9206 
  90   0.0000       0.631070        17.1723 
  91   0.0000       0.635035        17.2802 
  92   0.0000       0.646084        17.5808 
  93   0.0000       0.654701        17.8153 
  94   0.0000       0.680096        18.5064 
  95   0.0000       0.699413        19.0320 
  96   0.0000       0.707326        19.2473 
  97   0.0000       0.713115        19.4049 
  98   0.0000       0.722495        19.6601 
  99   0.0000       0.732894        19.9431 
 100   0.0000       0.740427        20.1480 
 101   0.0000       0.753546        20.5050 
 102   0.0000       0.765394        20.8274 
 103   0.0000       0.772791        21.0287 
 104   0.0000       0.776402        21.1270 
 105   0.0000       0.784970        21.3601 
 106   0.0000       0.792114        21.5545 
 107   0.0000       0.812173        22.1004 
 108   0.0000       0.816831        22.2271 
 109   0.0000       0.826747        22.4969 
 110   0.0000       0.834674        22.7126 
 111   0.0000       0.842692        22.9308 
 112   0.0000       0.862283        23.4639 
 113   0.0000       0.884715        24.0743 
 114   0.0000       0.892860        24.2960 
 115   0.0000       0.911051        24.7909 
 116   0.0000       0.921737        25.0817 
 117   0.0000       0.936656        25.4877 
 118   0.0000       0.943223        25.6664 
 119   0.0000       0.964002        26.2318 
 120   0.0000       0.987272        26.8650 
 121   0.0000       1.028777        27.9944 
 122   0.0000       1.036007        28.1912 
 123   0.0000       1.040105        28.3027 
 124   0.0000       1.058017        28.7901 
 125   0.0000       1.074663        29.2431 
 126   0.0000       1.116409        30.3790 
 127   0.0000       1.153772        31.3957 
 128   0.0000       1.191798        32.4305 
 129   0.0000       1.210338        32.9350 
 130   0.0000       1.340251        36.4701 
 131   0.0000       1.352145        36.7937 
 132   0.0000       1.376696        37.4618 
 133   0.0000       1.385953        37.7137 
 134   0.0000       1.397860        38.0377 
 135   0.0000       1.405957        38.2580 
 136   0.0000       1.407143        38.2903 
 137   0.0000       1.415963        38.5303 
 138   0.0000       1.429265        38.8923 
 139   0.0000       1.433601        39.0103 
 140   0.0000       1.439265        39.1644 
 141   0.0000       1.452463        39.5235 
 142   0.0000       1.459206        39.7070 
 143   0.0000       1.484246        40.3884 
 144   0.0000       1.499552        40.8049 
 145   0.0000       1.515602        41.2416 
 146   0.0000       1.527219        41.5577 
 147   0.0000       1.532007        41.6880 
 148   0.0000       1.551432        42.2166 
 149   0.0000       1.557429        42.3798 
 150   0.0000       1.572443        42.7884 
 151   0.0000       1.577279        42.9200 
 152   0.0000       1.590768        43.2870 
 153   0.0000       1.605967        43.7006 
 154   0.0000       1.612457        43.8772 
 155   0.0000       1.615398        43.9572 
 156   0.0000       1.626261        44.2528 
 157   0.0000       1.645133        44.7664 
 158   0.0000       1.657687        45.1080 
 159   0.0000       1.678007        45.6609 
 160   0.0000       1.795563        48.8598 
 161   0.0000       1.825299        49.6689 
 162   0.0000       1.829088        49.7720 
 163   0.0000       1.859190        50.5911 
 164   0.0000       1.877749        51.0961 
 165   0.0000       1.887372        51.3580 
 166   0.0000       1.905342        51.8470 
 167   0.0000       1.919627        52.2357 
 168   0.0000       1.927221        52.4423 
 169   0.0000       1.939338        52.7721 
 170   0.0000       1.948348        53.0173 
 171   0.0000       1.960570        53.3498 
 172   0.0000       1.975931        53.7678 
 173   0.0000       1.982259        53.9400 
 174   0.0000       2.005227        54.5650 
 175   0.0000       2.009798        54.6894 
 176   0.0000       2.016985        54.8849 
 177   0.0000       2.025578        55.1188 
 178   0.0000       2.040734        55.5312 
 179   0.0000       2.061482        56.0958 
 180   0.0000       2.093133        56.9570 
 181   0.0000       2.109766        57.4096 
 182   0.0000       2.116072        57.5812 
 183   0.0000       2.134592        58.0852 
 184   0.0000       2.141862        58.2830 
 185   0.0000       2.177804        59.2611 
 186   0.0000       2.181884        59.3721 
 187   0.0000       2.196147        59.7602 
 188   0.0000       2.198793        59.8322 
 189   0.0000       2.231445        60.7207 
 190   0.0000       2.243824        61.0576 
 191   0.0000       2.256432        61.4006 
 192   0.0000       2.263522        61.5936 
 193   0.0000       2.282862        62.1198 
 194   0.0000       2.294287        62.4307 
 195   0.0000       2.311175        62.8903 
 196   0.0000       2.321360        63.1674 
 197   0.0000       2.328828        63.3706 
 198   0.0000       2.341977        63.7284 
 199   0.0000       2.360019        64.2194 
 200   0.0000       2.364631        64.3449 
 201   0.0000       2.371802        64.5400 
 202   0.0000       2.381615        64.8070 
 203   0.0000       2.387649        64.9712 
 204   0.0000       2.403976        65.4155 
 205   0.0000       2.414679        65.7068 
 206   0.0000       2.425280        65.9952 
 207   0.0000       2.436203        66.2925 
 208   0.0000       2.469635        67.2022 
 209   0.0000       2.489446        67.7413 
 210   0.0000       2.498689        67.9928 
 211   0.0000       2.511977        68.3544 
 212   0.0000       2.516145        68.4678 
 213   0.0000       2.547228        69.3136 
 214   0.0000       2.559803        69.6558 
 215   0.0000       2.572755        70.0082 
 216   0.0000       2.580478        70.2184 
 217   0.0000       2.590686        70.4961 
 218   0.0000       2.597949        70.6938 
 219   0.0000       2.612140        71.0800 
 220   0.0000       2.620098        71.2965 
 221   0.0000       2.630071        71.5679 
 222   0.0000       2.644283        71.9546 
 223   0.0000       2.649485        72.0962 
 224   0.0000       2.653555        72.2069 
 225   0.0000       2.661812        72.4316 
 226   0.0000       2.666310        72.5540 
 227   0.0000       2.678130        72.8756 
 228   0.0000       2.680855        72.9498 
 229   0.0000       2.696433        73.3737 
 230   0.0000       2.708434        73.7002 
 231   0.0000       2.717328        73.9423 
 232   0.0000       2.745723        74.7149 
 233   0.0000       2.751443        74.8706 
 234   0.0000       2.757254        75.0287 
 235   0.0000       2.782310        75.7105 
 236   0.0000       2.792995        76.0013 
 237   0.0000       2.812440        76.5304 
 238   0.0000       2.822864        76.8140 
 239   0.0000       2.870283        78.1044 
 240   0.0000       2.894958        78.7758 
 241   0.0000       2.909040        79.1590 
 242   0.0000       2.920933        79.4826 
 243   0.0000       2.955498        80.4232 
 244   0.0000       2.966467        80.7217 
 245   0.0000       2.977042        81.0094 
 246   0.0000       2.989627        81.3519 
 247   0.0000       3.000904        81.6588 
 248   0.0000       3.014304        82.0234 
 249   0.0000       3.027239        82.3754 
 250   0.0000       3.030694        82.4694 
 251   0.0000       3.040373        82.7328 
 252   0.0000       3.062872        83.3450 
 253   0.0000       3.068163        83.4890 
 254   0.0000       3.082956        83.8915 
 255   0.0000       3.095211        84.2250 
 256   0.0000       3.112114        84.6849 
 257   0.0000       3.127606        85.1065 
 258   0.0000       3.137276        85.3696 
 259   0.0000       3.154576        85.8404 
 260   0.0000       3.158479        85.9466 
 261   0.0000       3.197232        87.0011 
 262   0.0000       3.209964        87.3476 
 263   0.0000       3.243143        88.2504 
 264   0.0000       3.245636        88.3182 
 265   0.0000       3.279297        89.2342 
 266   0.0000       3.280110        89.2563 
 267   0.0000       3.306030        89.9616 
 268   0.0000       3.320629        90.3589 
 269   0.0000       3.328154        90.5637 
 270   0.0000       3.340856        90.9093 
 271   0.0000       3.368140        91.6517 
 272   0.0000       3.384129        92.0868 
 273   0.0000       3.392809        92.3230 
 274   0.0000       3.428702        93.2997 
 275   0.0000       3.474453        94.5447 
 276   0.0000       3.489946        94.9663 
 277   0.0000       3.534339        96.1743 
 278   0.0000       3.547302        96.5270 
 279   0.0000       3.566528        97.0502 
 280   0.0000       3.970215       108.0350 
 281   0.0000       4.049865       110.2024 
 282   0.0000       4.065706       110.6335 
 283   0.0000       4.091244       111.3284 
 284   0.0000       4.122686       112.1840 
 285   0.0000       4.124809       112.2418 
 286   0.0000       4.138274       112.6082 
 287   0.0000       4.147672       112.8639 
 288   0.0000       4.189933       114.0139 
 289   0.0000       4.203991       114.3964 
 290   0.0000       4.264480       116.0424 
 291   0.0000       4.304533       117.1323 
 292   0.0000       4.317321       117.4803 
 293   0.0000       4.337849       118.0389 
 294   0.0000       4.349971       118.3687 
 295   0.0000       4.362782       118.7173 
 296   0.0000       4.373646       119.0130 
 297   0.0000       4.388456       119.4160 
 298   0.0000       4.399132       119.7065 
 299   0.0000       4.409094       119.9776 
 300   0.0000       5.492866       149.4685 
 301   0.0000       5.514516       150.0576 
 302   0.0000       5.527008       150.3975 
 303   0.0000       5.537650       150.6871 
 304   0.0000       5.539692       150.7427 
 305   0.0000       5.541394       150.7890 
 306   0.0000       5.546560       150.9296 
 307   0.0000       5.559887       151.2922 
 308   0.0000       5.561207       151.3281 
 309   0.0000       5.587652       152.0477 
 310   0.0000       5.594056       152.2220 
 311   0.0000       5.640642       153.4897 
 312   0.0000       5.643942       153.5795 
 313   0.0000       5.645971       153.6347 
 314   0.0000       5.673776       154.3913 
 315   0.0000       5.675128       154.4281 
 316   0.0000       5.679802       154.5553 
 317   0.0000       5.687892       154.7754 
 318   0.0000       5.697945       155.0490 
 319   0.0000       5.701809       155.1541 
 320   0.0000       5.757078       156.6581 
 321   0.0000       5.795000       157.6900 
 322   0.0000       5.795823       157.7124 
 323   0.0000       5.802778       157.9016 
 324   0.0000       5.814654       158.2248 
 325   0.0000       5.818426       158.3274 
 326   0.0000       5.825882       158.5303 
 327   0.0000       5.826997       158.5607 
 328   0.0000       5.830568       158.6578 
 329   0.0000       5.840824       158.9369 
 330   0.0000       5.842405       158.9799 
 331   0.0000       5.845656       159.0684 
 332   0.0000       5.856984       159.3766 
 333   0.0000       5.859158       159.4358 
 334   0.0000       5.865731       159.6146 
 335   0.0000       5.867042       159.6503 
 336   0.0000       5.869908       159.7283 
 337   0.0000       5.874005       159.8398 
 338   0.0000       5.884417       160.1231 
 339   0.0000       5.887261       160.2005 
 340   0.0000       5.889623       160.2648 
 341   0.0000       5.896811       160.4604 
 342   0.0000       5.898086       160.4951 
 343   0.0000       5.902667       160.6197 
 344   0.0000       5.908480       160.7779 
 345   0.0000       5.923984       161.1998 
 346   0.0000       5.925482       161.2406 
 347   0.0000       5.938170       161.5858 
 348   0.0000       5.943313       161.7258 
 349   0.0000       5.955063       162.0455 
 350   0.0000       6.375780       173.4938 
 351   0.0000       6.452574       175.5835 
 352   0.0000       6.464092       175.8969 
 353   0.0000       6.471504       176.0986 
 354   0.0000       6.478216       176.2812 
 355   0.0000       6.483640       176.4288 
 356   0.0000       6.487498       176.5338 
 357   0.0000       6.495221       176.7439 
 358   0.0000       6.504735       177.0028 
 359   0.0000       6.542307       178.0252 
 360   0.0000       6.633638       180.5105 
 361   0.0000       6.665618       181.3807 
 362   0.0000       6.684564       181.8962 
 363   0.0000       6.696602       182.2238 
 364   0.0000       6.723259       182.9492 
 365   0.0000       6.730865       183.1561 
 366   0.0000       6.741836       183.4547 
 367   0.0000       6.753744       183.7787 
 368   0.0000       6.773509       184.3166 
 369   0.0000       6.789192       184.7433 
 370   0.0000       6.827779       185.7933 
 371   0.0000       6.842522       186.1945 
 372   0.0000       6.849279       186.3784 
 373   0.0000       6.853904       186.5042 
 374   0.0000       6.862397       186.7353 
 375   0.0000       6.879029       187.1879 
 376   0.0000       6.881504       187.2553 
 377   0.0000       6.885696       187.3693 
 378   0.0000       6.894578       187.6110 
 379   0.0000       6.897543       187.6917 
 380   0.0000       6.901336       187.7949 
 381   0.0000       6.907943       187.9747 
 382   0.0000       6.916689       188.2127 
 383   0.0000       6.918449       188.2606 
 384   0.0000       6.931958       188.6282 
 385   0.0000       6.935033       188.7118 
 386   0.0000       6.947728       189.0573 
 387   0.0000       6.950754       189.1396 
 388   0.0000       6.962221       189.4517 
 389   0.0000       6.965425       189.5388 
 390   0.0000       6.976726       189.8464 
 391   0.0000       6.986265       190.1059 
 392   0.0000       7.010765       190.7726 
 393   0.0000       7.015008       190.8881 
 394   0.0000       7.033357       191.3874 
 395   0.0000       7.055568       191.9918 
 396   0.0000       7.061813       192.1617 
 397   0.0000       7.089672       192.9198 
 398   0.0000       7.109177       193.4505 
 399   0.0000       7.139298       194.2702 
 400   0.0000       7.336867       199.6463 
 401   0.0000       7.358861       200.2448 
 402   0.0000       7.397722       201.3023 
 403   0.0000       7.427102       202.1017 
 404   0.0000       7.443970       202.5607 
 405   0.0000       7.456109       202.8911 
 406   0.0000       7.471303       203.3045 
 407   0.0000       7.475731       203.4250 
 408   0.0000       7.496709       203.9958 
 409   0.0000       7.503418       204.1784 
 410   0.0000       7.531659       204.9469 
 411   0.0000       7.547651       205.3820 
 412   0.0000       7.568605       205.9522 
 413   0.0000       7.571022       206.0180 
 414   0.0000       7.573284       206.0795 
 415   0.0000       7.590605       206.5509 
 416   0.0000       7.622829       207.4277 
 417   0.0000       7.634722       207.7513 
 418   0.0000       7.642737       207.9694 
 419   0.0000       7.651002       208.1944 
 420   0.0000      44.896504      1221.6960 
 421   0.0000      44.984760      1224.0976 
 422   0.0000      44.995047      1224.3775 
 423   0.0000      45.008259      1224.7370 
 424   0.0000      45.022012      1225.1112 
 425   0.0000      45.037356      1225.5288 
 426   0.0000      45.107394      1227.4346 
 427   0.0000      45.109837      1227.5011 
 428   0.0000      45.134065      1228.1603 
 429   0.0000      45.230180      1230.7758 

                    ********************************
                    * MULLIKEN POPULATION ANALYSIS *
                    ********************************

-----------------------
MULLIKEN ATOMIC CHARGES
-----------------------
   0 O :   -0.790284
   1 H :    0.357735
   2 H :    0.414861
   3 O :   -0.777991
   4 H :    0.347403
   5 H :    0.403194
   6 O :   -0.802104
   7 H :    0.394691
   8 H :    0.398005
   9 O :   -0.809470
  10 H :    0.382553
  11 H :    0.411928
  12 O :   -0.786680
  13 H :    0.370836
  14 H :    0.410229
  15 O :   -0.786180
  16 H :    0.395337
  17 H :    0.396360
  18 O :   -0.756390
  19 H :    0.402803
  20 H :    0.384908
  21 O :   -0.736812
  22 H :    0.410872
  23 H :    0.358400
  24 O :   -0.758950
  25 H :    0.377688
  26 H :    0.399366
  27 O :   -0.767594
  28 H :    0.383409
  29 H :    0.371880
Sum of atomic charges:   -0.0000000

--------------------------------
MULLIKEN REDUCED ORBITAL CHARGES
--------------------------------
  0 O s       :     3.806872  s :     3.806872
      pz      :     1.723207  p :     4.959962
      px      :     1.439785
      py      :     1.796969
      dz2     :     0.003607  d :     0.022059
      dxz     :     0.004366
      dyz     :     0.005058
      dx2y2   :     0.002224
      dxy     :     0.006804
      f0      :     0.000081  f :     0.001391
      f+1     :     0.000315
      f-1     :     0.000171
      f+2     :     0.000062
      f-2     :     0.000347
      f+3     :     0.000083
      f-3     :     0.000334
  1 H s       :     0.596838  s :     0.596838
      pz      :     0.016875  p :     0.045427
      px      :     0.013736
      py      :     0.014816
  2 H s       :     0.529596  s :     0.529596
      pz      :     0.009911  p :     0.055543
      px      :     0.032562
      py      :     0.013070
  3 O s       :     3.808488  s :     3.808488
      pz      :     1.709192  p :     4.945493
      px      :     1.811289
      py      :     1.425012
      dz2     :     0.003524  d :     0.022589
      dxz     :     0.005325
      dyz     :     0.004183
      dx2y2   :     0.002223
      dxy     :     0.007334
      f0      :     0.000078  f :     0.001420
      f+1     :     0.000176
      f-1     :     0.000308
      f+2     :     0.000069
      f-2     :     0.000348
      f+3     :     0.000352
      f-3     :     0.000088
  4 H s       :     0.606829  s :     0.606829
      pz      :     0.016887  p :     0.045768
      px      :     0.014982
      py      :     0.013899
  5 H s       :     0.540181  s :     0.540181
      pz      :     0.010036  p :     0.056626
      px      :     0.013978
      py      :     0.032612
  6 O s       :     3.800226  s :     3.800226
      pz      :     1.601095  p :     4.978306
      px      :     1.843271
      py      :     1.533940
      dz2     :     0.010318  d :     0.022280
      dxz     :     0.001914
      dyz     :     0.002593
      dx2y2   :     0.003085
      dxy     :     0.004371
      f0      :     0.000167  f :     0.001292
      f+1     :     0.000104
      f-1     :     0.000431
      f+2     :     0.000066
      f-2     :     0.000035
      f+3     :     0.000400
      f-3     :     0.000090
  7 H s       :     0.556917  s :     0.556917
      pz      :     0.024445  p :     0.048392
      px      :     0.012733
      py      :     0.011214
  8 H s       :     0.549149  s :     0.549149
      pz      :     0.008607  p :     0.052846
      px      :     0.014331
      py      :     0.029908
  9 O s       :     3.798363  s :     3.798363
      pz      :     1.619183  p :     4.988178
      px      :     1.850902
      py      :     1.518093
      dz2     :     0.009739  d :     0.021620
      dxz     :     0.001802
      dyz     :     0.002321
      dx2y2   :     0.003120
      dxy     :     0.004637
      f0      :     0.000167  f :     0.001310
      f+1     :     0.000105
      f-1     :     0.000427
      f+2     :     0.000068
      f-2     :     0.000035
      f+3     :     0.000411
      f-3     :     0.000097
 10 H s       :     0.564720  s :     0.564720
      pz      :     0.008940  p :     0.052727
      px      :     0.014771
      py      :     0.029016
 11 H s       :     0.539569  s :     0.539569
      pz      :     0.025458  p :     0.048502
      px      :     0.012103
      py      :     0.010942
 12 O s       :     3.801443  s :     3.801443
      pz      :     1.565949  p :     4.961240
      px      :     1.543043
      py      :     1.852248
      dz2     :     0.010575  d :     0.022642
      dxz     :     0.002605
      dyz     :     0.001910
      dx2y2   :     0.003094
      dxy     :     0.004458
      f0      :     0.000190  f :     0.001355
      f+1     :     0.000445
      f-1     :     0.000111
      f+2     :     0.000068
      f-2     :     0.000037
      f+3     :     0.000095
      f-3     :     0.000410
 13 H s       :     0.585245  s :     0.585245
      pz      :     0.018960  p :     0.043920
      px      :     0.011646
      py      :     0.013313
 14 H s       :     0.537461  s :     0.537461
      pz      :     0.008294  p :     0.052310
      px      :     0.029889
      py      :     0.014126
 15 O s       :     3.798128  s :     3.798128
      pz      :     1.603480  p :     4.963278
      px      :     1.523634
      py      :     1.836164
      dz2     :     0.011034  d :     0.023473
      dxz     :     0.002799
      dyz     :     0.001986
      dx2y2   :     0.003259
      dxy     :     0.004396
      f0      :     0.000148  f :     0.001300
      f+1     :     0.000447
      f-1     :     0.000106
      f+2     :     0.000066
      f-2     :     0.000039
      f+3     :     0.000092
      f-3     :     0.000402
 16 H s       :     0.556229  s :     0.556229
      pz      :     0.024932  p :     0.048434
      px      :     0.010927
      py      :     0.012576
 17 H s       :     0.550419  s :     0.550419
      pz      :     0.009380  p :     0.053221
      px      :     0.029095
      py      :     0.014745
 18 O s       :     3.793057  s :     3.793057
      pz      :     1.570973  p :     4.937776
      px      :     1.582753
      py      :     1.784050
      dz2     :     0.011754  d :     0.024206
      dxz     :     0.001211
      dyz     :     0.002255
      dx2y2   :     0.002363
      dxy     :     0.006623
      f0      :     0.000230  f :     0.001351
      f+1     :     0.000377
      f-1     :     0.000149
      f+2     :     0.000050
      f-2     :     0.000055
      f+3     :     0.000048
      f-3     :     0.000443
 19 H s       :     0.549406  s :     0.549406
      pz      :     0.024582  p :     0.047791
      px      :     0.011138
      py      :     0.012071
 20 H s       :     0.565553  s :     0.565553
      pz      :     0.009978  p :     0.049538
      px      :     0.023806
      py      :     0.015754
 21 O s       :     3.797082  s :     3.797082
      pz      :     1.581897  p :     4.913497
      px      :     1.782945
      py      :     1.548655
      dz2     :     0.011883  d :     0.024846
      dxz     :     0.002308
      dyz     :     0.001187
      dx2y2   :     0.002449
      dxy     :     0.007018
      f0      :     0.000223  f :     0.001388
      f+1     :     0.000153
      f-1     :     0.000382
      f+2     :     0.000050
      f-2     :     0.000055
      f+3     :     0.000474
      f-3     :     0.000051
 22 H s       :     0.541180  s :     0.541180
      pz      :     0.025384  p :     0.047948
      px      :     0.011672
      py      :     0.010892
 23 H s       :     0.597934  s :     0.597934
      pz      :     0.010554  p :     0.043666
      px      :     0.014732
      py      :     0.018379
 24 O s       :     3.807469  s :     3.807469
      pz      :     1.735410  p :     4.926421
      px      :     1.795683
      py      :     1.395328
      dz2     :     0.004002  d :     0.023592
      dxz     :     0.005297
      dyz     :     0.004519
      dx2y2   :     0.002518
      dxy     :     0.007255
      f0      :     0.000085  f :     0.001469
      f+1     :     0.000179
      f-1     :     0.000333
      f+2     :     0.000062
      f-2     :     0.000348
      f+3     :     0.000369
      f-3     :     0.000093
 25 H s       :     0.577426  s :     0.577426
      pz      :     0.017050  p :     0.044886
      px      :     0.014628
      py      :     0.013209
 26 H s       :     0.560492  s :     0.560492
      pz      :     0.010122  p :     0.040143
      px      :     0.011868
      py      :     0.018152
 27 O s       :     3.806265  s :     3.806265
      pz      :     1.549536  p :     4.935451
      px      :     1.819293
      py      :     1.566621
      dz2     :     0.011427  d :     0.024449
      dxz     :     0.002797
      dyz     :     0.001242
      dx2y2   :     0.002005
      dxy     :     0.006979
      f0      :     0.000250  f :     0.001430
      f+1     :     0.000158
      f-1     :     0.000370
      f+2     :     0.000055
      f-2     :     0.000054
      f+3     :     0.000479
      f-3     :     0.000063
 28 H s       :     0.567937  s :     0.567937
      pz      :     0.024110  p :     0.048654
      px      :     0.013006
      py      :     0.011538
 29 H s       :     0.577724  s :     0.577724
      pz      :     0.010148  p :     0.050396
      px      :     0.016496
      py      :     0.023752


                     *******************************
                     * LOEWDIN POPULATION ANALYSIS *
                     *******************************

----------------------
LOEWDIN ATOMIC CHARGES
----------------------
   0 O :   -0.325634
   1 H :    0.157618
   2 H :    0.157624
   3 O :   -0.350462
   4 H :    0.153927
   5 H :    0.153982
   6 O :   -0.315744
   7 H :    0.155104
   8 H :    0.153496
   9 O :   -0.320036
  10 H :    0.148693
  11 H :    0.162955
  12 O :   -0.309450
  13 H :    0.170861
  14 H :    0.158554
  15 O :   -0.332505
  16 H :    0.155409
  17 H :    0.150368
  18 O :   -0.297039
  19 H :    0.161842
  20 H :    0.155321
  21 O :   -0.286433
  22 H :    0.165043
  23 H :    0.169715
  24 O :   -0.300151
  25 H :    0.169591
  26 H :    0.199718
  27 O :   -0.363121
  28 H :    0.152297
  29 H :    0.148457

-------------------------------
LOEWDIN REDUCED ORBITAL CHARGES
-------------------------------
  0 O s       :     3.455086  s :     3.455086
      pz      :     1.682292  p :     4.839944
      px      :     1.405377
      py      :     1.752275
      dz2     :     0.004686  d :     0.028645
      dxz     :     0.006664
      dyz     :     0.005186
      dx2y2   :     0.003572
      dxy     :     0.008538
      f0      :     0.000085  f :     0.001958
      f+1     :     0.000428
      f-1     :     0.000261
      f+2     :     0.000032
      f-2     :     0.000609
      f+3     :     0.000083
      f-3     :     0.000460
  1 H s       :     0.676873  s :     0.676873
      pz      :     0.066093  p :     0.165509
      px      :     0.046144
      py      :     0.053272
  2 H s       :     0.644799  s :     0.644799
      pz      :     0.033230  p :     0.197577
      px      :     0.116808
      py      :     0.047539
  3 O s       :     3.460208  s :     3.460208
      pz      :     1.676254  p :     4.859490
      px      :     1.782813
      py      :     1.400423
      dz2     :     0.004464  d :     0.028796
      dxz     :     0.005543
      dyz     :     0.006720
      dx2y2   :     0.003191
      dxy     :     0.008877
      f0      :     0.000081  f :     0.001968
      f+1     :     0.000259
      f-1     :     0.000423
      f+2     :     0.000034
      f-2     :     0.000616
      f+3     :     0.000470
      f-3     :     0.000084
  4 H s       :     0.681228  s :     0.681228
      pz      :     0.065680  p :     0.164845
      px      :     0.053258
      py      :     0.045907
  5 H s       :     0.648177  s :     0.648177
      pz      :     0.033263  p :     0.197841
      px      :     0.047799
      py      :     0.116780
  6 O s       :     3.449395  s :     3.449395
      pz      :     1.556045  p :     4.836095
      px      :     1.784172
      py      :     1.495878
      dz2     :     0.013754  d :     0.028383
      dxz     :     0.001166
      dyz     :     0.003769
      dx2y2   :     0.004471
      dxy     :     0.005224
      f0      :     0.000346  f :     0.001871
      f+1     :     0.000185
      f-1     :     0.000688
      f+2     :     0.000035
      f-2     :     0.000045
      f+3     :     0.000510
      f-3     :     0.000063
  7 H s       :     0.671644  s :     0.671644
      pz      :     0.092598  p :     0.173252
      px      :     0.042876
      py      :     0.037778
  8 H s       :     0.655682  s :     0.655682
      pz      :     0.030066  p :     0.190821
      px      :     0.052601
      py      :     0.108155
  9 O s       :     3.447715  s :     3.447715
      pz      :     1.565864  p :     4.843004
      px      :     1.789045
      py      :     1.488095
      dz2     :     0.012734  d :     0.027447
      dxz     :     0.001085
      dyz     :     0.003308
      dx2y2   :     0.004639
      dxy     :     0.005680
      f0      :     0.000328  f :     0.001869
      f+1     :     0.000186
      f-1     :     0.000673
      f+2     :     0.000034
      f-2     :     0.000043
      f+3     :     0.000540
      f-3     :     0.000066
 10 H s       :     0.663440  s :     0.663440
      pz      :     0.030722  p :     0.187867
      px      :     0.052818
      py      :     0.104326
 11 H s       :     0.661452  s :     0.661452
      pz      :     0.096269  p :     0.175594
      px      :     0.042218
      py      :     0.037107
 12 O s       :     3.453396  s :     3.453396
      pz      :     1.534935  p :     4.824871
      px      :     1.498701
      py      :     1.791234
      dz2     :     0.014359  d :     0.029228
      dxz     :     0.003998
      dyz     :     0.001208
      dx2y2   :     0.004424
      dxy     :     0.005240
      f0      :     0.000381  f :     0.001956
      f+1     :     0.000725
      f-1     :     0.000190
      f+2     :     0.000039
      f-2     :     0.000046
      f+3     :     0.000063
      f-3     :     0.000512
 13 H s       :     0.669017  s :     0.669017
      pz      :     0.079831  p :     0.160122
      px      :     0.037193
      py      :     0.043098
 14 H s       :     0.651530  s :     0.651530
      pz      :     0.028755  p :     0.189915
      px      :     0.108527
      py      :     0.052633
 15 O s       :     3.454190  s :     3.454190
      pz      :     1.576997  p :     4.848166
      px      :     1.490303
      py      :     1.780865
      dz2     :     0.013282  d :     0.028273
      dxz     :     0.003700
      dyz     :     0.001151
      dx2y2   :     0.004732
      dxy     :     0.005408
      f0      :     0.000326  f :     0.001876
      f+1     :     0.000688
      f-1     :     0.000191
      f+2     :     0.000035
      f-2     :     0.000044
      f+3     :     0.000065
      f-3     :     0.000526
 16 H s       :     0.670090  s :     0.670090
      pz      :     0.094189  p :     0.174501
      px      :     0.037621
      py      :     0.042691
 17 H s       :     0.662150  s :     0.662150
      pz      :     0.030470  p :     0.187482
      px      :     0.104396
      py      :     0.052616
 18 O s       :     3.446579  s :     3.446579
      pz      :     1.541522  p :     4.818293
      px      :     1.549064
      py      :     1.727707
      dz2     :     0.014924  d :     0.030145
      dxz     :     0.001781
      dyz     :     0.001716
      dx2y2   :     0.003452
      dxy     :     0.008272
      f0      :     0.000417  f :     0.002022
      f+1     :     0.000543
      f-1     :     0.000320
      f+2     :     0.000019
      f-2     :     0.000048
      f+3     :     0.000025
      f-3     :     0.000650
 19 H s       :     0.666091  s :     0.666091
      pz      :     0.093477  p :     0.172068
      px      :     0.036950
      py      :     0.041640
 20 H s       :     0.670443  s :     0.670443
      pz      :     0.031152  p :     0.174236
      px      :     0.085338
      py      :     0.057746
 21 O s       :     3.451605  s :     3.451605
      pz      :     1.548472  p :     4.801255
      px      :     1.723008
      py      :     1.529775
      dz2     :     0.015161  d :     0.031483
      dxz     :     0.001736
      dyz     :     0.001695
      dx2y2   :     0.003694
      dxy     :     0.009196
      f0      :     0.000398  f :     0.002089
      f+1     :     0.000328
      f-1     :     0.000555
      f+2     :     0.000020
      f-2     :     0.000046
      f+3     :     0.000716
      f-3     :     0.000026
 22 H s       :     0.661810  s :     0.661810
      pz      :     0.096148  p :     0.173147
      px      :     0.041117
      py      :     0.035882
 23 H s       :     0.671919  s :     0.671919
      pz      :     0.031361  p :     0.158365
      px      :     0.054716
      py      :     0.072288
 24 O s       :     3.460322  s :     3.460322
      pz      :     1.688315  p :     4.807180
      px      :     1.748176
      py      :     1.370690
      dz2     :     0.005296  d :     0.030616
      dxz     :     0.005152
      dyz     :     0.006657
      dx2y2   :     0.004102
      dxy     :     0.009407
      f0      :     0.000090  f :     0.002033
      f+1     :     0.000268
      f-1     :     0.000439
      f+2     :     0.000033
      f-2     :     0.000597
      f+3     :     0.000518
      f-3     :     0.000089
 25 H s       :     0.666203  s :     0.666203
      pz      :     0.066750  p :     0.164206
      px      :     0.052695
      py      :     0.044761
 26 H s       :     0.650491  s :     0.650491
      pz      :     0.033056  p :     0.149791
      px      :     0.043397
      py      :     0.073337
 27 O s       :     3.459892  s :     3.459892
      pz      :     1.533565  p :     4.871540
      px      :     1.791968
      py      :     1.546007
      dz2     :     0.014800  d :     0.029678
      dxz     :     0.002163
      dyz     :     0.001934
      dx2y2   :     0.002093
      dxy     :     0.008688
      f0      :     0.000447  f :     0.002011
      f+1     :     0.000300
      f-1     :     0.000542
      f+2     :     0.000022
      f-2     :     0.000047
      f+3     :     0.000650
      f-3     :     0.000002
 28 H s       :     0.676289  s :     0.676289
      pz      :     0.092161  p :     0.171414
      px      :     0.042299
      py      :     0.036955
 29 H s       :     0.677184  s :     0.677184
      pz      :     0.031186  p :     0.174360
      px      :     0.057903
      py      :     0.085271


                      *****************************
                      * MAYER POPULATION ANALYSIS *
                      *****************************

  NA   - Mulliken gross atomic population
  ZA   - Total nuclear charge
  QA   - Mulliken gross atomic charge
  VA   - Mayer's total valence
  BVA  - Mayer's bonded valence
  FA   - Mayer's free valence

  ATOM       NA         ZA         QA         VA         BVA        FA
  0 O      8.7903     8.0000    -0.7903     1.6791     1.6791    -0.0000
  1 H      0.6423     1.0000     0.3577     0.8896     0.8896     0.0000
  2 H      0.5851     1.0000     0.4149     0.8634     0.8634    -0.0000
  3 O      8.7780     8.0000    -0.7780     1.6828     1.6828     0.0000
  4 H      0.6526     1.0000     0.3474     0.8962     0.8962     0.0000
  5 H      0.5968     1.0000     0.4032     0.8765     0.8765    -0.0000
  6 O      8.8021     8.0000    -0.8021     1.6672     1.6672    -0.0000
  7 H      0.6053     1.0000     0.3947     0.8711     0.8711    -0.0000
  8 H      0.6020     1.0000     0.3980     0.8904     0.8904     0.0000
  9 O      8.8095     8.0000    -0.8095     1.6598     1.6598    -0.0000
 10 H      0.6174     1.0000     0.3826     0.8966     0.8966    -0.0000
 11 H      0.5881     1.0000     0.4119     0.8680     0.8680    -0.0000
 12 O      8.7867     8.0000    -0.7867     1.6845     1.6845    -0.0000
 13 H      0.6292     1.0000     0.3708     0.8816     0.8816    -0.0000
 14 H      0.5898     1.0000     0.4102     0.8767     0.8767    -0.0000
 15 O      8.7862     8.0000    -0.7862     1.7006     1.7006     0.0000
 16 H      0.6047     1.0000     0.3953     0.8748     0.8748     0.0000
 17 H      0.6036     1.0000     0.3964     0.8800     0.8800    -0.0000
 18 O      8.7564     8.0000    -0.7564     1.7351     1.7351    -0.0000
 19 H      0.5972     1.0000     0.4028     0.8615     0.8615    -0.0000
 20 H      0.6151     1.0000     0.3849     0.8808     0.8808    -0.0000
 21 O      8.7368     8.0000    -0.7368     1.7491     1.7491     0.0000
 22 H      0.5891     1.0000     0.4109     0.8583     0.8583     0.0000
 23 H      0.6416     1.0000     0.3584     0.8909     0.8909    -0.0000
 24 O      8.7590     8.0000    -0.7590     1.7433     1.7433    -0.0000
 25 H      0.6223     1.0000     0.3777     0.8735     0.8735    -0.0000
 26 H      0.6006     1.0000     0.3994     0.8557     0.8557    -0.0000
 27 O      8.7676     8.0000    -0.7676     1.7218     1.7218    -0.0000
 28 H      0.6166     1.0000     0.3834     0.8768     0.8768     0.0000
 29 H      0.6281     1.0000     0.3719     0.8955     0.8955    -0.0000

  Mayer bond orders larger than 0.100000
B(  0-O ,  1-H ) :   0.8790 B(  0-O ,  2-H ) :   0.7771 B(  3-O ,  4-H ) :   0.8876 
B(  3-O ,  5-H ) :   0.7859 B(  6-O ,  7-H ) :   0.8421 B(  6-O ,  8-H ) :   0.7828 
B(  9-O , 10-H ) :   0.8121 B(  9-O , 11-H ) :   0.8158 B( 12-O , 13-H ) :   0.8699 
B( 12-O , 14-H ) :   0.7794 B( 15-O , 16-H ) :   0.8363 B( 15-O , 17-H ) :   0.8142 
B( 18-O , 19-H ) :   0.8371 B( 18-O , 20-H ) :   0.8456 B( 21-O , 22-H ) :   0.8231 
B( 21-O , 23-H ) :   0.8766 B( 24-O , 25-H ) :   0.8647 B( 24-O , 26-H ) :   0.8421 
B( 27-O , 28-H ) :   0.8569 B( 27-O , 29-H ) :   0.8553 

-------
TIMINGS
-------

Total SCF time: 0 days 0 hours 0 min 57 sec 

Total time                  ....      57.326 sec
Sum of individual times     ....      56.955 sec  ( 99.4%)

Fock matrix formation       ....      56.025 sec  ( 97.7%)
Diagonalization             ....       0.259 sec  (  0.5%)
Density matrix formation    ....       0.023 sec  (  0.0%)
Population analysis         ....       0.025 sec  (  0.0%)
Initial guess               ....       0.275 sec  (  0.5%)
Orbital Transformation      ....       0.000 sec  (  0.0%)
Orbital Orthonormalization  ....       0.000 sec  (  0.0%)
DIIS solution               ....       0.099 sec  (  0.2%)
SOSCF solution              ....       0.117 sec  (  0.2%)


           ************************************************************
           *        Program running with 6 parallel MPI-processes     *
           *              working on a common directory               *
           ************************************************************

------------------------------------------------------------------------------
                                ORCA  MP2 
------------------------------------------------------------------------------

Freezing NCore=20 chemical core electrons
MP2 will be done in the AO integral direct mode
The Q1-step will be done using symmetric double matrices
Dimension of the basis                    ...  430
Memory devoted for MP2                    ... 8000 MB   
Memory needed for all in one shot         ... 2129 MB
Number of MOs that can be treated together...   25      
MP2 density construction                  ... relaxed
The MP2 gradient is requested => amplitudes will be stored on disk
Total number of MOs              ...   40
Number of MOs treated per batch  ...    7 
Number of batches necessary      ...    1 
OPERATORS   0/  0 PASS   0
-----------------------------------------------
 MP2 CORRELATION ENERGY   :     -2.601480007 Eh
-----------------------------------------------


---------------------
MP2 DENSITY FORMATION
---------------------

Completing the external part of the density      ... done
Storing the unrelaxed density                    ... done

Calculating G(D)                                 ... done
Completing the Lagrangian                        ... done
Solving the Z-vector equations                   ... 

------------------------------------------------------------------------------
                           ORCA CP-SCF CALCULATION
------------------------------------------------------------------------------

Input orbitals are from        ... 12h2o.su.etal.mol1,2,4,5,6,7,8,9,10,11-orca.engrad-mp2.def2tzvp.frozencore.gbw
Input Perturbation             ... 12h2o.su.etal.mol1,2,4,5,6,7,8,9,10,11-orca.engrad-mp2.def2tzvp.frozencore.pin.tmp
Wavefunction output            ... 12h2o.su.etal.mol1,2,4,5,6,7,8,9,10,11-orca.engrad-mp2.def2tzvp.frozencore.pout.tmp
Perturbation mode              ... Real perturbation (singlet)
Solver                         ... POPLE
Max. number of iterations      ... 128
Convergence tolerance          ... 1.000e-08
Integral handling              ... Direct
Number of perturbations        ... 1
Number of operators            ... 1
Orbital ranges used for CP-SCF:
 Operator 0:  Orbitals   0... 49  to  50...429
Variables per vector in CP-SCF ... 19000
Number of vectors sought       ... 1
     CP-SCF ITERATION   0: 
     CP-SCF ITERATION   1:      0.001321678754
     CP-SCF ITERATION   2:      0.000040287312
     CP-SCF ITERATION   3:      0.000001999849
     CP-SCF ITERATION   4:      0.000000206082
     CP-SCF ITERATION   5:      0.000000018156
     CP-SCF ITERATION   6:      0.000000001294
                                                 ... done
Finalizing the relaxed density                   ... done
Transforming P to the AO basis                   ... done
Storing the relaxed density                      ... done

------------------------------------
ENERGY WEIGHTED DENSITY FINALIZATION
------------------------------------

Gathering the parts of the W-matrix              ...                                                      done
Forming the Z-density                            ... done
Transforming Z to the AO basis                   ... done
Calculating G(Z)                                 ... done
Finalizing the W-matrix                          ...                                                      done
Transforming W to the AO basis and storing       ... done

                *********************************************
                * UNRELAXED MP2 DENSITY POPULATION ANALYSIS *
                *********************************************

------------------------------------------------------------------------------
                           ORCA POPULATION ANALYSIS
------------------------------------------------------------------------------
Input electron density              ... 12h2o.su.etal.mol1,2,4,5,6,7,8,9,10,11-orca.engrad-mp2.def2tzvp.frozencore.pmp2ur
BaseName (.gbw .S,...)              ... 12h2o.su.etal.mol1,2,4,5,6,7,8,9,10,11-orca.engrad-mp2.def2tzvp.frozencore

                    ********************************
                    * MULLIKEN POPULATION ANALYSIS *
                    ********************************

-----------------------
MULLIKEN ATOMIC CHARGES
-----------------------
   0 O :   -0.783669
   1 H :    0.355374
   2 H :    0.409992
   3 O :   -0.771744
   4 H :    0.345116
   5 H :    0.398291
   6 O :   -0.794291
   7 H :    0.391745
   8 H :    0.392842
   9 O :   -0.801755
  10 H :    0.377609
  11 H :    0.408672
  12 O :   -0.779344
  13 H :    0.368344
  14 H :    0.405186
  15 O :   -0.778340
  16 H :    0.392087
  17 H :    0.391790
  18 O :   -0.749140
  19 H :    0.399835
  20 H :    0.381632
  21 O :   -0.729903
  22 H :    0.407790
  23 H :    0.355730
  24 O :   -0.753038
  25 H :    0.375465
  26 H :    0.396455
  27 O :   -0.761520
  28 H :    0.380419
  29 H :    0.368371
Sum of atomic charges:   -0.0000000

--------------------------------
MULLIKEN REDUCED ORBITAL CHARGES
--------------------------------
  0 O s       :     3.801918  s :     3.801918
      pz      :     1.712051  p :     4.927736
      px      :     1.430815
      py      :     1.784870
      dz2     :     0.009304  d :     0.050027
      dxz     :     0.009903
      dyz     :     0.010613
      dx2y2   :     0.007904
      dxy     :     0.012303
      f0      :     0.000455  f :     0.003989
      f+1     :     0.000683
      f-1     :     0.000539
      f+2     :     0.000434
      f-2     :     0.000715
      f+3     :     0.000460
      f-3     :     0.000703
  1 H s       :     0.597585  s :     0.597585
      pz      :     0.017346  p :     0.047041
      px      :     0.014177
      py      :     0.015518
  2 H s       :     0.532853  s :     0.532853
      pz      :     0.010712  p :     0.057155
      px      :     0.032673
      py      :     0.013770
  3 O s       :     3.803567  s :     3.803567
      pz      :     1.698129  p :     4.914014
      px      :     1.799747
      py      :     1.416139
      dz2     :     0.009192  d :     0.050159
      dxz     :     0.010781
      dyz     :     0.009691
      dx2y2   :     0.007775
      dxy     :     0.012720
      f0      :     0.000451  f :     0.004004
      f+1     :     0.000542
      f-1     :     0.000675
      f+2     :     0.000439
      f-2     :     0.000715
      f+3     :     0.000719
      f-3     :     0.000463
  4 H s       :     0.607462  s :     0.607462
      pz      :     0.017369  p :     0.047422
      px      :     0.015702
      py      :     0.014351
  5 H s       :     0.543450  s :     0.543450
      pz      :     0.010845  p :     0.058259
      px      :     0.014699
      py      :     0.032714
  6 O s       :     3.794940  s :     3.794940
      pz      :     1.591030  p :     4.944837
      px      :     1.829828
      py      :     1.523979
      dz2     :     0.015876  d :     0.050601
      dxz     :     0.007717
      dyz     :     0.008161
      dx2y2   :     0.008834
      dxy     :     0.010013
      f0      :     0.000558  f :     0.003913
      f+1     :     0.000483
      f-1     :     0.000806
      f+2     :     0.000435
      f-2     :     0.000405
      f+3     :     0.000763
      f-3     :     0.000464
  7 H s       :     0.558331  s :     0.558331
      pz      :     0.024568  p :     0.049924
      px      :     0.013553
      py      :     0.011802
  8 H s       :     0.552729  s :     0.552729
      pz      :     0.009390  p :     0.054429
      px      :     0.014986
      py      :     0.030053
  9 O s       :     3.793125  s :     3.793125
      pz      :     1.608790  p :     4.954683
      px      :     1.837667
      py      :     1.508225
      dz2     :     0.015346  d :     0.050017
      dxz     :     0.007626
      dyz     :     0.007921
      dx2y2   :     0.008863
      dxy     :     0.010260
      f0      :     0.000559  f :     0.003930
      f+1     :     0.000485
      f-1     :     0.000802
      f+2     :     0.000437
      f-2     :     0.000406
      f+3     :     0.000773
      f-3     :     0.000470
 10 H s       :     0.568005  s :     0.568005
      pz      :     0.009749  p :     0.054386
      px      :     0.015467
      py      :     0.029170
 11 H s       :     0.541410  s :     0.541410
      pz      :     0.025535  p :     0.049918
      px      :     0.012887
      py      :     0.011496
 12 O s       :     3.796126  s :     3.796126
      pz      :     1.556308  p :     4.928551
      px      :     1.533233
      py      :     1.839010
      dz2     :     0.016001  d :     0.050706
      dxz     :     0.008125
      dyz     :     0.007663
      dx2y2   :     0.008830
      dxy     :     0.010087
      f0      :     0.000575  f :     0.003961
      f+1     :     0.000815
      f-1     :     0.000487
      f+2     :     0.000435
      f-2     :     0.000406
      f+3     :     0.000469
      f-3     :     0.000774
 13 H s       :     0.586160  s :     0.586160
      pz      :     0.019093  p :     0.045496
      px      :     0.012259
      py      :     0.014144
 14 H s       :     0.540948  s :     0.540948
      pz      :     0.009055  p :     0.053866
      px      :     0.030034
      py      :     0.014777
 15 O s       :     3.792849  s :     3.792849
[...]
      f+3     :     0.000479
      f-3     :     0.000898
  1 H s       :     0.673266  s :     0.673266
      pz      :     0.067260  p :     0.168652
      px      :     0.046677
      py      :     0.054715
  2 H s       :     0.652720  s :     0.652720
      pz      :     0.034607  p :     0.200122
      px      :     0.116712
      py      :     0.048803
  3 O s       :     3.458047  s :     3.458047
      pz      :     1.658926  p :     4.824264
      px      :     1.770047
      py      :     1.395291
      dz2     :     0.010267  d :     0.056883
      dxz     :     0.011267
      dyz     :     0.012091
      dx2y2   :     0.008873
      dxy     :     0.014385
      f0      :     0.000468  f :     0.004788
      f+1     :     0.000646
      f-1     :     0.000851
      f+2     :     0.000412
      f-2     :     0.001029
      f+3     :     0.000906
      f-3     :     0.000477
  4 H s       :     0.677260  s :     0.677260
      pz      :     0.066853  p :     0.168116
      px      :     0.054814
      py      :     0.046449
  5 H s       :     0.656220  s :     0.656220
      pz      :     0.034640  p :     0.200384
      px      :     0.049188
      py      :     0.116557
  6 O s       :     3.446683  s :     3.446683
      pz      :     1.544121  p :     4.791350
      px      :     1.758669
      py      :     1.488559
      dz2     :     0.019721  d :     0.057622
      dxz     :     0.006990
      dyz     :     0.009248
      dx2y2   :     0.010453
      dxy     :     0.011209
      f0      :     0.000775  f :     0.004733
      f+1     :     0.000583
      f-1     :     0.001147
      f+2     :     0.000413
      f-2     :     0.000421
      f+3     :     0.000943
      f-3     :     0.000451
  7 H s       :     0.674294  s :     0.674294
      pz      :     0.093404  p :     0.176500
      px      :     0.044246
      py      :     0.038850
  8 H s       :     0.663214  s :     0.663214
      pz      :     0.031330  p :     0.194244
      px      :     0.053762
      py      :     0.109152
  9 O s       :     3.444621  s :     3.444621
      pz      :     1.553497  p :     4.799249
      px      :     1.765027
      py      :     1.480724
      dz2     :     0.018729  d :     0.056645
      dxz     :     0.006902
      dyz     :     0.008805
      dx2y2   :     0.010599
      dxy     :     0.011610
      f0      :     0.000757  f :     0.004729
      f+1     :     0.000584
      f-1     :     0.001130
      f+2     :     0.000412
      f-2     :     0.000419
      f+3     :     0.000973
      f-3     :     0.000454
 10 H s       :     0.669721  s :     0.669721
      pz      :     0.032072  p :     0.191613
      px      :     0.054244
      py      :     0.105297
 11 H s       :     0.665712  s :     0.665712
      pz      :     0.096938  p :     0.178475
      px      :     0.043531
      py      :     0.038006
 12 O s       :     3.450840  s :     3.450840
      pz      :     1.523988  p :     4.783003
      px      :     1.491945
      py      :     1.767070
      dz2     :     0.020005  d :     0.057918
      dxz     :     0.009343
      dyz     :     0.006965
      dx2y2   :     0.010400
      dxy     :     0.011205
      f0      :     0.000800  f :     0.004797
      f+1     :     0.001178
      f-1     :     0.000585
      f+2     :     0.000415
      f-2     :     0.000421
      f+3     :     0.000451
      f-3     :     0.000946
 13 H s       :     0.666402  s :     0.666402
      pz      :     0.080551  p :     0.163216
      px      :     0.038120
      py      :     0.044546
 14 H s       :     0.659595  s :     0.659595
      pz      :     0.029879  p :     0.193091
      px      :     0.109305
      py      :     0.053907
 15 O s       :     3.451077  s :     3.451077
      pz      :     1.568485  p :     4.806913
      px      :     1.483455
      py      :     1.754973
      dz2     :     0.018919  d :     0.056831
      dxz     :     0.009072
      dyz     :     0.006866
      dx2y2   :     0.010646
      dxy     :     0.011328
      f0      :     0.000747  f :     0.004719
      f+1     :     0.001143
      f-1     :     0.000586
      f+2     :     0.000412
      f-2     :     0.000419
      f+3     :     0.000453
      f-3     :     0.000958
 16 H s       :     0.673426  s :     0.673426
      pz      :     0.095050  p :     0.177705
      px      :     0.038674
      py      :     0.043981
 17 H s       :     0.668374  s :     0.668374
      pz      :     0.031883  p :     0.190960
      px      :     0.105225
      py      :     0.053852
 18 O s       :     3.443165  s :     3.443165
      pz      :     1.533288  p :     4.777925
      px      :     1.540374
      py      :     1.704263
      dz2     :     0.020415  d :     0.058294
      dxz     :     0.007167
      dyz     :     0.007361
      dx2y2   :     0.009239
      dxy     :     0.014113
      f0      :     0.000847  f :     0.004858
      f+1     :     0.000977
      f-1     :     0.000724
      f+2     :     0.000391
      f-2     :     0.000425
      f+3     :     0.000409
      f-3     :     0.001086
 19 H s       :     0.668173  s :     0.668173
      pz      :     0.093910  p :     0.175024
      px      :     0.038141
      py      :     0.042972
 20 H s       :     0.673268  s :     0.673268
      pz      :     0.032466  p :     0.177714
      px      :     0.086213
      py      :     0.059034
 21 O s       :     3.448498  s :     3.448498
      pz      :     1.540603  p :     4.762453
      px      :     1.700149
      py      :     1.521701
      dz2     :     0.020560  d :     0.059081
      dxz     :     0.007350
      dyz     :     0.007014
      dx2y2   :     0.009362
      dxy     :     0.014795
      f0      :     0.000828  f :     0.004904
      f+1     :     0.000732
      f-1     :     0.000985
      f+2     :     0.000390
      f-2     :     0.000421
      f+3     :     0.001142
      f-3     :     0.000407
 22 H s       :     0.665175  s :     0.665175
      pz      :     0.096622  p :     0.175960
      px      :     0.042444
      py      :     0.036894
 23 H s       :     0.669350  s :     0.669350
      pz      :     0.032611  p :     0.161582
      px      :     0.056063
      py      :     0.072908
 24 O s       :     3.458075  s :     3.458075
      pz      :     1.671892  p :     4.768492
      px      :     1.729229
      py      :     1.367371
      dz2     :     0.010968  d :     0.058071
      dxz     :     0.010956
      dyz     :     0.011933
      dx2y2   :     0.009504
      dxy     :     0.014710
      f0      :     0.000477  f :     0.004816
      f+1     :     0.000655
      f-1     :     0.000855
      f+2     :     0.000409
      f-2     :     0.001006
      f+3     :     0.000937
      f-3     :     0.000477
 25 H s       :     0.662971  s :     0.662971
      pz      :     0.067880  p :     0.166751
      px      :     0.054075
      py      :     0.044796
 26 H s       :     0.649096  s :     0.649096
      pz      :     0.034524  p :     0.152326
      px      :     0.044898
      py      :     0.072904
 27 O s       :     3.457013  s :     3.457013
      pz      :     1.525067  p :     4.840180
      px      :     1.777595
      py      :     1.537518
      dz2     :     0.020141  d :     0.057001
      dxz     :     0.007666
      dyz     :     0.007256
      dx2y2   :     0.007621
      dxy     :     0.014318
      f0      :     0.000874  f :     0.004808
      f+1     :     0.000696
      f-1     :     0.000975
      f+2     :     0.000390
      f-2     :     0.000421
      f+3     :     0.001075
      f-3     :     0.000376
 28 H s       :     0.678263  s :     0.678263
      pz      :     0.092723  p :     0.174770
      px      :     0.043871
      py      :     0.038176
 29 H s       :     0.680378  s :     0.680378
      pz      :     0.032494  p :     0.178029
      px      :     0.059390
      py      :     0.086145


                      *****************************
                      * MAYER POPULATION ANALYSIS *
                      *****************************

  NA   - Mulliken gross atomic population
  ZA   - Total nuclear charge
  QA   - Mulliken gross atomic charge
  VA   - Mayer's total valence
  BVA  - Mayer's bonded valence
  FA   - Mayer's free valence

  ATOM       NA         ZA         QA         VA         BVA        FA
  0 O      8.7534     8.0000    -0.7534     2.0402     1.6499     0.3904
  1 H      0.6518     1.0000     0.3482     0.9006     0.8541     0.0465
  2 H      0.6140     1.0000     0.3860     0.8999     0.8554     0.0444
  3 O      8.7452     8.0000    -0.7452     2.0243     1.6348     0.3895
  4 H      0.6615     1.0000     0.3385     0.9065     0.8593     0.0471
  5 H      0.6271     1.0000     0.3729     0.9148     0.8698     0.0450
  6 O      8.7538     8.0000    -0.7538     2.0423     1.6509     0.3914
  7 H      0.6235     1.0000     0.3765     0.8960     0.8521     0.0439
  8 H      0.6349     1.0000     0.3651     0.9356     0.8900     0.0456
  9 O      8.7625     8.0000    -0.7625     2.0345     1.6432     0.3913
 10 H      0.6467     1.0000     0.3533     0.9380     0.8911     0.0470
 11 H      0.6101     1.0000     0.3899     0.8994     0.8572     0.0422
 12 O      8.7455     8.0000    -0.7455     2.0474     1.6579     0.3896
 13 H      0.6395     1.0000     0.3605     0.8941     0.8480     0.0461
 14 H      0.6220     1.0000     0.3780     0.9218     0.8775     0.0443
 15 O      8.7404     8.0000    -0.7404     2.0640     1.6743     0.3897
 16 H      0.6240     1.0000     0.3760     0.9032     0.8593     0.0439
 17 H      0.6309     1.0000     0.3691     0.9192     0.8738     0.0455
 18 O      8.7156     8.0000    -0.7156     2.0930     1.7085     0.3845
 19 H      0.6128     1.0000     0.3872     0.8843     0.8412     0.0432
 20 H      0.6340     1.0000     0.3660     0.9089     0.8643     0.0446
 21 O      8.7006     8.0000    -0.7006     2.0972     1.7142     0.3830
 22 H      0.6069     1.0000     0.3931     0.8847     0.8424     0.0423
 23 H      0.6518     1.0000     0.3482     0.9053     0.8583     0.0470
 24 O      8.7296     8.0000    -0.7296     2.0975     1.7108     0.3868
 25 H      0.6314     1.0000     0.3686     0.8842     0.8400     0.0442
 26 H      0.6115     1.0000     0.3885     0.8702     0.8247     0.0455
 27 O      8.7371     8.0000    -0.7371     2.0577     1.6709     0.3869
 28 H      0.6326     1.0000     0.3674     0.9003     0.8556     0.0447
 29 H      0.6492     1.0000     0.3508     0.9273     0.8814     0.0458

  Mayer bond orders larger than 0.100000
B(  0-O ,  1-H ) :   0.8416 B(  0-O ,  2-H ) :   0.7398 B(  2-H , 21-O ) :   0.1003 
B(  3-O ,  4-H ) :   0.8498 B(  3-O ,  5-H ) :   0.7488 B(  5-H , 18-O ) :   0.1125 
B(  6-O ,  7-H ) :   0.8089 B(  6-O ,  8-H ) :   0.7427 B(  6-O , 14-H ) :   0.1168 
B(  8-H , 15-O ) :   0.1291 B(  9-O , 10-H ) :   0.7707 B(  9-O , 11-H ) :   0.7844 
B( 12-O , 13-H ) :   0.8329 B( 12-O , 14-H ) :   0.7408 B( 15-O , 16-H ) :   0.8030 
B( 15-O , 17-H ) :   0.7762 B( 18-O , 19-H ) :   0.8045 B( 18-O , 20-H ) :   0.8104 
B( 21-O , 22-H ) :   0.7912 B( 21-O , 23-H ) :   0.8389 B( 24-O , 25-H ) :   0.8297 
B( 24-O , 26-H ) :   0.8064 B( 27-O , 28-H ) :   0.8237 B( 27-O , 29-H ) :   0.8203 



----------------------------------
MP2 DERIVATIVE INTEGRAL GENERATION
----------------------------------


Input Wavefunction Amplitudes       ... 12h2o.su.etal.mol1,2,4,5,6,7,8,9,10,11-orca.engrad-mp2.def2tzvp.frozencore.mp2tsaa.tmp
Input Correlated Electron Density   ... 12h2o.su.etal.mol1,2,4,5,6,7,8,9,10,11-orca.engrad-mp2.def2tzvp.frozencore.pmp2re
Input Energy Weighted Density       ... 12h2o.su.etal.mol1,2,4,5,6,7,8,9,10,11-orca.engrad-mp2.def2tzvp.frozencore.wmp2.tmp
Input SCF Electron Density          ... 12h2o.su.etal.mol1,2,4,5,6,7,8,9,10,11-orca.engrad-mp2.def2tzvp.frozencore.scfp

One-Electron Terms    ...
                        ... One-Electron Terms done
Prescreening matrices              ... done

Batch handling in the gradient evaluation:
Memory available                      ... 8000.0 MB
Memory per occupied orbital in Q2     ...   56.4 MB
Memory per occupied orbital in Q3     ...    0.2 MB
Total memory requirement per |i>      ...   56.6 MB
Max. Number of orbitals possible      ...    141
Number of orbitals treated per batch  ...     40
Number of batches to be done          ...      1
Batch   0: i=   10 ...    49

---------------------------------------
MP2 TOTAL ENERGY:     -763.265948031 Eh
---------------------------------------

The final MP2 gradient
  0:  -0.00301848   0.00257149   0.00024527
  1:   0.00004859   0.00069368  -0.00118458
  2:   0.00720164  -0.00180742  -0.00153694
  3:  -0.00267040  -0.00387820  -0.00310920
  4:  -0.00030580  -0.00080082   0.00052982
  5:   0.00255280   0.00860115   0.00224330
  6:  -0.00551596  -0.00238996   0.00606898
  7:   0.00084822   0.00033559  -0.00350973
  8:   0.00346753   0.00524507  -0.00052188
  9:  -0.00316314  -0.00285489  -0.00528827
 10:   0.00097244   0.00370869   0.00256156
 11:   0.00119345   0.00034377   0.00471516
 12:  -0.00404988   0.00150653  -0.01046451
 13:   0.00008717  -0.00302864   0.00847280
 14:   0.00635074  -0.00285234  -0.00246421
 15:  -0.00241960  -0.00409282   0.00024752
 16:  -0.00144226  -0.00057209  -0.00037052
 17:   0.00472165   0.00124572   0.00126761
 18:   0.00210251  -0.00290608  -0.00163668
 19:  -0.00118753  -0.00084261   0.00080579
 20:  -0.00381071  -0.00037484  -0.00023699
 21:  -0.00629948  -0.00865066  -0.00049245
 22:  -0.00054628   0.00149459   0.00403720
 23:   0.00507110   0.00782992  -0.00174232
 24:   0.00655822   0.02519000   0.00148214
 25:   0.00247643  -0.00014760   0.00279322
 26:  -0.00705581  -0.02334481  -0.00189422
 27:  -0.00055361   0.00268498   0.00242189
 28:  -0.00051844   0.00142633  -0.00468165
 29:  -0.00109509  -0.00433374   0.00124190

-----------------------------------
NORM OF THE MP2 GRADIENT:  0.048300
-----------------------------------

-------------------------   --------------------
FINAL SINGLE POINT ENERGY      -763.265948030859
-------------------------   --------------------


                            ***************************************
                            *     ORCA property calculations      *
                            ***************************************

                                    ---------------------
                                    Active property flags
                                    ---------------------
   (+) Dipole Moment


------------------------------------------------------------------------------
                       ORCA ELECTRIC PROPERTIES CALCULATION
------------------------------------------------------------------------------

Dipole Moment Calculation                       ... on
Quadrupole Moment Calculation                   ... off
Polarizability Calculation                      ... off
GBWName                                         ... 12h2o.su.etal.mol1,2,4,5,6,7,8,9,10,11-orca.engrad-mp2.def2tzvp.frozencore.gbw
Electron density file                           ... 12h2o.su.etal.mol1,2,4,5,6,7,8,9,10,11-orca.engrad-mp2.def2tzvp.frozencore.scfp
The origin for moment calculation is the CENTER OF MASS  = (-0.009856, -0.035812  0.007424)

-------------
DIPOLE MOMENT
-------------
                                X             Y             Z
Electronic contribution:      0.10119       0.09315      -0.20831
Nuclear contribution   :     -0.14599      -0.11349      -1.31870
                        -----------------------------------------
Total Dipole Moment    :     -0.04479      -0.02034      -1.52701
                        -----------------------------------------
Magnitude (a.u.)       :      1.52780
Magnitude (Debye)      :      3.88337



--------------------
Rotational spectrum 
--------------------
 
Rotational constants in cm-1:     0.026537     0.014635     0.012485 
Rotational constants in MHz :   795.546484   438.731424   374.290512 

 Dipole components along the rotational axes: 
x,y,z [a.u.] :    -1.446449    -0.000339     0.491904 
x,y,z [Debye]:    -3.676582    -0.000861     1.250322 

 

                         *** MP2 UNRELAXED DENSITY ***

------------------------------------------------------------------------------
                       ORCA ELECTRIC PROPERTIES CALCULATION
------------------------------------------------------------------------------

Dipole Moment Calculation                       ... on
Quadrupole Moment Calculation                   ... off
Polarizability Calculation                      ... off
GBWName                                         ... 12h2o.su.etal.mol1,2,4,5,6,7,8,9,10,11-orca.engrad-mp2.def2tzvp.frozencore.gbw
Electron density file                           ... 12h2o.su.etal.mol1,2,4,5,6,7,8,9,10,11-orca.engrad-mp2.def2tzvp.frozencore.pmp2ur
The origin for moment calculation is the CENTER OF MASS  = (-0.009856, -0.035812  0.007424)

-------------
DIPOLE MOMENT
-------------
                                X             Y             Z
Electronic contribution:      0.10266       0.09584      -0.19972
Nuclear contribution   :     -0.14599      -0.11349      -1.31870
                        -----------------------------------------
Total Dipole Moment    :     -0.04333      -0.01765      -1.51842
                        -----------------------------------------
Magnitude (a.u.)       :      1.51914
Magnitude (Debye)      :      3.86135



--------------------
Rotational spectrum 
--------------------
 
Rotational constants in cm-1:     0.026537     0.014635     0.012485 
Rotational constants in MHz :   795.546484   438.731424   374.290512 

 Dipole components along the rotational axes: 
x,y,z [a.u.] :    -1.438964     0.001434     0.486996 
x,y,z [Debye]:    -3.657556     0.003644     1.237846 

 

                           *** MP2 RELAXED DENSITY ***

------------------------------------------------------------------------------
                       ORCA ELECTRIC PROPERTIES CALCULATION
------------------------------------------------------------------------------

Dipole Moment Calculation                       ... on
Quadrupole Moment Calculation                   ... off
Polarizability Calculation                      ... off
GBWName                                         ... 12h2o.su.etal.mol1,2,4,5,6,7,8,9,10,11-orca.engrad-mp2.def2tzvp.frozencore.gbw
Electron density file                           ... 12h2o.su.etal.mol1,2,4,5,6,7,8,9,10,11-orca.engrad-mp2.def2tzvp.frozencore.pmp2re
The origin for moment calculation is the CENTER OF MASS  = (-0.009856, -0.035812  0.007424)

-------------
DIPOLE MOMENT
-------------
                                X             Y             Z
Electronic contribution:      0.10202       0.10285      -0.20105
Nuclear contribution   :     -0.14599      -0.11349      -1.31870
                        -----------------------------------------
Total Dipole Moment    :     -0.04397      -0.01064      -1.51975
                        -----------------------------------------
Magnitude (a.u.)       :      1.52043
Magnitude (Debye)      :      3.86462



--------------------
Rotational spectrum 
--------------------
 
Rotational constants in cm-1:     0.026537     0.014635     0.012485 
Rotational constants in MHz :   795.546484   438.731424   374.290512 

 Dipole components along the rotational axes: 
x,y,z [a.u.] :    -1.440991     0.007992     0.484953 
x,y,z [Debye]:    -3.662707     0.020313     1.232652 

 

Timings for individual modules:

Sum of individual times         ...      475.429 sec (=   7.924 min)
GTO integral calculation        ...        2.080 sec (=   0.035 min)   0.4 %
SCF iterations                  ...       58.099 sec (=   0.968 min)  12.2 %
MP2 module                      ...      415.250 sec (=   6.921 min)  87.3 %
                             ****ORCA TERMINATED NORMALLY****
TOTAL RUN TIME: 0 days 0 hours 7 minutes 56 seconds 552 msec
