
                                 *****************
                                 * O   R   C   A *
                                 *****************

           --- An Ab Initio, DFT and Semiempirical electronic structure package ---

                  #######################################################
                  #                        -***-                        #
                  #          Department of theory and spectroscopy      #
                  #               Directorship: Frank Neese             #
                  #        Max Planck Institute fuer Kohlenforschung    #
                  #                Kaiser Wilhelm Platz 1               #
                  #                 D-45470 Muelheim/Ruhr               #
                  #                      Germany                        #
                  #                                                     #
                  #                  All rights reserved                #
                  #                        -***-                        #
                  #######################################################


                         Program Version 4.2.0 -  RELEASE  -


 With contributions from (in alphabetic order):
   Daniel Aravena         : Magnetic Suceptibility
   Michael Atanasov       : Ab Initio Ligand Field Theory (pilot matlab implementation)
   Alexander A. Auer      : GIAO ZORA, VPT2
   Ute Becker             : Parallelization
   Giovanni Bistoni       : ED, misc. LED, open-shell LED, HFLED
   Martin Brehm           : Molecular dynamics
   Dmytro Bykov           : SCF Hessian
   Vijay G. Chilkuri      : MRCI spin determinant printing, contributions to CSF-ICE
   Dipayan Datta          : RHF DLPNO-CCSD density
   Achintya Kumar Dutta   : EOM-CC, STEOM-CC
   Dmitry Ganyushin       : Spin-Orbit,Spin-Spin,Magnetic field MRCI
   Miquel Garcia          : C-PCM Hessian, Gaussian charge scheme
   Yang Guo               : DLPNO-NEVPT2, CIM, IAO-localization
   Andreas Hansen         : Spin unrestricted coupled pair/coupled cluster methods
   Benjamin Helmich-Paris : CASSCF linear response (MC-RPA)
   Lee Huntington         : MR-EOM, pCC
   Robert Izsak           : Overlap fitted RIJCOSX, COSX-SCS-MP3, EOM
   Christian Kollmar      : KDIIS, OOCD, Brueckner-CCSD(T), CCSD density
   Simone Kossmann        : Meta GGA functionals, TD-DFT gradient, OOMP2, MP2 Hessian
   Martin Krupicka        : AUTO-CI
   Lucas Lang             : DCDCAS
   Dagmar Lenk            : GEPOL surface, SMD
   Dimitrios Liakos       : Extrapolation schemes; Compound Job, initial MDCI parallelization
   Dimitrios Manganas     : Further ROCIS development; embedding schemes
   Dimitrios Pantazis     : SARC Basis sets
   Taras Petrenko         : DFT Hessian,TD-DFT gradient, ASA, ECA, R-Raman, ABS, FL, XAS/XES, NRVS
   Peter Pinski           : DLPNO-MP2, DLPNO-MP2 Gradient
   Christoph Reimann      : Effective Core Potentials
   Marius Retegan         : Local ZFS, SOC
   Christoph Riplinger    : Optimizer, TS searches, QM/MM, DLPNO-CCSD(T), (RO)-DLPNO pert. Triples
   Tobias Risthaus        : Range-separated hybrids, TD-DFT gradient, RPA, STAB
   Michael Roemelt        : Original ROCIS implementation
   Masaaki Saitow         : Open-shell DLPNO-CCSD energy and density
   Barbara Sandhoefer     : DKH picture change effects
   Avijit Sen             : IP-ROCIS
   Kantharuban Sivalingam : CASSCF convergence, NEVPT2, FIC-MRCI
   Bernardo de Souza      : ESD, SOC TD-DFT
   Georgi Stoychev        : AutoAux, RI-MP2 NMR
   Willem Van den Heuvel  : Paramagnetic NMR
   Boris Wezisla          : Elementary symmetry handling
   Frank Wennmohs         : Technical directorship


 We gratefully acknowledge several colleagues who have allowed us to
 interface, adapt or use parts of their codes:
   Stefan Grimme, W. Hujo, H. Kruse,             : VdW corrections, initial TS optimization,
                  C. Bannwarth                     DFT functionals, gCP, sTDA/sTD-DF
   Ed Valeev, F. Pavosevic, A. Kumar             : LibInt (2-el integral package), F12 methods
   Garnet Chan, S. Sharma, J. Yang, R. Olivares  : DMRG
   Ulf Ekstrom                                   : XCFun DFT Library
   Mihaly Kallay                                 : mrcc  (arbitrary order and MRCC methods)
   Andreas Klamt, Michael Diedenhofen            : otool_cosmo (COSMO solvation model)
   Jiri Pittner, Ondrej Demel                    : Mk-CCSD
   Frank Weinhold                                : gennbo (NPA and NBO analysis)
   Christopher J. Cramer and Donald G. Truhlar   : smd solvation model
   Lars Goerigk                                  : TD-DFT with DH, B97 family of functionals
   V. Asgeirsson, H. Jonsson                     : NEB implementation
   FAccTs GmbH                                   : IRC, NEB, NEB-TS, Multilevel, MM, QM/MM, CI optimization
   S Lehtola, MJT Oliveira, MAL Marques          : LibXC Library


 Your calculation uses the libint2 library for the computation of 2-el integrals
 For citations please refer to: http://libint.valeyev.net

 Your ORCA version has been built with support for libXC version: 4.2.3
 For citations please refer to: https://tddft.org/programs/libxc/

 This ORCA versions uses:
   CBLAS   interface :  Fast vector & matrix operations
   LAPACKE interface :  Fast linear algebra routines
   SCALAPACK package :  Parallel linear algebra routines


----- Orbital basis set information -----
Your calculation utilizes the basis: def2-TZVP
   F. Weigend and R. Ahlrichs, Phys. Chem. Chem. Phys. 7, 3297 (2005).

================================================================================
                                        WARNINGS
                       Please study these warnings very carefully!
================================================================================


WARNING: The frozen-core approximation for MP2-gradient calculations is turned on by default.

INFO   : the flag for use of LIBINT has been found!

================================================================================
                                       INPUT FILE
================================================================================
NAME = 12mecn.remya.etal.2.mol2,3,11-orca.engrad-mp2.def2tzvp.frozencore.inp
|  1> # 12mecn.remya.etal.2.mol2,3,11
|  2> ! MP2 def2-TZVP EnGrad TightSCF
|  3> 
|  4> %pal
|  5>     nprocs 6
|  6> end
|  7> 
|  8> %maxcore 8000
|  9> 
| 10> %scf
| 11>     ConvForced true
| 12> end
| 13> 
| 14> *xyz 0 1
| 15> C  -4.219070000  -3.477410000  -1.501740000
| 16> H  -3.251530000  -3.803540000  -1.893830000
| 17> H  -4.452920000  -2.481700000  -1.890840000
| 18> H  -4.992170000  -4.178130000  -1.824640000
| 19> C  -4.154550000  -3.418790000  -0.058340000
| 20> N  -4.091140000  -3.354840000   1.104432000
| 21> C  -5.181310000   2.853865000  -1.626100000
| 22> H  -5.488260000   3.811434000  -2.053310000
| 23> H  -5.857590000   2.068112000  -1.968630000
| 24> H  -4.170750000   2.611402000  -1.966640000
| 25> C  -5.187260000   2.919160000  -0.181450000
| 26> N  -5.181700000   2.970641000   0.983640000
| 27> C   4.214163000   3.378139000   1.593627000
| 28> H   3.242643000   3.657109000   2.012358000
| 29> H   4.969258000   4.086643000   1.941290000
| 30> H   4.482966000   2.372549000   1.931698000
| 31> C   4.130759000   3.388436000   0.150192000
| 32> N   4.050180000   3.381449000  -1.013420000
| 33> *
| 34> 
| 35>                          ****END OF INPUT****
================================================================================

                     *******************************
                     * Energy+Gradient Calculation *
                     *******************************

---------------------------------
CARTESIAN COORDINATES (ANGSTROEM)
---------------------------------
  C     -4.219070   -3.477410   -1.501740
  H     -3.251530   -3.803540   -1.893830
  H     -4.452920   -2.481700   -1.890840
  H     -4.992170   -4.178130   -1.824640
  C     -4.154550   -3.418790   -0.058340
  N     -4.091140   -3.354840    1.104432
  C     -5.181310    2.853865   -1.626100
  H     -5.488260    3.811434   -2.053310
  H     -5.857590    2.068112   -1.968630
  H     -4.170750    2.611402   -1.966640
  C     -5.187260    2.919160   -0.181450
  N     -5.181700    2.970641    0.983640
  C      4.214163    3.378139    1.593627
  H      3.242643    3.657109    2.012358
  H      4.969258    4.086643    1.941290
  H      4.482966    2.372549    1.931698
  C      4.130759    3.388436    0.150192
  N      4.050180    3.381449   -1.013420

----------------------------
CARTESIAN COORDINATES (A.U.)
----------------------------
  NO LB      ZA    FRAG     MASS         X           Y           Z
   0 C     6.0000    0    12.011   -7.972887   -6.571353   -2.837877
   1 H     1.0000    0     1.008   -6.144501   -7.187649   -3.578820
   2 H     1.0000    0     1.008   -8.414799   -4.689733   -3.573170
   3 H     1.0000    0     1.008   -9.433834   -7.895521   -3.448070
   4 C     6.0000    0    12.011   -7.850962   -6.460577   -0.110247
   5 N     7.0000    0    14.007   -7.731134   -6.339729    2.087074
   6 C     6.0000    0    12.011   -9.791257    5.393023   -3.072884
   7 H     1.0000    0     1.008  -10.371308    7.202566   -3.880194
   8 H     1.0000    0     1.008  -11.069241    3.908165   -3.720172
   9 H     1.0000    0     1.008   -7.881575    4.934835   -3.716411
  10 C     6.0000    0    12.011   -9.802501    5.516413   -0.342891
  11 N     7.0000    0    14.007   -9.791994    5.613698    1.858810
  12 C     6.0000    0    12.011    7.963614    6.383758    3.011519
  13 H     1.0000    0     1.008    6.127707    6.910934    3.802806
  14 H     1.0000    0     1.008    9.390537    7.722636    3.668506
  15 H     1.0000    0     1.008    8.471578    4.483468    3.650380
  16 C     6.0000    0    12.011    7.806003    6.403216    0.283822
  17 N     7.0000    0    14.007    7.653731    6.390013   -1.915086

--------------------------------
INTERNAL COORDINATES (ANGSTROEM)
--------------------------------
 C      0   0   0     0.000000000000     0.00000000     0.00000000
 H      1   0   0     1.093722540958     0.00000000     0.00000000
 H      1   2   0     1.094313957053   109.44427651     0.00000000
 H      1   2   3     1.092225497963   109.20061708   119.37738849
 C      1   2   3     1.446029977144   109.29646417   240.55025120
 N      5   1   2     1.166254326716   179.00625359    73.19321907
 C      3   1   2     5.391557579116   155.76303900   250.58819794
 H      7   3   1     1.092549804980   152.38801767   187.69816460
 H      7   3   1     1.091828382260    49.91541967   235.86360897
 H      7   3   1     1.093612048017    68.92838779    95.89836173
 C      7   3   1     1.446137082722    95.41048311   347.64443542
 N     11   7   3     1.166240076083   179.48782841    75.73891023
 C     10   7   3     9.141671223361   135.04767775   249.33584581
 H     13  10   7     1.094079988694    49.90691963   359.61672344
 H     13  10   7     1.092252689907   144.33688217   295.77015523
 H     13  10   7     1.094421446222   105.57615666   102.25442099
 C     13  10   7     1.445879266969    63.82541407   206.35738730
 N     17  13  10     1.166419598581   179.00370785   316.62264784

---------------------------
INTERNAL COORDINATES (A.U.)
---------------------------
 C      0   0   0     0.000000000000     0.00000000     0.00000000
 H      1   0   0     2.066836068907     0.00000000     0.00000000
 H      1   2   0     2.067953683357   109.44427651     0.00000000
 H      1   2   3     2.064007067635   109.20061708   119.37738849
 C      1   2   3     2.732600638243   109.29646417   240.55025120
 N      5   1   2     2.203901279994   179.00625359    73.19321907
 C      3   1   2    10.188567259797   155.76303900   250.58819794
 H      7   3   1     2.064619919081   152.38801767   187.69816460
 H      7   3   1     2.063256627714    49.91541967   235.86360897
 H      7   3   1     2.066627267510    68.92838779    95.89836173
 C      7   3   1     2.732803038453    95.41048311   347.64443542
 N     11   7   3     2.203874350199   179.48782841    75.73891023
 C     10   7   3    17.275255018501   135.04767775   249.33584581
 H     13  10   7     2.067511547236    49.90691963   359.61672344
 H     13  10   7     2.064058452964   144.33688217   295.77015523
 H     13  10   7     2.068156808449   105.57615666   102.25442099
 C     13  10   7     2.732315837286    63.82541407   206.35738730
 N     17  13  10     2.204213598557   179.00370785   316.62264784

---------------------
BASIS SET INFORMATION
---------------------
There are 3 groups of distinct atoms

 Group   1 Type C   : 11s6p2d1f contracted to 5s3p2d1f pattern {62111/411/11/1}
 Group   2 Type H   : 5s1p contracted to 3s1p pattern {311/1}
 Group   3 Type N   : 11s6p2d1f contracted to 5s3p2d1f pattern {62111/411/11/1}

Atom   0C    basis set group =>   1
Atom   1H    basis set group =>   2
Atom   2H    basis set group =>   2
Atom   3H    basis set group =>   2
Atom   4C    basis set group =>   1
Atom   5N    basis set group =>   3
Atom   6C    basis set group =>   1
Atom   7H    basis set group =>   2
Atom   8H    basis set group =>   2
Atom   9H    basis set group =>   2
Atom  10C    basis set group =>   1
Atom  11N    basis set group =>   3
Atom  12C    basis set group =>   1
Atom  13H    basis set group =>   2
Atom  14H    basis set group =>   2
Atom  15H    basis set group =>   2
Atom  16C    basis set group =>   1
Atom  17N    basis set group =>   3


           ************************************************************
           *        Program running with 6 parallel MPI-processes     *
           *              working on a common directory               *
           ************************************************************
------------------------------------------------------------------------------
                           ORCA GTO INTEGRAL CALCULATION
------------------------------------------------------------------------------

                         BASIS SET STATISTICS AND STARTUP INFO

 # of primitive gaussian shells          ...  234
 # of primitive gaussian functions       ...  486
 # of contracted shells                  ...  135
 # of contracted basis functions         ...  333
 Highest angular momentum                ...    3
 Maximum contraction depth               ...    6
 Integral package used                   ... LIBINT
 Integral threshhold            Thresh   ...  2.500e-11
 Primitive cut-off              TCut     ...  2.500e-12


------------------------------ INTEGRAL EVALUATION ----------------------------


 * One electron integrals 
 Pre-screening matrix                    ... done
 Shell pair data                         ... done (   0.001 sec)



           ************************************************************
           *        Program running with 6 parallel MPI-processes     *
           *              working on a common directory               *
           ************************************************************
-------------------------------------------------------------------------------
                                 ORCA SCF
-------------------------------------------------------------------------------

------------
SCF SETTINGS
------------
Hamiltonian:
 Ab initio Hamiltonian  Method          .... Hartree-Fock(GTOs)


General Settings:
 Integral files         IntName         .... 12mecn.remya.etal.2.mol2,3,11-orca.engrad-mp2.def2tzvp.frozencore
 Hartree-Fock type      HFTyp           .... RHF
 Total Charge           Charge          ....    0
 Multiplicity           Mult            ....    1
 Number of Electrons    NEL             ....   66
 Basis Dimension        Dim             ....  333
 Nuclear Repulsion      ENuc            ....    264.5679743293 Eh

Convergence Acceleration:
 DIIS                   CNVDIIS         .... on
   Start iteration      DIISMaxIt       ....    12
   Startup error        DIISStart       ....  0.200000
   # of expansion vecs  DIISMaxEq       ....     5
   Bias factor          DIISBfac        ....   1.050
   Max. coefficient     DIISMaxC        ....  10.000
 Newton-Raphson         CNVNR           .... off
 SOSCF                  CNVSOSCF        .... on
   Start iteration      SOSCFMaxIt      ....   150
   Startup grad/error   SOSCFStart      ....  0.003300
 Level Shifting         CNVShift        .... on
   Level shift para.    LevelShift      ....    0.2500
   Turn off err/grad.   ShiftErr        ....    0.0010
 Zerner damping         CNVZerner       .... off
 Static damping         CNVDamp         .... on
   Fraction old density DampFac         ....    0.7000
   Max. Damping (<1)    DampMax         ....    0.9800
   Min. Damping (>=0)   DampMin         ....    0.0000
   Turn off err/grad.   DampErr         ....    0.1000
 Fernandez-Rico         CNVRico         .... off

SCF Procedure:
 Maximum # iterations   MaxIter         ....   125
 SCF integral mode      SCFMode         .... Direct
   Integral package                     .... LIBINT
 Reset frequency        DirectResetFreq ....    20
 Integral Threshold     Thresh          ....  2.500e-11 Eh
 Primitive CutOff       TCut            ....  2.500e-12 Eh

Convergence Tolerance:
 Convergence Check Mode ConvCheckMode   .... Total+1el-Energy
 Convergence forced     ConvForced      .... 1
 Energy Change          TolE            ....  1.000e-08 Eh
 1-El. energy change                    ....  1.000e-05 Eh
 Orbital Gradient       TolG            ....  1.000e-05
 Orbital Rotation angle TolX            ....  1.000e-05
 DIIS Error             TolErr          ....  5.000e-07


Diagonalization of the overlap matrix:
Smallest eigenvalue                        ... 1.586e-04
Time for diagonalization                   ...    0.016 sec
Threshold for overlap eigenvalues          ... 1.000e-08
Number of eigenvalues below threshold      ... 0
Time for construction of square roots      ...    0.008 sec
Total time needed                          ...    0.025 sec

-------------------
DFT GRID GENERATION
-------------------

General Integration Accuracy     IntAcc      ...  4.340
Radial Grid Type                 RadialGrid  ... Gauss-Chebyshev
Angular Grid (max. acc.)         AngularGrid ... Lebedev-110
Angular grid pruning method      GridPruning ... 3 (G Style)
Weight generation scheme         WeightScheme... Becke
Basis function cutoff            BFCut       ...    1.0000e-11
Integration weight cutoff        WCut        ...    1.0000e-14
Grids for H and He will be reduced by one unit

# of grid points (after initial pruning)     ...  22188 (   0.0 sec)
# of grid points (after weights+screening)   ...  21284 (   0.0 sec)
nearest neighbour list constructed           ...    0.0 sec
Grid point re-assignment to atoms done       ...    0.0 sec
Grid point division into batches done        ...    0.0 sec
Reduced shell lists constructed in    0.0 sec

Total number of grid points                  ...    21284
Total number of batches                      ...      340
Average number of points per batch           ...       62
Average number of grid points per atom       ...     1182
Average number of shells per batch           ...    46.97 (34.79%)
Average number of basis functions per batch  ...   110.72 (33.25%)
Average number of large shells per batch     ...    35.59 (75.77%)
Average number of large basis fcns per batch ...    86.00 (77.67%)
Maximum spatial batch extension              ...  16.66, 16.96, 22.36 au
Average spatial batch extension              ...   0.80,  0.73,  0.89 au

Time for grid setup =    0.074 sec

------------------------------
INITIAL GUESS: MODEL POTENTIAL
------------------------------
Loading Hartree-Fock densities                     ... done
Calculating cut-offs                               ... done
Setting up the integral package                    ... done
Initializing the effective Hamiltonian             ... done
Starting the Coulomb interaction                   ... done (   0.0 sec)
Reading the grid                                   ... done
Mapping shells                                     ... done
Starting the XC term evaluation                    ... done (   0.0 sec)
Transforming the Hamiltonian                       ... done (   0.0 sec)
Diagonalizing the Hamiltonian                      ... done (   0.0 sec)
Back transforming the eigenvectors                 ... done (   0.0 sec)
Now organizing SCF variables                       ... done
                      ------------------
                      INITIAL GUESS DONE (   0.2 sec)
                      ------------------
--------------
SCF ITERATIONS
--------------
ITER       Energy         Delta-E        Max-DP      RMS-DP      [F,P]     Damp
               ***  Starting incremental Fock matrix formation  ***
  0   -395.4191951500   0.000000000000 0.03796385  0.00086616  0.2832729 0.7000
  1   -395.6004934335  -0.181298283439 0.02717620  0.00068689  0.1879007 0.7000
                               ***Turning on DIIS***
  2   -395.7060985040  -0.105605070537 0.01617010  0.00044475  0.1421657 0.7000
  3   -396.6554372863  -0.949338782279 0.00986785  0.00028230  0.1056430 0.7000
  4   -396.6094486546   0.045988631668 0.02649170  0.00068942  0.0744489 0.0000
  5   -395.9523000818   0.657148572846 0.00630710  0.00012548  0.0061988 0.0000
                      *** Initiating the SOSCF procedure ***
                           *** Shutting down DIIS ***
                      *** Re-Reading the Fockian *** 
                      *** Removing any level shift *** 
ITER      Energy       Delta-E        Grad      Rot      Max-DP    RMS-DP
  6   -395.93392505   0.0183750340  0.001249  0.001249  0.004327  0.000079
               *** Restarting incremental Fock matrix formation ***
  7   -395.92326119   0.0106638580  0.000418  0.000624  0.003027  0.000056
  8   -395.92327992  -0.0000187269  0.000318  0.000514  0.002505  0.000046
  9   -395.92328385  -0.0000039336  0.000124  0.000156  0.000780  0.000014
 10   -395.92328459  -0.0000007396  0.000011  0.000013  0.000067  0.000001
 11   -395.92328460  -0.0000000089  0.000006  0.000008  0.000019  0.000000
                  ***Gradient check signals convergence***
              ***Rediagonalizing the Fockian in SOSCF/NRSCF***

               *****************************************************
               *                     SUCCESS                       *
               *           SCF CONVERGED AFTER  12 CYCLES          *
               *****************************************************


----------------
TOTAL SCF ENERGY
----------------

Total Energy       :         -395.92328460 Eh          -10773.62029 eV

Components:
Nuclear Repulsion  :          264.56797433 Eh            7199.26058 eV
Electronic Energy  :         -660.49125893 Eh          -17972.88088 eV
One Electron Energy:        -1057.97372572 Eh          -28788.92868 eV
Two Electron Energy:          397.48246679 Eh           10816.04780 eV

Virial components:
Potential Energy   :         -791.04572819 Eh          -21525.44860 eV
Kinetic Energy     :          395.12244359 Eh           10751.82830 eV
Virial Ratio       :            2.00202682


---------------
SCF CONVERGENCE
---------------

  Last Energy change         ...   -1.8738e-09  Tolerance :   1.0000e-08
  Last MAX-Density change    ...    9.2076e-06  Tolerance :   1.0000e-07
  Last RMS-Density change    ...    1.4703e-07  Tolerance :   5.0000e-09
  Last Orbital Gradient      ...    2.0511e-06  Tolerance :   1.0000e-05
  Last Orbital Rotation      ...    4.3738e-06  Tolerance :   1.0000e-05

             **** THE GBW FILE WAS UPDATED (12mecn.remya.etal.2.mol2,3,11-orca.engrad-mp2.def2tzvp.frozencore.gbw) ****
             **** DENSITY FILE WAS UPDATED (12mecn.remya.etal.2.mol2,3,11-orca.engrad-mp2.def2tzvp.frozencore.scfp) ****
             **** ENERGY FILE WAS UPDATED (12mecn.remya.etal.2.mol2,3,11-orca.engrad-mp2.def2tzvp.frozencore.en.tmp) ****
             **** THE GBW FILE WAS UPDATED (12mecn.remya.etal.2.mol2,3,11-orca.engrad-mp2.def2tzvp.frozencore.gbw) ****
             **** DENSITY FILE WAS UPDATED (12mecn.remya.etal.2.mol2,3,11-orca.engrad-mp2.def2tzvp.frozencore.scfp) ****
----------------
ORBITAL ENERGIES
----------------

  NO   OCC          E(Eh)            E(eV) 
   0   2.0000     -15.573517      -423.7769 
   1   2.0000     -15.573122      -423.7662 
   2   2.0000     -15.573045      -423.7641 
   3   2.0000     -11.286999      -307.1349 
   4   2.0000     -11.286079      -307.1098 
   5   2.0000     -11.284246      -307.0599 
   6   2.0000     -11.280289      -306.9523 
   7   2.0000     -11.280061      -306.9461 
   8   2.0000     -11.279739      -306.9373 
   9   2.0000      -1.214913       -33.0595 
  10   2.0000      -1.214737       -33.0547 
  11   2.0000      -1.214501       -33.0482 
  12   2.0000      -1.045095       -28.4385 
  13   2.0000      -1.044594       -28.4248 
  14   2.0000      -1.042950       -28.3801 
  15   2.0000      -0.701920       -19.1002 
  16   2.0000      -0.701825       -19.0976 
  17   2.0000      -0.699915       -19.0456 
  18   2.0000      -0.633674       -17.2431 
  19   2.0000      -0.633504       -17.2385 
  20   2.0000      -0.632792       -17.2191 
  21   2.0000      -0.631312       -17.1789 
  22   2.0000      -0.631012       -17.1707 
  23   2.0000      -0.630134       -17.1468 
  24   2.0000      -0.556160       -15.1339 
  25   2.0000      -0.555872       -15.1260 
  26   2.0000      -0.555582       -15.1181 
  27   2.0000      -0.458101       -12.4656 
  28   2.0000      -0.457976       -12.4622 
  29   2.0000      -0.457834       -12.4583 
  30   2.0000      -0.457817       -12.4578 
  31   2.0000      -0.457698       -12.4546 
  32   2.0000      -0.457408       -12.4467 
  33   0.0000       0.104664         2.8481 
  34   0.0000       0.120328         3.2743 
  35   0.0000       0.125677         3.4198 
  36   0.0000       0.165608         4.5064 
  37   0.0000       0.170338         4.6351 
  38   0.0000       0.170843         4.6489 
  39   0.0000       0.171742         4.6733 
  40   0.0000       0.172538         4.6950 
  41   0.0000       0.173479         4.7206 
  42   0.0000       0.196494         5.3469 
  43   0.0000       0.202956         5.5227 
  44   0.0000       0.206121         5.6088 
  45   0.0000       0.214103         5.8260 
  46   0.0000       0.223912         6.0930 
  47   0.0000       0.224879         6.1193 
  48   0.0000       0.225147         6.1266 
  49   0.0000       0.226035         6.1507 
  50   0.0000       0.233141         6.3441 
  51   0.0000       0.259115         7.0509 
  52   0.0000       0.264717         7.2033 
  53   0.0000       0.266185         7.2433 
  54   0.0000       0.317699         8.6450 
  55   0.0000       0.319257         8.6874 
  56   0.0000       0.321388         8.7454 
  57   0.0000       0.321547         8.7497 
  58   0.0000       0.324562         8.8318 
  59   0.0000       0.327865         8.9217 
  60   0.0000       0.371519        10.1096 
  61   0.0000       0.380630        10.3575 
  62   0.0000       0.381684        10.3861 
  63   0.0000       0.381887        10.3917 
  64   0.0000       0.382452        10.4070 
  65   0.0000       0.392444        10.6789 
  66   0.0000       0.405337        11.0298 
  67   0.0000       0.408251        11.1091 
  68   0.0000       0.413078        11.2404 
  69   0.0000       0.493583        13.4311 
  70   0.0000       0.496867        13.5204 
  71   0.0000       0.501497        13.6464 
  72   0.0000       0.526945        14.3389 
  73   0.0000       0.530133        14.4256 
  74   0.0000       0.532219        14.4824 
  75   0.0000       0.584355        15.9011 
  76   0.0000       0.588476        16.0132 
  77   0.0000       0.590214        16.0605 
  78   0.0000       0.592968        16.1355 
  79   0.0000       0.598407        16.2835 
  80   0.0000       0.599871        16.3233 
  81   0.0000       0.600224        16.3329 
  82   0.0000       0.600809        16.3488 
  83   0.0000       0.605128        16.4664 
  84   0.0000       0.655894        17.8478 
  85   0.0000       0.659116        17.9355 
  86   0.0000       0.659161        17.9367 
  87   0.0000       0.659623        17.9493 
  88   0.0000       0.660267        17.9668 
  89   0.0000       0.664030        18.0692 
  90   0.0000       0.701674        19.0935 
  91   0.0000       0.705278        19.1916 
  92   0.0000       0.712295        19.3825 
  93   0.0000       0.796136        21.6639 
  94   0.0000       0.807425        21.9711 
  95   0.0000       0.810335        22.0503 
  96   0.0000       0.812497        22.1092 
  97   0.0000       0.813005        22.1230 
  98   0.0000       0.813458        22.1353 
  99   0.0000       0.814386        22.1606 
 100   0.0000       0.814463        22.1627 
 101   0.0000       0.823906        22.4196 
 102   0.0000       0.915948        24.9242 
 103   0.0000       0.916999        24.9528 
 104   0.0000       0.917970        24.9792 
 105   0.0000       0.919161        25.0116 
 106   0.0000       0.919438        25.0192 
 107   0.0000       0.920701        25.0535 
 108   0.0000       1.028437        27.9852 
 109   0.0000       1.032393        28.0928 
 110   0.0000       1.034460        28.1491 
 111   0.0000       1.116388        30.3785 
 112   0.0000       1.122170        30.5358 
 113   0.0000       1.123775        30.5795 
 114   0.0000       1.124049        30.5869 
 115   0.0000       1.125782        30.6341 
 116   0.0000       1.133910        30.8553 
 117   0.0000       1.321221        35.9522 
 118   0.0000       1.322122        35.9768 
 119   0.0000       1.322777        35.9946 
 120   0.0000       1.417433        38.5703 
 121   0.0000       1.418576        38.6014 
 122   0.0000       1.419914        38.6378 
 123   0.0000       1.422956        38.7206 
 124   0.0000       1.423856        38.7451 
 125   0.0000       1.424832        38.7717 
 126   0.0000       1.448814        39.4242 
 127   0.0000       1.449447        39.4415 
 128   0.0000       1.449591        39.4454 
 129   0.0000       1.469209        39.9792 
 130   0.0000       1.469399        39.9844 
 131   0.0000       1.471677        40.0464 
 132   0.0000       1.474857        40.1329 
 133   0.0000       1.476326        40.1729 
 134   0.0000       1.476718        40.1835 
 135   0.0000       1.507648        41.0252 
 136   0.0000       1.509757        41.0826 
 137   0.0000       1.512955        41.1696 
 138   0.0000       1.692053        46.0431 
 139   0.0000       1.697840        46.2006 
 140   0.0000       1.698251        46.2118 
 141   0.0000       1.698385        46.2154 
 142   0.0000       1.698717        46.2244 
 143   0.0000       1.705004        46.3955 
 144   0.0000       1.731115        47.1060 
 145   0.0000       1.738873        47.3172 
 146   0.0000       1.745178        47.4887 
 147   0.0000       1.745627        47.5009 
 148   0.0000       1.747705        47.5575 
 149   0.0000       1.748321        47.5742 
 150   0.0000       1.793066        48.7918 
 151   0.0000       1.796516        48.8857 
 152   0.0000       1.797750        48.9193 
 153   0.0000       1.798749        48.9464 
 154   0.0000       1.803043        49.0633 
 155   0.0000       1.808201        49.2036 
 156   0.0000       1.934142        52.6307 
 157   0.0000       1.934670        52.6450 
 158   0.0000       1.934706        52.6460 
 159   0.0000       1.935243        52.6606 
 160   0.0000       1.935442        52.6660 
 161   0.0000       1.936163        52.6857 
 162   0.0000       1.968519        53.5661 
 163   0.0000       1.970765        53.6272 
 164   0.0000       1.971283        53.6413 
 165   0.0000       2.224688        60.5368 
 166   0.0000       2.225281        60.5530 
 167   0.0000       2.226346        60.5819 
 168   0.0000       2.231376        60.7188 
 169   0.0000       2.234819        60.8125 
 170   0.0000       2.236634        60.8619 
 171   0.0000       2.247015        61.1444 
 172   0.0000       2.250179        61.2305 
 173   0.0000       2.253642        61.3247 
 174   0.0000       2.338115        63.6234 
 175   0.0000       2.341784        63.7232 
 176   0.0000       2.344106        63.7864 
 177   0.0000       2.545453        69.2653 
 178   0.0000       2.548346        69.3440 
 179   0.0000       2.548364        69.3445 
 180   0.0000       2.550641        69.4065 
 181   0.0000       2.553907        69.4953 
 182   0.0000       2.555061        69.5267 
 183   0.0000       2.566964        69.8506 
 184   0.0000       2.576415        70.1078 
 185   0.0000       2.589347        70.4597 
 186   0.0000       2.616554        71.2000 
 187   0.0000       2.618431        71.2511 
 188   0.0000       2.620028        71.2946 
 189   0.0000       2.622456        71.3606 
 190   0.0000       2.626149        71.4611 
 191   0.0000       2.628545        71.5263 
 192   0.0000       2.700496        73.4842 
 193   0.0000       2.703145        73.5563 
 194   0.0000       2.703721        73.5720 
 195   0.0000       2.737454        74.4899 
 196   0.0000       2.739054        74.5334 
 197   0.0000       2.739742        74.5522 
 198   0.0000       2.741654        74.6042 
 199   0.0000       2.744962        74.6942 
 200   0.0000       2.747165        74.7542 
 201   0.0000       2.912584        79.2554 
 202   0.0000       2.912961        79.2657 
 203   0.0000       2.913100        79.2695 
 204   0.0000       2.913390        79.2774 
 205   0.0000       2.913401        79.2777 
 206   0.0000       2.913463        79.2794 
 207   0.0000       2.941123        80.0320 
 208   0.0000       2.942039        80.0569 
 209   0.0000       2.944817        80.1326 
 210   0.0000       2.956654        80.4546 
 211   0.0000       2.958924        80.5164 
 212   0.0000       2.959483        80.5316 
 213   0.0000       3.022436        82.2447 
 214   0.0000       3.024863        82.3107 
 215   0.0000       3.026184        82.3466 
 216   0.0000       3.084794        83.9415 
 217   0.0000       3.086250        83.9811 
 218   0.0000       3.087302        84.0098 
 219   0.0000       3.091106        84.1133 
 220   0.0000       3.094104        84.1948 
 221   0.0000       3.095443        84.2313 
 222   0.0000       3.231490        87.9333 
 223   0.0000       3.234772        88.0226 
 224   0.0000       3.238047        88.1117 
 225   0.0000       3.243955        88.2725 
 226   0.0000       3.244346        88.2831 
 227   0.0000       3.244910        88.2985 
 228   0.0000       3.246091        88.3306 
 229   0.0000       3.246993        88.3552 
 230   0.0000       3.249059        88.4114 
 231   0.0000       3.326818        90.5273 
 232   0.0000       3.327456        90.5447 
 233   0.0000       3.327783        90.5536 
 234   0.0000       3.335174        90.7547 
 235   0.0000       3.336563        90.7925 
 236   0.0000       3.337113        90.8075 
 237   0.0000       3.438399        93.5636 
 238   0.0000       3.440010        93.6074 
 239   0.0000       3.441342        93.6437 
 240   0.0000       3.445009        93.7435 
 241   0.0000       3.445649        93.7609 
 242   0.0000       3.446499        93.7840 
 243   0.0000       3.484631        94.8216 
 244   0.0000       3.486318        94.8675 
 245   0.0000       3.486978        94.8855 
 246   0.0000       3.632692        98.8506 
 247   0.0000       3.633962        98.8851 
 248   0.0000       3.634888        98.9103 
 249   0.0000       3.647310        99.2483 
 250   0.0000       3.649070        99.2963 
 251   0.0000       3.651409        99.3599 
 252   0.0000       3.797159       103.3259 
 253   0.0000       3.798448       103.3610 
 254   0.0000       3.799620       103.3929 
 255   0.0000       3.802638       103.4750 
 256   0.0000       3.803527       103.4992 
 257   0.0000       3.804854       103.5353 
 258   0.0000       3.923306       106.7586 
 259   0.0000       3.924481       106.7906 
 260   0.0000       3.925992       106.8317 
 261   0.0000       3.946221       107.3821 
 262   0.0000       3.948100       107.4333 
 263   0.0000       3.949099       107.4604 
 264   0.0000       3.954965       107.6201 
 265   0.0000       3.955977       107.6476 
 266   0.0000       3.956909       107.6730 
 267   0.0000       4.245837       115.5351 
 268   0.0000       4.246890       115.5638 
 269   0.0000       4.249623       115.6381 
 270   0.0000       4.251157       115.6799 
 271   0.0000       4.253717       115.7495 
 272   0.0000       4.254050       115.7586 
 273   0.0000       4.341883       118.1487 
 274   0.0000       4.342009       118.1521 
 275   0.0000       4.342342       118.1611 
 276   0.0000       4.346792       118.2822 
 277   0.0000       4.346912       118.2855 
 278   0.0000       4.347270       118.2952 
 279   0.0000       4.558385       124.0400 
 280   0.0000       4.560279       124.0915 
 281   0.0000       4.560867       124.1075 
 282   0.0000       4.740907       129.0066 
 283   0.0000       4.743107       129.0665 
 284   0.0000       4.743796       129.0853 
 285   0.0000       4.747810       129.1945 
 286   0.0000       4.750193       129.2593 
 287   0.0000       4.752541       129.3232 
 288   0.0000       4.833955       131.5386 
 289   0.0000       4.836050       131.5956 
 290   0.0000       4.836646       131.6118 
 291   0.0000       4.960418       134.9798 
 292   0.0000       4.960717       134.9880 
 293   0.0000       4.960790       134.9900 
 294   0.0000       4.961835       135.0184 
 295   0.0000       4.961966       135.0220 
 296   0.0000       4.962293       135.0309 
 297   0.0000       5.068162       137.9117 
 298   0.0000       5.068251       137.9141 
 299   0.0000       5.068337       137.9165 
 300   0.0000       5.068546       137.9222 
 301   0.0000       5.069017       137.9350 
 302   0.0000       5.069868       137.9581 
 303   0.0000       5.197532       141.4320 
 304   0.0000       5.199348       141.4815 
 305   0.0000       5.201722       141.5461 
 306   0.0000       5.556734       151.2064 
 307   0.0000       5.556863       151.2099 
 308   0.0000       5.557133       151.2173 
 309   0.0000       5.557703       151.2328 
 310   0.0000       5.557975       151.2402 
 311   0.0000       5.558075       151.2429 
 312   0.0000       6.022308       163.8753 
 313   0.0000       6.022322       163.8757 
 314   0.0000       6.023531       163.9086 
 315   0.0000       6.084334       165.5631 
 316   0.0000       6.086829       165.6310 
 317   0.0000       6.087660       165.6536 
 318   0.0000       6.088294       165.6709 
 319   0.0000       6.088422       165.6744 
 320   0.0000       6.091410       165.7557 
 321   0.0000       6.465943       175.9473 
 322   0.0000       6.466516       175.9628 
 323   0.0000       6.467023       175.9766 
 324   0.0000      23.466519       638.5564 
 325   0.0000      23.468920       638.6218 
 326   0.0000      23.471548       638.6933 
 327   0.0000      24.379276       663.3938 
 328   0.0000      24.379295       663.3943 
 329   0.0000      24.380662       663.4315 
 330   0.0000      33.380384       908.3264 
 331   0.0000      33.392290       908.6504 
 332   0.0000      33.406204       909.0290 

                    ********************************
                    * MULLIKEN POPULATION ANALYSIS *
                    ********************************

-----------------------
MULLIKEN ATOMIC CHARGES
-----------------------
   0 C :   -0.165215
   1 H :    0.156886
   2 H :    0.149710
   3 H :    0.156392
   4 C :   -0.108059
   5 N :   -0.189705
   6 C :   -0.168781
   7 H :    0.157341
   8 H :    0.152106
   9 H :    0.156365
  10 C :   -0.106642
  11 N :   -0.190397
  12 C :   -0.166809
  13 H :    0.158294
  14 H :    0.155679
  15 H :    0.156522
  16 C :   -0.104711
  17 N :   -0.198974
Sum of atomic charges:    0.0000000

--------------------------------
MULLIKEN REDUCED ORBITAL CHARGES
--------------------------------
  0 C s       :     3.148031  s :     3.148031
      pz      :     0.796918  p :     2.951413
      px      :     1.079861
      py      :     1.074634
      dz2     :     0.017721  d :     0.062293
      dxz     :     0.011595
      dyz     :     0.011583
      dx2y2   :     0.010017
      dxy     :     0.011378
      f0      :     0.001707  f :     0.003479
      f+1     :     0.000215
      f-1     :     0.000210
      f+2     :     0.000057
      f-2     :     0.000082
      f+3     :     0.000433
      f-3     :     0.000775
  1 H s       :     0.820745  s :     0.820745
      pz      :     0.005061  p :     0.022369
      px      :     0.012612
      py      :     0.004696
  2 H s       :     0.827991  s :     0.827991
      pz      :     0.005030  p :     0.022299
      px      :     0.004207
      py      :     0.013061
  3 H s       :     0.821210  s :     0.821210
      pz      :     0.004542  p :     0.022398
      px      :     0.009440
      py      :     0.008416
  4 C s       :     3.232779  s :     3.232779
      pz      :     0.966379  p :     2.744411
      px      :     0.888864
      py      :     0.889167
      dz2     :     0.026780  d :     0.113522
      dxz     :     0.042785
      dyz     :     0.042958
      dx2y2   :     0.000172
      dxy     :     0.000826
      f0      :     0.004210  f :     0.017348
      f+1     :     0.006451
      f-1     :     0.006457
      f+2     :     0.000092
      f-2     :     0.000136
      f+3     :     0.000000
      f-3     :     0.000000
  5 N s       :     3.718428  s :     3.718428
      pz      :     1.284123  p :     3.413123
      px      :     1.064720
      py      :     1.064281
      dz2     :     0.011834  d :     0.055186
      dxz     :     0.021552
      dyz     :     0.021540
      dx2y2   :     0.000137
      dxy     :     0.000123
      f0      :     0.000640  f :     0.002968
      f+1     :     0.001147
      f-1     :     0.001146
      f+2     :     0.000018
      f-2     :     0.000017
      f+3     :     0.000000
      f-3     :     0.000000
  6 C s       :     3.148445  s :     3.148445
      pz      :     0.796886  p :     2.954471
      px      :     1.077805
      py      :     1.079780
      dz2     :     0.017676  d :     0.062386
      dxz     :     0.010919
      dyz     :     0.012439
      dx2y2   :     0.010365
      dxy     :     0.010986
      f0      :     0.001716  f :     0.003478
      f+1     :     0.000203
      f-1     :     0.000220
      f+2     :     0.000068
      f-2     :     0.000074
      f+3     :     0.000775
      f-3     :     0.000423
  7 H s       :     0.820255  s :     0.820255
      pz      :     0.005352  p :     0.022404
      px      :     0.004594
      py      :     0.012458
  8 H s       :     0.825513  s :     0.825513
      pz      :     0.004695  p :     0.022381
      px      :     0.008080
      py      :     0.009606
  9 H s       :     0.821265  s :     0.821265
      pz      :     0.004677  p :     0.022370
      px      :     0.013432
      py      :     0.004261
 10 C s       :     3.232588  s :     3.232588
      pz      :     0.965676  p :     2.743118
      px      :     0.887347
      py      :     0.890096
      dz2     :     0.026898  d :     0.113590
      dxz     :     0.043213
      dyz     :     0.042771
      dx2y2   :     0.000224
      dxy     :     0.000485
      f0      :     0.004145  f :     0.017346
      f+1     :     0.006549
      f-1     :     0.006528
      f+2     :     0.000053
      f-2     :     0.000071
      f+3     :     0.000000
      f-3     :     0.000000
 11 N s       :     3.718065  s :     3.718065
      pz      :     1.285125  p :     3.414203
      px      :     1.066226
      py      :     1.062852
      dz2     :     0.011711  d :     0.055161
      dxz     :     0.021707
      dyz     :     0.021667
      dx2y2   :     0.000040
      dxy     :     0.000036
      f0      :     0.000626  f :     0.002969
      f+1     :     0.001168
      f-1     :     0.001163
      f+2     :     0.000006
      f-2     :     0.000006
      f+3     :     0.000000
      f-3     :     0.000000
 12 C s       :     3.149433  s :     3.149433
      pz      :     0.793771  p :     2.952024
      px      :     1.079392
      py      :     1.078861
      dz2     :     0.017792  d :     0.061880
      dxz     :     0.011997
      dyz     :     0.010636
      dx2y2   :     0.010398
      dxy     :     0.011058
      f0      :     0.001709  f :     0.003472
      f+1     :     0.000218
      f-1     :     0.000201
      f+2     :     0.000056
      f-2     :     0.000080
      f+3     :     0.000545
      f-3     :     0.000665
 13 H s       :     0.819311  s :     0.819311
      pz      :     0.005296  p :     0.022395
      px      :     0.012682
      py      :     0.004418
 14 H s       :     0.821909  s :     0.821909
      pz      :     0.004732  p :     0.022413
      px      :     0.009184
      py      :     0.008496
 15 H s       :     0.821110  s :     0.821110
      pz      :     0.004648  p :     0.022368
      px      :     0.004374
      py      :     0.013346
 16 C s       :     3.234490  s :     3.234490
      pz      :     0.968792  p :     2.739028
      px      :     0.885049
      py      :     0.885186
      dz2     :     0.026786  d :     0.113867
      dxz     :     0.043245
      dyz     :     0.042910
      dx2y2   :     0.000265
      dxy     :     0.000661
      f0      :     0.004184  f :     0.017326
      f+1     :     0.006453
      f-1     :     0.006488
      f+2     :     0.000088
      f-2     :     0.000112
      f+3     :     0.000000
      f-3     :     0.000000
 17 N s       :     3.715053  s :     3.715053
      pz      :     1.286964  p :     3.425950
      px      :     1.070065
      py      :     1.068921
      dz2     :     0.011781  d :     0.055001
      dxz     :     0.021434
      dyz     :     0.021584
      dx2y2   :     0.000105
      dxy     :     0.000097
      f0      :     0.000638  f :     0.002970
      f+1     :     0.001144
      f-1     :     0.001160
      f+2     :     0.000014
      f-2     :     0.000014
      f+3     :     0.000000
      f-3     :     0.000000


                     *******************************
                     * LOEWDIN POPULATION ANALYSIS *
                     *******************************

----------------------
LOEWDIN ATOMIC CHARGES
----------------------
   0 C :   -0.245765
   1 H :    0.144412
   2 H :    0.142772
   3 H :    0.142622
   4 C :   -0.200416
   5 N :    0.016376
   6 C :   -0.245960
   7 H :    0.143355
   8 H :    0.141748
   9 H :    0.144453
  10 C :   -0.199630
  11 N :    0.016034
  12 C :   -0.244730
  13 H :    0.145342
  14 H :    0.142707
  15 H :    0.144942
  16 C :   -0.198476
  17 N :    0.010215

-------------------------------
LOEWDIN REDUCED ORBITAL CHARGES
-------------------------------
  0 C s       :     2.814262  s :     2.814262
      pz      :     1.025553  p :     3.143343
      px      :     1.059691
      py      :     1.058099
      dz2     :     0.077024  d :     0.262797
      dxz     :     0.061837
      dyz     :     0.062182
      dx2y2   :     0.028021
      dxy     :     0.033734
      f0      :     0.007299  f :     0.025364
      f+1     :     0.005137
      f-1     :     0.005111
      f+2     :     0.002521
      f-2     :     0.002037
      f+3     :     0.001171
      f-3     :     0.002089
  1 H s       :     0.794880  s :     0.794880
      pz      :     0.013094  p :     0.060708
      px      :     0.033095
      py      :     0.014520
  2 H s       :     0.796834  s :     0.796834
      pz      :     0.013012  p :     0.060394
      px      :     0.013382
      py      :     0.034001
  3 H s       :     0.796416  s :     0.796416
      pz      :     0.012087  p :     0.060962
      px      :     0.025625
      py      :     0.023250
  4 C s       :     2.838596  s :     2.838596
      pz      :     1.189926  p :     2.855689
      px      :     0.832813
      py      :     0.832949
      dz2     :     0.154177  d :     0.447397
      dxz     :     0.145521
      dyz     :     0.145733
      dx2y2   :     0.000315
      dxy     :     0.001651
      f0      :     0.022952  f :     0.058734
      f+1     :     0.017601
      f-1     :     0.017608
      f+2     :     0.000233
      f-2     :     0.000337
      f+3     :     0.000001
      f-3     :     0.000001
  5 N s       :     3.314427  s :     3.314427
      pz      :     1.492881  p :     3.542851
      px      :     1.025094
      py      :     1.024876
      dz2     :     0.045718  d :     0.111912
      dxz     :     0.032887
      dyz     :     0.032913
      dx2y2   :     0.000206
      dxy     :     0.000189
      f0      :     0.006176  f :     0.014434
      f+1     :     0.004066
      f-1     :     0.004069
      f+2     :     0.000064
      f-2     :     0.000059
      f+3     :     0.000000
      f-3     :     0.000000
  6 C s       :     2.813766  s :     2.813766
      pz      :     1.025173  p :     3.144081
      px      :     1.059563
      py      :     1.059345
      dz2     :     0.077057  d :     0.262768
      dxz     :     0.059210
      dyz     :     0.065118
      dx2y2   :     0.029333
      dxy     :     0.032049
      f0      :     0.007313  f :     0.025345
      f+1     :     0.005315
      f-1     :     0.004908
      f+2     :     0.002363
      f-2     :     0.002187
      f+3     :     0.002103
      f-3     :     0.001155
  7 H s       :     0.795723  s :     0.795723
      pz      :     0.013701  p :     0.060922
      px      :     0.014373
      py      :     0.032848
  8 H s       :     0.797375  s :     0.797375
      pz      :     0.012395  p :     0.060877
      px      :     0.022549
      py      :     0.025933
  9 H s       :     0.794842  s :     0.794842
      pz      :     0.012344  p :     0.060705
      px      :     0.034839
      py      :     0.013521
 10 C s       :     2.838606  s :     2.838606
      pz      :     1.190943  p :     2.855153
      px      :     0.830884
      py      :     0.833327
      dz2     :     0.154333  d :     0.447135
      dxz     :     0.146258
      dyz     :     0.145352
      dx2y2   :     0.000328
      dxy     :     0.000865
      f0      :     0.023064  f :     0.058736
      f+1     :     0.017667
      f-1     :     0.017719
      f+2     :     0.000121
      f-2     :     0.000164
      f+3     :     0.000001
      f-3     :     0.000001
 11 N s       :     3.314395  s :     3.314395
      pz      :     1.494660  p :     3.543285
      px      :     1.025314
      py      :     1.023311
      dz2     :     0.045881  d :     0.111853
      dxz     :     0.032807
      dyz     :     0.033040
      dx2y2   :     0.000066
      dxy     :     0.000060
      f0      :     0.006231  f :     0.014433
      f+1     :     0.004059
      f-1     :     0.004102
      f+2     :     0.000021
      f-2     :     0.000019
      f+3     :     0.000000
      f-3     :     0.000000
 12 C s       :     2.814438  s :     2.814438
      pz      :     1.024141  p :     3.143256
      px      :     1.059773
      py      :     1.059342
      dz2     :     0.077468  d :     0.261730
      dxz     :     0.064038
      dyz     :     0.058690
      dx2y2   :     0.029221
      dxy     :     0.032312
      f0      :     0.007329  f :     0.025306
      f+1     :     0.004894
      f-1     :     0.005304
      f+2     :     0.002369
      f-2     :     0.002157
      f+3     :     0.001467
      f-3     :     0.001787
 13 H s       :     0.793923  s :     0.793923
      pz      :     0.013537  p :     0.060735
      px      :     0.033296
      py      :     0.013901
 14 H s       :     0.796316  s :     0.796316
      pz      :     0.012435  p :     0.060976
      px      :     0.025005
      py      :     0.023536
 15 H s       :     0.794435  s :     0.794435
      pz      :     0.012256  p :     0.060624
      px      :     0.013739
      py      :     0.034628
 16 C s       :     2.839307  s :     2.839307
      pz      :     1.191175  p :     2.851498
      px      :     0.830892
      py      :     0.829431
      dz2     :     0.154055  d :     0.448877
      dxz     :     0.147097
      dyz     :     0.145948
      dx2y2   :     0.000489
      dxy     :     0.001288
      f0      :     0.022948  f :     0.058794
      f+1     :     0.017797
      f-1     :     0.017550
      f+2     :     0.000226
      f-2     :     0.000271
      f+3     :     0.000001
      f-3     :     0.000001
 17 N s       :     3.314152  s :     3.314152
      pz      :     1.493762  p :     3.550035
      px      :     1.029283
      py      :     1.026990
      dz2     :     0.045690  d :     0.111221
      dxz     :     0.032699
      dyz     :     0.032520
      dx2y2   :     0.000161
      dxy     :     0.000150
      f0      :     0.006189  f :     0.014377
      f+1     :     0.004074
      f-1     :     0.004015
      f+2     :     0.000051
      f-2     :     0.000047
      f+3     :     0.000000
      f-3     :     0.000000


                      *****************************
                      * MAYER POPULATION ANALYSIS *
                      *****************************

  NA   - Mulliken gross atomic population
  ZA   - Total nuclear charge
  QA   - Mulliken gross atomic charge
  VA   - Mayer's total valence
  BVA  - Mayer's bonded valence
  FA   - Mayer's free valence

  ATOM       NA         ZA         QA         VA         BVA        FA
  0 C      6.1652     6.0000    -0.1652     3.8107     3.8107     0.0000
  1 H      0.8431     1.0000     0.1569     0.9617     0.9617     0.0000
  2 H      0.8503     1.0000     0.1497     0.9626     0.9626     0.0000
  3 H      0.8436     1.0000     0.1564     0.9618     0.9618     0.0000
  4 C      6.1081     6.0000    -0.1081     3.9198     3.9198     0.0000
  5 N      7.1897     7.0000    -0.1897     3.0358     3.0358     0.0000
  6 C      6.1688     6.0000    -0.1688     3.8100     3.8100     0.0000
  7 H      0.8427     1.0000     0.1573     0.9622     0.9622    -0.0000
  8 H      0.8479     1.0000     0.1521     0.9619     0.9619     0.0000
  9 H      0.8436     1.0000     0.1564     0.9613     0.9613     0.0000
 10 C      6.1066     6.0000    -0.1066     3.9196     3.9196     0.0000
 11 N      7.1904     7.0000    -0.1904     3.0360     3.0360    -0.0000
 12 C      6.1668     6.0000    -0.1668     3.8064     3.8064     0.0000
 13 H      0.8417     1.0000     0.1583     0.9616     0.9616     0.0000
 14 H      0.8443     1.0000     0.1557     0.9618     0.9618    -0.0000
 15 H      0.8435     1.0000     0.1565     0.9618     0.9618     0.0000
 16 C      6.1047     6.0000    -0.1047     3.9230     3.9230     0.0000
 17 N      7.1990     7.0000    -0.1990     3.0380     3.0380     0.0000

  Mayer bond orders larger than 0.100000
B(  0-C ,  1-H ) :   0.9633 B(  0-C ,  2-H ) :   0.9650 B(  0-C ,  3-H ) :   0.9633 
B(  0-C ,  4-C ) :   0.9296 B(  4-C ,  5-N ) :   3.0102 B(  6-C ,  7-H ) :   0.9623 
B(  6-C ,  8-H ) :   0.9648 B(  6-C ,  9-H ) :   0.9641 B(  6-C , 10-C ) :   0.9293 
B( 10-C , 11-N ) :   3.0105 B( 12-C , 13-H ) :   0.9625 B( 12-C , 14-H ) :   0.9630 
B( 12-C , 15-H ) :   0.9628 B( 12-C , 16-C ) :   0.9291 B( 16-C , 17-N ) :   3.0126 


-------
TIMINGS
-------

Total SCF time: 0 days 0 hours 0 min 19 sec 

Total time                  ....      19.753 sec
Sum of individual times     ....      19.459 sec  ( 98.5%)

Fock matrix formation       ....      18.919 sec  ( 95.8%)
Diagonalization             ....       0.140 sec  (  0.7%)
Density matrix formation    ....       0.017 sec  (  0.1%)
Population analysis         ....       0.026 sec  (  0.1%)
Initial guess               ....       0.157 sec  (  0.8%)
Orbital Transformation      ....       0.000 sec  (  0.0%)
Orbital Orthonormalization  ....       0.000 sec  (  0.0%)
DIIS solution               ....       0.051 sec  (  0.3%)
SOSCF solution              ....       0.074 sec  (  0.4%)


           ************************************************************
           *        Program running with 6 parallel MPI-processes     *
           *              working on a common directory               *
           ************************************************************

------------------------------------------------------------------------------
                                ORCA  MP2 
------------------------------------------------------------------------------

Freezing NCore=18 chemical core electrons
MP2 will be done in the AO integral direct mode
The Q1-step will be done using symmetric double matrices
Dimension of the basis                    ...  333
Memory devoted for MP2                    ... 8000 MB   
Memory needed for all in one shot         ...  566 MB
Number of MOs that can be treated together...   55      
MP2 density construction                  ... relaxed
The MP2 gradient is requested => amplitudes will be stored on disk
Total number of MOs              ...   24
Number of MOs treated per batch  ...    4 
Number of batches necessary      ...    1 
OPERATORS   0/  0 PASS   0
-----------------------------------------------
 MP2 CORRELATION ENERGY   :     -1.525773173 Eh
-----------------------------------------------


---------------------
MP2 DENSITY FORMATION
---------------------

Completing the external part of the density      ... done
Storing the unrelaxed density                    ... done

Calculating G(D)                                 ... done
Completing the Lagrangian                        ... done
Solving the Z-vector equations                   ... 

------------------------------------------------------------------------------
                           ORCA CP-SCF CALCULATION
------------------------------------------------------------------------------

Input orbitals are from        ... 12mecn.remya.etal.2.mol2,3,11-orca.engrad-mp2.def2tzvp.frozencore.gbw
Input Perturbation             ... 12mecn.remya.etal.2.mol2,3,11-orca.engrad-mp2.def2tzvp.frozencore.pin.tmp
Wavefunction output            ... 12mecn.remya.etal.2.mol2,3,11-orca.engrad-mp2.def2tzvp.frozencore.pout.tmp
Perturbation mode              ... Real perturbation (singlet)
Solver                         ... POPLE
Max. number of iterations      ... 128
Convergence tolerance          ... 1.000e-08
Integral handling              ... Direct
Number of perturbations        ... 1
Number of operators            ... 1
Orbital ranges used for CP-SCF:
 Operator 0:  Orbitals   0... 32  to  33...332
Variables per vector in CP-SCF ... 9900
Number of vectors sought       ... 1
     CP-SCF ITERATION   0: 
     CP-SCF ITERATION   1:      0.001358194018
     CP-SCF ITERATION   2:      0.000278270716
     CP-SCF ITERATION   3:      0.000005934835
     CP-SCF ITERATION   4:      0.000000418692
     CP-SCF ITERATION   5:      0.000000076658
     CP-SCF ITERATION   6:      0.000000020084
     CP-SCF ITERATION   7:      0.000000006392
                                                 ... done
Finalizing the relaxed density                   ... done
Transforming P to the AO basis                   ... done
Storing the relaxed density                      ... done

------------------------------------
ENERGY WEIGHTED DENSITY FINALIZATION
------------------------------------

Gathering the parts of the W-matrix              ...                                                      done
Forming the Z-density                            ... done
Transforming Z to the AO basis                   ... done
Calculating G(Z)                                 ... done
Finalizing the W-matrix                          ...                                                      done
Transforming W to the AO basis and storing       ... done

                *********************************************
                * UNRELAXED MP2 DENSITY POPULATION ANALYSIS *
                *********************************************

------------------------------------------------------------------------------
                           ORCA POPULATION ANALYSIS
------------------------------------------------------------------------------
Input electron density              ... 12mecn.remya.etal.2.mol2,3,11-orca.engrad-mp2.def2tzvp.frozencore.pmp2ur
BaseName (.gbw .S,...)              ... 12mecn.remya.etal.2.mol2,3,11-orca.engrad-mp2.def2tzvp.frozencore

                    ********************************
                    * MULLIKEN POPULATION ANALYSIS *
                    ********************************

-----------------------
MULLIKEN ATOMIC CHARGES
-----------------------
   0 C :   -0.178478
   1 H :    0.159451
   2 H :    0.152300
   3 H :    0.158963
   4 C :   -0.116566
   5 N :   -0.175661
   6 C :   -0.182055
   7 H :    0.159909
   8 H :    0.154693
   9 H :    0.158931
  10 C :   -0.115156
  11 N :   -0.176331
  12 C :   -0.180026
  13 H :    0.160855
  14 H :    0.158257
  15 H :    0.159091
  16 C :   -0.113534
  17 N :   -0.184643
Sum of atomic charges:    0.0000000

--------------------------------
MULLIKEN REDUCED ORBITAL CHARGES
--------------------------------
  0 C s       :     3.146419  s :     3.146419
      pz      :     0.795674  p :     2.936912
      px      :     1.073209
      py      :     1.068030
      dz2     :     0.020238  d :     0.087810
      dxz     :     0.017660
      dyz     :     0.017640
      dx2y2   :     0.015494
      dxy     :     0.016777
      f0      :     0.002106  f :     0.007337
      f+1     :     0.000881
      f-1     :     0.000876
      f+2     :     0.000596
      f-2     :     0.000624
      f+3     :     0.000973
      f-3     :     0.001282
  1 H s       :     0.815363  s :     0.815363
      pz      :     0.006049  p :     0.025186
      px      :     0.013425
      py      :     0.005713
  2 H s       :     0.822563  s :     0.822563
      pz      :     0.006024  p :     0.025137
      px      :     0.005243
      py      :     0.013869
  3 H s       :     0.815823  s :     0.815823
      pz      :     0.005546  p :     0.025214
      px      :     0.010333
      py      :     0.009335
  4 C s       :     3.232273  s :     3.232273
      pz      :     0.957514  p :     2.734753
      px      :     0.888467
      py      :     0.888772
      dz2     :     0.029251  d :     0.129225
      dxz     :     0.044923
      dyz     :     0.045093
      dx2y2   :     0.004659
      dxy     :     0.005299
      f0      :     0.004673  f :     0.020315
      f+1     :     0.006895
      f-1     :     0.006901
      f+2     :     0.000643
      f-2     :     0.000687
      f+3     :     0.000258
      f-3     :     0.000258
  5 N s       :     3.705654  s :     3.705654
      pz      :     1.271863  p :     3.387291
      px      :     1.057928
      py      :     1.057500
      dz2     :     0.016003  d :     0.077049
      dxz     :     0.025553
      dyz     :     0.025541
      dx2y2   :     0.004982
      dxy     :     0.004970
      f0      :     0.001067  f :     0.005666
      f+1     :     0.001592
      f-1     :     0.001591
      f+2     :     0.000431
      f-2     :     0.000430
      f+3     :     0.000277
      f-3     :     0.000277
  6 C s       :     3.146857  s :     3.146857
      pz      :     0.795632  p :     2.939933
      px      :     1.071140
      py      :     1.073160
      dz2     :     0.020202  d :     0.087928
      dxz     :     0.017037
      dyz     :     0.018456
      dx2y2   :     0.015826
      dxy     :     0.016408
      f0      :     0.002113  f :     0.007337
      f+1     :     0.000868
      f-1     :     0.000890
      f+2     :     0.000608
      f-2     :     0.000616
      f+3     :     0.001280
      f-3     :     0.000962
  7 H s       :     0.814877  s :     0.814877
      pz      :     0.006329  p :     0.025214
      px      :     0.005613
      py      :     0.013272
  8 H s       :     0.820090  s :     0.820090
      pz      :     0.005699  p :     0.025217
      px      :     0.009015
      py      :     0.010503
  9 H s       :     0.815872  s :     0.815872
      pz      :     0.005679  p :     0.025197
      px      :     0.014224
      py      :     0.005294
 10 C s       :     3.232073  s :     3.232073
      pz      :     0.956832  p :     2.733495
      px      :     0.887073
      py      :     0.889590
      dz2     :     0.029374  d :     0.129277
      dxz     :     0.045322
      dyz     :     0.044898
      dx2y2   :     0.004714
      dxy     :     0.004969
      f0      :     0.004608  f :     0.020312
      f+1     :     0.006990
      f-1     :     0.006970
      f+2     :     0.000606
      f-2     :     0.000625
      f+3     :     0.000256
      f-3     :     0.000256
 11 N s       :     3.705292  s :     3.705292
      pz      :     1.272848  p :     3.388342
      px      :     1.059343
      py      :     1.056151
      dz2     :     0.015882  d :     0.077030
      dxz     :     0.025709
      dyz     :     0.025661
      dx2y2   :     0.004891
      dxy     :     0.004887
      f0      :     0.001053  f :     0.005667
      f+1     :     0.001614
      f-1     :     0.001607
      f+2     :     0.000420
      f-2     :     0.000420
      f+3     :     0.000277
      f-3     :     0.000277
 12 C s       :     3.147815  s :     3.147815
      pz      :     0.792579  p :     2.937475
      px      :     1.072713
      py      :     1.072183
      dz2     :     0.020297  d :     0.087405
      dxz     :     0.018001
      dyz     :     0.016753
      dx2y2   :     0.015864
      dxy     :     0.016490
      f0      :     0.002107  f :     0.007331
      f+1     :     0.000884
      f-1     :     0.000865
      f+2     :     0.000597
      f-2     :     0.000621
      f+3     :     0.001074
      f-3     :     0.001182
 13 H s       :     0.813940  s :     0.813940
      pz      :     0.006273  p :     0.025204
      px      :     0.013490
      py      :     0.005441
 14 H s       :     0.816516  s :     0.816516
      pz      :     0.005729  p :     0.025228
      px      :     0.010083
      py      :     0.009415
 15 H s       :     0.815728  s :     0.815728
      pz      :     0.005646  p :     0.025181
      px      :     0.005399
      py      :     0.014136
 16 C s       :     3.233900  s :     3.233900
      pz      :     0.959946  p :     2.729851
      px      :     0.884880
      py      :     0.885025
      dz2     :     0.029255  d :     0.129493
      dxz     :     0.045359
      dyz     :     0.045024
      dx2y2   :     0.004734
      dxy     :     0.005122
      f0      :     0.004647  f :     0.020290
      f+1     :     0.006896
      f-1     :     0.006930
      f+2     :     0.000640
      f-2     :     0.000663
      f+3     :     0.000257
      f-3     :     0.000257
 17 N s       :     3.702323  s :     3.702323
      pz      :     1.274702  p :     3.399690
      px      :     1.063051
      py      :     1.061938
      dz2     :     0.015966  d :     0.076957
      dxz     :     0.025460
      dyz     :     0.025606
      dx2y2   :     0.004966
      dxy     :     0.004960
      f0      :     0.001065  f :     0.005672
      f+1     :     0.001589
      f-1     :     0.001606
      f+2     :     0.000428
      f-2     :     0.000428
      f+3     :     0.000278
      f-3     :     0.000278


                     *******************************
                     * LOEWDIN POPULATION ANALYSIS *
                     *******************************

----------------------
LOEWDIN ATOMIC CHARGES
----------------------
   0 C :   -0.253855
   1 H :    0.146079
   2 H :    0.144418
   3 H :    0.144311
   4 C :   -0.205489
   5 N :    0.024536
   6 C :   -0.254048
   7 H :    0.145046
   8 H :    0.143413
   9 H :    0.146104
  10 C :   -0.204716
  11 N :    0.024200
  12 C :   -0.252802
  13 H :    0.147012
  14 H :    0.144397
  15 H :    0.146608
  16 C :   -0.203697
  17 N :    0.018481

-------------------------------
LOEWDIN REDUCED ORBITAL CHARGES
-------------------------------
  0 C s       :     2.812456  s :     2.812456
      pz      :     1.017061  p :     3.118929
      px      :     1.051720
      py      :     1.050148
      dz2     :     0.082224  d :     0.291093
      dxz     :     0.067680
      dyz     :     0.068021
      dx2y2   :     0.033725
      dxy     :     0.039443
      f0      :     0.008417  f :     0.031377
      f+1     :     0.006193
      f-1     :     0.006166
      f+2     :     0.003199
      f-2     :     0.002711
      f+3     :     0.001861
      f-3     :     0.002831
  1 H s       :     0.788471  s :     0.788471
      pz      :     0.014523  p :     0.065450
      px      :     0.035126
      py      :     0.015801
  2 H s       :     0.790411  s :     0.790411
      pz      :     0.014446  p :     0.065171
      px      :     0.014621
      py      :     0.036104
  3 H s       :     0.789991  s :     0.789991
      pz      :     0.013465  p :     0.065698
      px      :     0.027354
      py      :     0.024880
  4 C s       :     2.835328  s :     2.835328
      pz      :     1.177424  p :     2.836739
      px      :     0.829592
      py      :     0.829724
      dz2     :     0.161452  d :     0.466976
      dxz     :     0.147208
      dyz     :     0.147408
      dx2y2   :     0.004810
      dxy     :     0.006099
      f0      :     0.024575  f :     0.066445
      f+1     :     0.019702
      f-1     :     0.019711
      f+2     :     0.000912
      f-2     :     0.001025
      f+3     :     0.000260
      f-3     :     0.000261
  5 N s       :     3.306588  s :     3.306588
      pz      :     1.477024  p :     3.508641
      px      :     1.015916
      py      :     1.015701
      dz2     :     0.052532  d :     0.141378
      dxz     :     0.039426
      dyz     :     0.039451
      dx2y2   :     0.004993
      dxy     :     0.004976
      f0      :     0.007243  f :     0.018857
      f+1     :     0.005026
      f-1     :     0.005029
      f+2     :     0.000504
      f-2     :     0.000499
      f+3     :     0.000278
      f-3     :     0.000278
  6 C s       :     2.811962  s :     2.811962
      pz      :     1.016680  p :     3.119649
      px      :     1.051587
      py      :     1.051382
      dz2     :     0.082259  d :     0.291078
      dxz     :     0.065064
      dyz     :     0.070955
      dx2y2   :     0.035045
      dxy     :     0.037755
      f0      :     0.008432  f :     0.031358
      f+1     :     0.006374
      f-1     :     0.005964
      f+2     :     0.003040
      f-2     :     0.002862
      f+3     :     0.002844
      f-3     :     0.001842
  7 H s       :     0.789307  s :     0.789307
      pz      :     0.015154  p :     0.065647
      px      :     0.015638
      py      :     0.034855
  8 H s       :     0.790940  s :     0.790940
      pz      :     0.013793  p :     0.065647
      px      :     0.024155
      py      :     0.027699
  9 H s       :     0.788433  s :     0.788433
      pz      :     0.013740  p :     0.065464
      px      :     0.036959
      py      :     0.014765
 10 C s       :     2.835338  s :     2.835338
      pz      :     1.178422  p :     2.836222
      px      :     0.827763
      py      :     0.830036
      dz2     :     0.161650  d :     0.466712
      dxz     :     0.147863
      dyz     :     0.147056
      dx2y2   :     0.004812
      dxy     :     0.005331
      f0      :     0.024676  f :     0.066443
      f+1     :     0.019787
      f-1     :     0.019835
      f+2     :     0.000791
      f-2     :     0.000838
      f+3     :     0.000258
      f-3     :     0.000257
 11 N s       :     3.306557  s :     3.306557
      pz      :     1.478778  p :     3.509060
      px      :     1.016081
      py      :     1.014201
      dz2     :     0.052699  d :     0.141326
      dxz     :     0.039363
      dyz     :     0.039577
      dx2y2   :     0.004847
      dxy     :     0.004840
      f0      :     0.007301  f :     0.018857
      f+1     :     0.005024
      f-1     :     0.005066
      f+2     :     0.000457
      f-2     :     0.000455
      f+3     :     0.000277
      f-3     :     0.000277
 12 C s       :     2.812629  s :     2.812629
      pz      :     1.015662  p :     3.118810
      px      :     1.051785
      py      :     1.051363
      dz2     :     0.082648  d :     0.290045
      dxz     :     0.069894
      dyz     :     0.064546
      dx2y2   :     0.034933
      dxy     :     0.038024
      f0      :     0.008446  f :     0.031319
      f+1     :     0.005948
      f-1     :     0.006363
      f+2     :     0.003045
      f-2     :     0.002832
      f+3     :     0.002173
      f-3     :     0.002512
 13 H s       :     0.787525  s :     0.787525
      pz      :     0.014983  p :     0.065463
      px      :     0.035326
      py      :     0.015154
 14 H s       :     0.789893  s :     0.789893
      pz      :     0.013827  p :     0.065710
      px      :     0.026709
      py      :     0.025175
 15 H s       :     0.788033  s :     0.788033
      pz      :     0.013644  p :     0.065359
      px      :     0.014989
      py      :     0.036726
 16 C s       :     2.836016  s :     2.836016
      pz      :     1.178677  p :     2.832895
      px      :     0.827824
      py      :     0.826394
      dz2     :     0.161323  d :     0.468293
      dxz     :     0.148733
      dyz     :     0.147548
      dx2y2   :     0.004960
      dxy     :     0.005729
      f0      :     0.024570  f :     0.066491
      f+1     :     0.019893
      f-1     :     0.019655
      f+2     :     0.000902
      f-2     :     0.000954
      f+3     :     0.000259
      f-3     :     0.000259
 17 N s       :     3.306341  s :     3.306341
      pz      :     1.477915  p :     3.515574
      px      :     1.019958
      py      :     1.017701
      dz2     :     0.052520  d :     0.140799
      dxz     :     0.039277
      dyz     :     0.039093
      dx2y2   :     0.004960
      dxy     :     0.004949
      f0      :     0.007257  f :     0.018804
      f+1     :     0.005039
      f-1     :     0.004976
      f+2     :     0.000490
      f-2     :     0.000486
      f+3     :     0.000278
      f-3     :     0.000278


                      *****************************
                      * MAYER POPULATION ANALYSIS *
                      *****************************

  NA   - Mulliken gross atomic population
  ZA   - Total nuclear charge
  QA   - Mulliken gross atomic charge
  VA   - Mayer's total valence
  BVA  - Mayer's bonded valence
  FA   - Mayer's free valence

  ATOM       NA         ZA         QA         VA         BVA        FA
  0 C      6.1785     6.0000    -0.1785     3.9281     3.6452     0.2830
  1 H      0.8405     1.0000     0.1595     0.9692     0.9216     0.0476
  2 H      0.8477     1.0000     0.1523     0.9703     0.9223     0.0480
  3 H      0.8410     1.0000     0.1590     0.9693     0.9219     0.0474
  4 C      6.1166     6.0000    -0.1166     4.0214     3.5828     0.4386
  5 N      7.1757     7.0000    -0.1757     3.2305     2.7453     0.4852
  6 C      6.1821     6.0000    -0.1821     3.9277     3.6446     0.2831
  7 H      0.8401     1.0000     0.1599     0.9696     0.9223     0.0474
  8 H      0.8453     1.0000     0.1547     0.9696     0.9218     0.0477
  9 H      0.8411     1.0000     0.1589     0.9688     0.9211     0.0477
 10 C      6.1152     6.0000    -0.1152     4.0211     3.5826     0.4384
 11 N      7.1763     7.0000    -0.1763     3.2308     2.7456     0.4852
 12 C      6.1800     6.0000    -0.1800     3.9240     3.6412     0.2829
 13 H      0.8391     1.0000     0.1609     0.9690     0.9215     0.0475
 14 H      0.8417     1.0000     0.1583     0.9694     0.9219     0.0475
 15 H      0.8409     1.0000     0.1591     0.9693     0.9217     0.0476
 16 C      6.1135     6.0000    -0.1135     4.0243     3.5866     0.4377
 17 N      7.1846     7.0000    -0.1846     3.2337     2.7482     0.4856

  Mayer bond orders larger than 0.100000
B(  0-C ,  1-H ) :   0.9258 B(  0-C ,  2-H ) :   0.9273 B(  0-C ,  3-H ) :   0.9260 
B(  0-C ,  4-C ) :   0.8781 B(  4-C ,  5-N ) :   2.7266 B(  6-C ,  7-H ) :   0.9251 
B(  6-C ,  8-H ) :   0.9273 B(  6-C ,  9-H ) :   0.9266 B(  6-C , 10-C ) :   0.8778 
B( 10-C , 11-N ) :   2.7269 B( 12-C , 13-H ) :   0.9251 B( 12-C , 14-H ) :   0.9257 
B( 12-C , 15-H ) :   0.9254 B( 12-C , 16-C ) :   0.8775 B( 16-C , 17-N ) :   2.7296 



                *******************************************
                * RELAXED MP2 DENSITY POPULATION ANALYSIS *
                *******************************************

------------------------------------------------------------------------------
                           ORCA POPULATION ANALYSIS
------------------------------------------------------------------------------
Input electron density              ... 12mecn.remya.etal.2.mol2,3,11-orca.engrad-mp2.def2tzvp.frozencore.pmp2re
BaseName (.gbw .S,...)              ... 12mecn.remya.etal.2.mol2,3,11-orca.engrad-mp2.def2tzvp.frozencore

                    ********************************
                    * MULLIKEN POPULATION ANALYSIS *
                    ********************************

-----------------------
MULLIKEN ATOMIC CHARGES
-----------------------
   0 C :   -0.279387
   1 H :    0.173170
   2 H :    0.166436
   3 H :    0.172700
   4 C :   -0.145900
   5 N :   -0.087012
   6 C :   -0.283053
   7 H :    0.173446
   8 H :    0.168819
   9 H :    0.172891
  10 C :   -0.144662
  11 N :   -0.087446
  12 C :   -0.280215
  13 H :    0.174372
  14 H :    0.171961
  15 H :    0.172721
  16 C :   -0.145275
  17 N :   -0.093564
Sum of atomic charges:    0.0000000

--------------------------------
MULLIKEN REDUCED ORBITAL CHARGES
--------------------------------
  0 C s       :     3.182532  s :     3.182532
      pz      :     0.842010  p :     3.012294
      px      :     1.087667
      py      :     1.082617
      dz2     :     0.015993  d :     0.077478
      dxz     :     0.017772
      dyz     :     0.017742
      dx2y2   :     0.012500
      dxy     :     0.013472
      f0      :     0.001872  f :     0.007083
      f+1     :     0.000939
      f-1     :     0.000935
      f+2     :     0.000586
      f-2     :     0.000614
      f+3     :     0.000931
      f-3     :     0.001206
  1 H s       :     0.802784  s :     0.802784
      pz      :     0.006052  p :     0.024046
      px      :     0.012223
      py      :     0.005772
  2 H s       :     0.809550  s :     0.809550
      pz      :     0.006037  p :     0.024014
      px      :     0.005384
      py      :     0.012594
  3 H s       :     0.803234  s :     0.803234
      pz      :     0.005618  p :     0.024066
      px      :     0.009642
      py      :     0.008806
  4 C s       :     3.211415  s :     3.211415
      pz      :     0.991869  p :     2.810943
      px      :     0.909363
      py      :     0.909711
      dz2     :     0.024392  d :     0.104569
      dxz     :     0.035116
      dyz     :     0.035274
      dx2y2   :     0.004602
      dxy     :     0.005185
      f0      :     0.004476  f :     0.018973
      f+1     :     0.006336
      f-1     :     0.006340
      f+2     :     0.000633
      f-2     :     0.000671
      f+3     :     0.000258
      f-3     :     0.000258
  5 N s       :     3.647413  s :     3.647413
      pz      :     1.261757  p :     3.366370
      px      :     1.052449
      py      :     1.052164
      dz2     :     0.014957  d :     0.068037
      dxz     :     0.021595
      dyz     :     0.021583
      dx2y2   :     0.004956
      dxy     :     0.004946
      f0      :     0.000949  f :     0.005193
      f+1     :     0.001417
      f-1     :     0.001416
      f+2     :     0.000429
      f-2     :     0.000428
      f+3     :     0.000277
      f-3     :     0.000277
[...]
      f+1     :     0.006415
      f-1     :     0.006405
      f+2     :     0.000601
      f-2     :     0.000617
      f+3     :     0.000256
      f-3     :     0.000256
 11 N s       :     3.646999  s :     3.646999
      pz      :     1.262762  p :     3.367234
      px      :     1.052693
      py      :     1.051779
      dz2     :     0.014869  d :     0.068020
      dxz     :     0.021728
      dyz     :     0.021659
      dx2y2   :     0.004884
      dxy     :     0.004881
      f0      :     0.000936  f :     0.005193
      f+1     :     0.001437
      f-1     :     0.001429
      f+2     :     0.000419
      f-2     :     0.000419
      f+3     :     0.000277
      f-3     :     0.000277
 12 C s       :     3.183807  s :     3.183807
      pz      :     0.839062  p :     3.012229
      px      :     1.086842
      py      :     1.086326
      dz2     :     0.016035  d :     0.077103
      dxz     :     0.017975
      dyz     :     0.017052
      dx2y2   :     0.012791
      dxy     :     0.013250
      f0      :     0.001872  f :     0.007076
      f+1     :     0.000941
      f-1     :     0.000926
      f+2     :     0.000587
      f-2     :     0.000611
      f+3     :     0.001021
      f-3     :     0.001118
 13 H s       :     0.801569  s :     0.801569
      pz      :     0.006235  p :     0.024059
      px      :     0.012279
      py      :     0.005545
 14 H s       :     0.803959  s :     0.803959
      pz      :     0.005768  p :     0.024079
      px      :     0.009435
      py      :     0.008877
 15 H s       :     0.803239  s :     0.803239
      pz      :     0.005715  p :     0.024040
      px      :     0.005509
      py      :     0.012816
 16 C s       :     3.213156  s :     3.213156
      pz      :     0.994326  p :     2.808278
      px      :     0.907024
      py      :     0.906928
      dz2     :     0.024443  d :     0.104893
      dxz     :     0.035558
      dyz     :     0.035184
      dx2y2   :     0.004679
      dxy     :     0.005028
      f0      :     0.004456  f :     0.018948
      f+1     :     0.006336
      f-1     :     0.006362
      f+2     :     0.000630
      f-2     :     0.000650
      f+3     :     0.000257
      f-3     :     0.000257
 17 N s       :     3.643229  s :     3.643229
      pz      :     1.265178  p :     3.377149
      px      :     1.056494
      py      :     1.055477
      dz2     :     0.014928  d :     0.067987
      dxz     :     0.021534
      dyz     :     0.021636
      dx2y2   :     0.004947
      dxy     :     0.004941
      f0      :     0.000947  f :     0.005200
      f+1     :     0.001415
      f-1     :     0.001430
      f+2     :     0.000426
      f-2     :     0.000426
      f+3     :     0.000278
      f-3     :     0.000278


                     *******************************
                     * LOEWDIN POPULATION ANALYSIS *
                     *******************************

----------------------
LOEWDIN ATOMIC CHARGES
----------------------
   0 C :   -0.284617
   1 H :    0.152831
   2 H :    0.151321
   3 H :    0.151029
   4 C :   -0.220002
   5 N :    0.049441
   6 C :   -0.284813
   7 H :    0.151737
   8 H :    0.150250
   9 H :    0.152914
  10 C :   -0.219289
  11 N :    0.049200
  12 C :   -0.283572
  13 H :    0.153703
  14 H :    0.151106
  15 H :    0.153344
  16 C :   -0.218977
  17 N :    0.044396

-------------------------------
LOEWDIN REDUCED ORBITAL CHARGES
-------------------------------
  0 C s       :     2.817376  s :     2.817376
      pz      :     1.034983  p :     3.155630
      px      :     1.061047
      py      :     1.059601
      dz2     :     0.074719  d :     0.280030
      dxz     :     0.069142
      dyz     :     0.069453
      dx2y2   :     0.030664
      dxy     :     0.036053
      f0      :     0.007932  f :     0.031581
      f+1     :     0.006606
      f-1     :     0.006580
      f+2     :     0.003185
      f-2     :     0.002693
      f+3     :     0.001823
      f-3     :     0.002762
  1 H s       :     0.781417  s :     0.781417
      pz      :     0.015011  p :     0.065752
      px      :     0.034568
      py      :     0.016173
  2 H s       :     0.783163  s :     0.783163
      pz      :     0.014945  p :     0.065516
      px      :     0.015053
      py      :     0.035518
  3 H s       :     0.782974  s :     0.782974
      pz      :     0.014013  p :     0.065997
      px      :     0.027170
      py      :     0.024814
  4 C s       :     2.840930  s :     2.840930
      pz      :     1.168749  p :     2.861575
      px      :     0.846375
      py      :     0.846451
      dz2     :     0.163474  d :     0.451018
      dxz     :     0.138327
      dyz     :     0.138522
      dx2y2   :     0.004751
      dxy     :     0.005944
      f0      :     0.025531  f :     0.066479
      f+1     :     0.019261
      f-1     :     0.019267
      f+2     :     0.000910
      f-2     :     0.000990
      f+3     :     0.000260
      f-3     :     0.000260
  5 N s       :     3.306716  s :     3.306716
      pz      :     1.464094  p :     3.487466
      px      :     1.011746
      py      :     1.011626
      dz2     :     0.053162  d :     0.137154
      dxz     :     0.037020
      dyz     :     0.037035
      dx2y2   :     0.004975
      dxy     :     0.004963
      f0      :     0.007343  f :     0.019223
      f+1     :     0.005158
      f-1     :     0.005160
      f+2     :     0.000506
      f-2     :     0.000501
      f+3     :     0.000278
      f-3     :     0.000278
  6 C s       :     2.816883  s :     2.816883
      pz      :     1.034532  p :     3.156323
      px      :     1.061044
      py      :     1.060747
      dz2     :     0.074739  d :     0.280044
      dxz     :     0.066782
      dyz     :     0.072158
      dx2y2   :     0.031917
      dxy     :     0.034448
      f0      :     0.007940  f :     0.031562
      f+1     :     0.006808
      f-1     :     0.006366
      f+2     :     0.003024
      f-2     :     0.002843
      f+3     :     0.002776
      f-3     :     0.001805
  7 H s       :     0.782328  s :     0.782328
      pz      :     0.015590  p :     0.065936
      px      :     0.016028
      py      :     0.034318
  8 H s       :     0.783763  s :     0.783763
      pz      :     0.014332  p :     0.065987
      px      :     0.024157
      py      :     0.027498
  9 H s       :     0.781300  s :     0.781300
      pz      :     0.014283  p :     0.065786
      px      :     0.036315
      py      :     0.015188
 10 C s       :     2.840939  s :     2.840939
      pz      :     1.169694  p :     2.861137
      px      :     0.845413
      py      :     0.846031
      dz2     :     0.163785  d :     0.450737
      dxz     :     0.138744
      dyz     :     0.138208
      dx2y2   :     0.004761
      dxy     :     0.005240
      f0      :     0.025655  f :     0.066475
      f+1     :     0.019297
      f-1     :     0.019411
      f+2     :     0.000782
      f-2     :     0.000815
      f+3     :     0.000258
      f-3     :     0.000257
 11 N s       :     3.306689  s :     3.306689
      pz      :     1.465826  p :     3.487775
      px      :     1.011109
      py      :     1.010840
      dz2     :     0.053361  d :     0.137113
      dxz     :     0.036997
      dyz     :     0.037077
      dx2y2   :     0.004842
      dxy     :     0.004837
      f0      :     0.007399  f :     0.019223
      f+1     :     0.005167
      f-1     :     0.005191
      f+2     :     0.000458
      f-2     :     0.000456
      f+3     :     0.000277
      f-3     :     0.000277
 12 C s       :     2.817535  s :     2.817535
      pz      :     1.033760  p :     3.155423
      px      :     1.061029
      py      :     1.060634
      dz2     :     0.075063  d :     0.279086
      dxz     :     0.071227
      dyz     :     0.066262
      dx2y2   :     0.031817
      dxy     :     0.034717
      f0      :     0.007952  f :     0.031529
      f+1     :     0.006358
      f-1     :     0.006791
      f+2     :     0.003032
      f-2     :     0.002816
      f+3     :     0.002126
      f-3     :     0.002454
 13 H s       :     0.780549  s :     0.780549
      pz      :     0.015435  p :     0.065748
      px      :     0.034755
      py      :     0.015558
 14 H s       :     0.782887  s :     0.782887
      pz      :     0.014347  p :     0.066007
      px      :     0.026555
      py      :     0.025105
 15 H s       :     0.781002  s :     0.781002
      pz      :     0.014181  p :     0.065653
      px      :     0.015397
      py      :     0.036075
 16 C s       :     2.841476  s :     2.841476
      pz      :     1.169832  p :     2.858939
      px      :     0.845257
      py      :     0.843850
      dz2     :     0.163334  d :     0.452083
      dxz     :     0.139758
      dyz     :     0.138496
      dx2y2   :     0.004892
      dxy     :     0.005603
      f0      :     0.025539  f :     0.066480
      f+1     :     0.019425
      f-1     :     0.019179
      f+2     :     0.000894
      f-2     :     0.000926
      f+3     :     0.000259
      f-3     :     0.000259
 17 N s       :     3.306481  s :     3.306481
      pz      :     1.465189  p :     3.493228
      px      :     1.015096
      py      :     1.012943
      dz2     :     0.053130  d :     0.136713
      dxz     :     0.036965
      dyz     :     0.036732
      dx2y2   :     0.004947
      dxy     :     0.004939
      f0      :     0.007353  f :     0.019182
      f+1     :     0.005177
      f-1     :     0.005116
      f+2     :     0.000492
      f-2     :     0.000488
      f+3     :     0.000278
      f-3     :     0.000278


                      *****************************
                      * MAYER POPULATION ANALYSIS *
                      *****************************

  NA   - Mulliken gross atomic population
  ZA   - Total nuclear charge
  QA   - Mulliken gross atomic charge
  VA   - Mayer's total valence
  BVA  - Mayer's bonded valence
  FA   - Mayer's free valence

  ATOM       NA         ZA         QA         VA         BVA        FA
  0 C      6.2794     6.0000    -0.2794     3.9320     3.6501     0.2819
  1 H      0.8268     1.0000     0.1732     0.9631     0.9161     0.0470
  2 H      0.8336     1.0000     0.1664     0.9643     0.9168     0.0474
  3 H      0.8273     1.0000     0.1727     0.9633     0.9164     0.0468
  4 C      6.1459     6.0000    -0.1459     4.1443     3.7165     0.4278
  5 N      7.0870     7.0000    -0.0870     3.3437     2.8708     0.4729
  6 C      6.2831     6.0000    -0.2831     3.9315     3.6495     0.2820
  7 H      0.8266     1.0000     0.1734     0.9637     0.9169     0.0468
  8 H      0.8312     1.0000     0.1688     0.9635     0.9163     0.0472
  9 H      0.8271     1.0000     0.1729     0.9626     0.9155     0.0471
 10 C      6.1447     6.0000    -0.1447     4.1441     3.7165     0.4276
 11 N      7.0874     7.0000    -0.0874     3.3441     2.8711     0.4729
 12 C      6.2802     6.0000    -0.2802     3.9285     3.6468     0.2817
 13 H      0.8256     1.0000     0.1744     0.9630     0.9160     0.0469
 14 H      0.8280     1.0000     0.1720     0.9633     0.9164     0.0469
 15 H      0.8273     1.0000     0.1727     0.9633     0.9162     0.0471
 16 C      6.1453     6.0000    -0.1453     4.1487     3.7218     0.4269
 17 N      7.0936     7.0000    -0.0936     3.3480     2.8748     0.4732

  Mayer bond orders larger than 0.100000
B(  0-C ,  1-H ) :   0.9166 B(  0-C ,  2-H ) :   0.9179 B(  0-C ,  3-H ) :   0.9168 
B(  0-C ,  4-C ) :   0.9023 B(  4-C ,  5-N ) :   2.8345 B(  6-C ,  7-H ) :   0.9159 
B(  6-C ,  8-H ) :   0.9180 B(  6-C ,  9-H ) :   0.9172 B(  6-C , 10-C ) :   0.9020 
B( 10-C , 11-N ) :   2.8349 B( 12-C , 13-H ) :   0.9158 B( 12-C , 14-H ) :   0.9165 
B( 12-C , 15-H ) :   0.9161 B( 12-C , 16-C ) :   0.9022 B( 16-C , 17-N ) :   2.8386 



----------------------------------
MP2 DERIVATIVE INTEGRAL GENERATION
----------------------------------


Input Wavefunction Amplitudes       ... 12mecn.remya.etal.2.mol2,3,11-orca.engrad-mp2.def2tzvp.frozencore.mp2tsaa.tmp
Input Correlated Electron Density   ... 12mecn.remya.etal.2.mol2,3,11-orca.engrad-mp2.def2tzvp.frozencore.pmp2re
Input Energy Weighted Density       ... 12mecn.remya.etal.2.mol2,3,11-orca.engrad-mp2.def2tzvp.frozencore.wmp2.tmp
Input SCF Electron Density          ... 12mecn.remya.etal.2.mol2,3,11-orca.engrad-mp2.def2tzvp.frozencore.scfp

One-Electron Terms    ...
                        ... One-Electron Terms done
Prescreening matrices              ... done

Batch handling in the gradient evaluation:
Memory available                      ... 8000.0 MB
Memory per occupied orbital in Q2     ...   20.3 MB
Memory per occupied orbital in Q3     ...    0.1 MB
Total memory requirement per |i>      ...   20.4 MB
Max. Number of orbitals possible      ...    391
Number of orbitals treated per batch  ...     24
Number of batches to be done          ...      1
Batch   0: i=    9 ...    32

---------------------------------------
MP2 TOTAL ENERGY:     -397.449057774 Eh
---------------------------------------

The final MP2 gradient
  0:  -0.00074009  -0.00113960   0.00748529
  1:   0.00307542  -0.00123548   0.00068646
  2:  -0.00108869   0.00351206   0.00065916
  3:  -0.00158934  -0.00133372  -0.00062590
  4:   0.00034370   0.00010802  -0.00356592
  5:  -0.00006736   0.00026442  -0.00464147
  6:  -0.00257041   0.00203233   0.00746325
  7:  -0.00072227   0.00245835  -0.00051840
  8:  -0.00021237  -0.00200502  -0.00009919
  9:   0.00247092  -0.00162510   0.00091292
 10:   0.00083430  -0.00073531  -0.00315494
 11:   0.00016229  -0.00033113  -0.00460999
 12:   0.00081116   0.00129900  -0.00775597
 13:  -0.00324521   0.00144407  -0.00054256
 14:   0.00143751   0.00143561   0.00080198
 15:   0.00128168  -0.00351687  -0.00075815
 16:  -0.00024075  -0.00032207   0.00397148
 17:   0.00005949  -0.00030956   0.00429195

-----------------------------------
NORM OF THE MP2 GRADIENT:  0.019266
-----------------------------------

-------------------------   --------------------
FINAL SINGLE POINT ENERGY      -397.449057773890
-------------------------   --------------------


                            ***************************************
                            *     ORCA property calculations      *
                            ***************************************

                                    ---------------------
                                    Active property flags
                                    ---------------------
   (+) Dipole Moment


------------------------------------------------------------------------------
                       ORCA ELECTRIC PROPERTIES CALCULATION
------------------------------------------------------------------------------

Dipole Moment Calculation                       ... on
Quadrupole Moment Calculation                   ... off
Polarizability Calculation                      ... off
GBWName                                         ... 12mecn.remya.etal.2.mol2,3,11-orca.engrad-mp2.def2tzvp.frozencore.gbw
Electron density file                           ... 12mecn.remya.etal.2.mol2,3,11-orca.engrad-mp2.def2tzvp.frozencore.scfp
The origin for moment calculation is the CENTER OF MASS  = (-3.278629,  1.810175 -0.156648)

-------------
DIPOLE MOMENT
-------------
                                X             Y             Z
Electronic contribution:     -0.06178       0.29047       3.04355
Nuclear contribution   :      0.09037      -0.44706      -4.65216
                        -----------------------------------------
Total Dipole Moment    :      0.02859      -0.15660      -1.60861
                        -----------------------------------------
Magnitude (a.u.)       :      1.61647
Magnitude (Debye)      :      4.10873



--------------------
Rotational spectrum 
--------------------
 
Rotational constants in cm-1:     0.017874     0.006197     0.005033 
Rotational constants in MHz :   535.849981   185.770556   150.889128 

 Dipole components along the rotational axes: 
x,y,z [a.u.] :    -0.152917     0.074030    -1.607513 
x,y,z [Debye]:    -0.388683     0.188169    -4.085973 

 

                         *** MP2 UNRELAXED DENSITY ***

------------------------------------------------------------------------------
                       ORCA ELECTRIC PROPERTIES CALCULATION
------------------------------------------------------------------------------

Dipole Moment Calculation                       ... on
Quadrupole Moment Calculation                   ... off
Polarizability Calculation                      ... off
GBWName                                         ... 12mecn.remya.etal.2.mol2,3,11-orca.engrad-mp2.def2tzvp.frozencore.gbw
Electron density file                           ... 12mecn.remya.etal.2.mol2,3,11-orca.engrad-mp2.def2tzvp.frozencore.pmp2ur
The origin for moment calculation is the CENTER OF MASS  = (-3.278629,  1.810175 -0.156648)

-------------
DIPOLE MOMENT
-------------
                                X             Y             Z
Electronic contribution:     -0.06207       0.29373       3.07870
Nuclear contribution   :      0.09037      -0.44706      -4.65216
                        -----------------------------------------
Total Dipole Moment    :      0.02830      -0.15333      -1.57347
                        -----------------------------------------
Magnitude (a.u.)       :      1.58117
Magnitude (Debye)      :      4.01902



--------------------
Rotational spectrum 
--------------------
 
Rotational constants in cm-1:     0.017874     0.006197     0.005033 
Rotational constants in MHz :   535.849981   185.770556   150.889128 

 Dipole components along the rotational axes: 
x,y,z [a.u.] :    -0.149359     0.072709    -1.572422 
x,y,z [Debye]:    -0.379640     0.184812    -3.996780 

 

                           *** MP2 RELAXED DENSITY ***

------------------------------------------------------------------------------
                       ORCA ELECTRIC PROPERTIES CALCULATION
------------------------------------------------------------------------------

Dipole Moment Calculation                       ... on
Quadrupole Moment Calculation                   ... off
Polarizability Calculation                      ... off
GBWName                                         ... 12mecn.remya.etal.2.mol2,3,11-orca.engrad-mp2.def2tzvp.frozencore.gbw
Electron density file                           ... 12mecn.remya.etal.2.mol2,3,11-orca.engrad-mp2.def2tzvp.frozencore.pmp2re
The origin for moment calculation is the CENTER OF MASS  = (-3.278629,  1.810175 -0.156648)

-------------
DIPOLE MOMENT
-------------
                                X             Y             Z
Electronic contribution:     -0.06336       0.30309       3.17476
Nuclear contribution   :      0.09037      -0.44706      -4.65216
                        -----------------------------------------
Total Dipole Moment    :      0.02701      -0.14397      -1.47740
                        -----------------------------------------
Magnitude (a.u.)       :      1.48465
Magnitude (Debye)      :      3.77367



--------------------
Rotational spectrum 
--------------------
 
Rotational constants in cm-1:     0.017874     0.006197     0.005033 
Rotational constants in MHz :   535.849981   185.770556   150.889128 

 Dipole components along the rotational axes: 
x,y,z [a.u.] :    -0.139852     0.068477    -1.476457 
x,y,z [Debye]:    -0.355474     0.174054    -3.752856 

 

Timings for individual modules:

Sum of individual times         ...       98.168 sec (=   1.636 min)
GTO integral calculation        ...        1.095 sec (=   0.018 min)   1.1 %
SCF iterations                  ...       20.447 sec (=   0.341 min)  20.8 %
MP2 module                      ...       76.625 sec (=   1.277 min)  78.1 %
                             ****ORCA TERMINATED NORMALLY****
TOTAL RUN TIME: 0 days 0 hours 1 minutes 39 seconds 165 msec
