10
Energy:   -321.53977102
O    0.74674579   1.00623625  -1.75080223
H    0.18486978   1.75246798  -1.95976492
H    1.61935127   1.38511859  -1.64478475
O   -1.20152759  -1.67634686   0.05544247
H   -1.52318463  -2.12652991   0.83653389
H   -1.52209067  -2.20496604  -0.67533309
O    0.50553201   0.54290932   1.50402368
H    1.29417712   0.53270210   2.04639490
H   -0.09729939   1.12392024   1.96797675
Li  -0.03867548  -0.30010982  -0.31043508
