10
Energy:   -328.05662700
O   -0.41171419   1.79684044   0.74998915
H   -0.70713542   2.67171611   0.49789650
H   -0.87598986   1.61279343   1.56657145
O    1.47867778  -0.32054802  -1.66855977
H    1.32912078  -1.08239992  -2.22842248
H    2.39485436  -0.08798971  -1.81945366
O   -0.97414132  -1.31166528   0.86588023
H   -1.92661009  -1.38291484   0.80296288
H   -0.70528024  -2.09928413   1.33874609
Li   0.39201978   0.12809188  -0.08667440
