10
Energy:   -322.06634702
O   -1.08410439   0.20234209   1.35839978
H   -1.00613970  -0.62998580   1.82464397
H   -1.43408182   0.81034263   2.00961633
O    0.09012318  -1.53225927  -1.22508634
H   -0.16669611  -2.30312468  -0.71908020
H    0.73111589  -1.86141452  -1.85517920
O    0.88350881   1.45908288  -0.36802603
H    1.71846671   1.20536593   0.02529936
H    0.85077925   2.41056554  -0.26882234
Li  -0.58955227   0.19012959  -0.73726624
