10
Energy:   -324.06957222
O    0.89785337   0.92029473  -1.78261747
H    0.87474111   1.81458007  -2.12313384
H    1.73010300   0.56578491  -2.09553151
O   -1.84052678  -0.33870547   0.80372188
H   -2.21359549   0.00968674   1.61345915
H   -2.49468040  -0.96137383   0.48654840
O    1.00474262  -0.55663143   0.84202120
H    1.80605190  -0.49257073   1.36166677
H    0.40270422  -1.05974634   1.39034318
Li  -0.22705434   0.09594062  -0.47572324
