
                                 *****************
                                 * O   R   C   A *
                                 *****************

           --- An Ab Initio, DFT and Semiempirical electronic structure package ---

                  #######################################################
                  #                        -***-                        #
                  #          Department of theory and spectroscopy      #
                  #               Directorship: Frank Neese             #
                  #        Max Planck Institute fuer Kohlenforschung    #
                  #                Kaiser Wilhelm Platz 1               #
                  #                 D-45470 Muelheim/Ruhr               #
                  #                      Germany                        #
                  #                                                     #
                  #                  All rights reserved                #
                  #                        -***-                        #
                  #######################################################


                         Program Version 4.2.0 -  RELEASE  -


 With contributions from (in alphabetic order):
   Daniel Aravena         : Magnetic Suceptibility
   Michael Atanasov       : Ab Initio Ligand Field Theory (pilot matlab implementation)
   Alexander A. Auer      : GIAO ZORA, VPT2
   Ute Becker             : Parallelization
   Giovanni Bistoni       : ED, misc. LED, open-shell LED, HFLED
   Martin Brehm           : Molecular dynamics
   Dmytro Bykov           : SCF Hessian
   Vijay G. Chilkuri      : MRCI spin determinant printing, contributions to CSF-ICE
   Dipayan Datta          : RHF DLPNO-CCSD density
   Achintya Kumar Dutta   : EOM-CC, STEOM-CC
   Dmitry Ganyushin       : Spin-Orbit,Spin-Spin,Magnetic field MRCI
   Miquel Garcia          : C-PCM Hessian, Gaussian charge scheme
   Yang Guo               : DLPNO-NEVPT2, CIM, IAO-localization
   Andreas Hansen         : Spin unrestricted coupled pair/coupled cluster methods
   Benjamin Helmich-Paris : CASSCF linear response (MC-RPA)
   Lee Huntington         : MR-EOM, pCC
   Robert Izsak           : Overlap fitted RIJCOSX, COSX-SCS-MP3, EOM
   Christian Kollmar      : KDIIS, OOCD, Brueckner-CCSD(T), CCSD density
   Simone Kossmann        : Meta GGA functionals, TD-DFT gradient, OOMP2, MP2 Hessian
   Martin Krupicka        : AUTO-CI
   Lucas Lang             : DCDCAS
   Dagmar Lenk            : GEPOL surface, SMD
   Dimitrios Liakos       : Extrapolation schemes; Compound Job, initial MDCI parallelization
   Dimitrios Manganas     : Further ROCIS development; embedding schemes
   Dimitrios Pantazis     : SARC Basis sets
   Taras Petrenko         : DFT Hessian,TD-DFT gradient, ASA, ECA, R-Raman, ABS, FL, XAS/XES, NRVS
   Peter Pinski           : DLPNO-MP2, DLPNO-MP2 Gradient
   Christoph Reimann      : Effective Core Potentials
   Marius Retegan         : Local ZFS, SOC
   Christoph Riplinger    : Optimizer, TS searches, QM/MM, DLPNO-CCSD(T), (RO)-DLPNO pert. Triples
   Tobias Risthaus        : Range-separated hybrids, TD-DFT gradient, RPA, STAB
   Michael Roemelt        : Original ROCIS implementation
   Masaaki Saitow         : Open-shell DLPNO-CCSD energy and density
   Barbara Sandhoefer     : DKH picture change effects
   Avijit Sen             : IP-ROCIS
   Kantharuban Sivalingam : CASSCF convergence, NEVPT2, FIC-MRCI
   Bernardo de Souza      : ESD, SOC TD-DFT
   Georgi Stoychev        : AutoAux, RI-MP2 NMR
   Willem Van den Heuvel  : Paramagnetic NMR
   Boris Wezisla          : Elementary symmetry handling
   Frank Wennmohs         : Technical directorship


 We gratefully acknowledge several colleagues who have allowed us to
 interface, adapt or use parts of their codes:
   Stefan Grimme, W. Hujo, H. Kruse,             : VdW corrections, initial TS optimization,
                  C. Bannwarth                     DFT functionals, gCP, sTDA/sTD-DF
   Ed Valeev, F. Pavosevic, A. Kumar             : LibInt (2-el integral package), F12 methods
   Garnet Chan, S. Sharma, J. Yang, R. Olivares  : DMRG
   Ulf Ekstrom                                   : XCFun DFT Library
   Mihaly Kallay                                 : mrcc  (arbitrary order and MRCC methods)
   Andreas Klamt, Michael Diedenhofen            : otool_cosmo (COSMO solvation model)
   Jiri Pittner, Ondrej Demel                    : Mk-CCSD
   Frank Weinhold                                : gennbo (NPA and NBO analysis)
   Christopher J. Cramer and Donald G. Truhlar   : smd solvation model
   Lars Goerigk                                  : TD-DFT with DH, B97 family of functionals
   V. Asgeirsson, H. Jonsson                     : NEB implementation
   FAccTs GmbH                                   : IRC, NEB, NEB-TS, Multilevel, MM, QM/MM, CI optimization
   S Lehtola, MJT Oliveira, MAL Marques          : LibXC Library


 Your calculation uses the libint2 library for the computation of 2-el integrals
 For citations please refer to: http://libint.valeyev.net

 Your ORCA version has been built with support for libXC version: 4.2.3
 For citations please refer to: https://tddft.org/programs/libxc/

 This ORCA versions uses:
   CBLAS   interface :  Fast vector & matrix operations
   LAPACKE interface :  Fast linear algebra routines
   SCALAPACK package :  Parallel linear algebra routines


----- Orbital basis set information -----
Your calculation utilizes the basis: def2-TZVP
   F. Weigend and R. Ahlrichs, Phys. Chem. Chem. Phys. 7, 3297 (2005).

================================================================================
                                        WARNINGS
                       Please study these warnings very carefully!
================================================================================


WARNING: The frozen-core approximation for MP2-gradient calculations is turned on by default.

INFO   : the flag for use of LIBINT has been found!

================================================================================
                                       INPUT FILE
================================================================================
NAME = 12mecn.remya.etal.2.mol1,4,6-orca.engrad-mp2.def2tzvp.frozencore.inp
|  1> # 12mecn.remya.etal.2.mol1,4,6
|  2> ! MP2 def2-TZVP EnGrad TightSCF
|  3> 
|  4> %pal
|  5>     nprocs 6
|  6> end
|  7> 
|  8> %maxcore 8000
|  9> 
| 10> %scf
| 11>     ConvForced true
| 12> end
| 13> 
| 14> *xyz 0 1
| 15> C  -4.697980000  -0.249690000   1.746215000
| 16> H  -4.927570000   0.755530000   2.111799000
| 17> H  -3.709180000  -0.561560000   2.093253000
| 18> H  -5.432280000  -0.961520000   2.128066000
| 19> C  -4.714100000  -0.247110000   0.301670000
| 20> N  -4.729750000  -0.234960000  -0.865260000
| 21> C  -1.509690000  -0.693960000  -1.610140000
| 22> H  -1.327010000  -1.692700000  -2.017370000
| 23> H  -0.742170000  -0.000650000  -1.964400000
| 24> H  -2.491920000  -0.334310000  -1.929350000
| 25> C  -1.473570000  -0.748120000  -0.167200000
| 26> N  -1.447490000  -0.793720000   0.998938000
| 27> C   5.300864000  -2.920090000   1.401103000
| 28> H   5.986071000  -2.139770000   1.737487000
| 29> H   5.636642000  -3.888750000   1.778233000
| 30> H   4.307359000  -2.697240000   1.799307000
| 31> C   5.234791000  -2.933140000  -0.043290000
| 32> N   5.170868000  -2.941760000  -1.207750000
| 33> *
| 34> 
| 35>                          ****END OF INPUT****
================================================================================

                     *******************************
                     * Energy+Gradient Calculation *
                     *******************************

---------------------------------
CARTESIAN COORDINATES (ANGSTROEM)
---------------------------------
  C     -4.697980   -0.249690    1.746215
  H     -4.927570    0.755530    2.111799
  H     -3.709180   -0.561560    2.093253
  H     -5.432280   -0.961520    2.128066
  C     -4.714100   -0.247110    0.301670
  N     -4.729750   -0.234960   -0.865260
  C     -1.509690   -0.693960   -1.610140
  H     -1.327010   -1.692700   -2.017370
  H     -0.742170   -0.000650   -1.964400
  H     -2.491920   -0.334310   -1.929350
  C     -1.473570   -0.748120   -0.167200
  N     -1.447490   -0.793720    0.998938
  C      5.300864   -2.920090    1.401103
  H      5.986071   -2.139770    1.737487
  H      5.636642   -3.888750    1.778233
  H      4.307359   -2.697240    1.799307
  C      5.234791   -2.933140   -0.043290
  N      5.170868   -2.941760   -1.207750

----------------------------
CARTESIAN COORDINATES (A.U.)
----------------------------
  NO LB      ZA    FRAG     MASS         X           Y           Z
   0 C     6.0000    0    12.011   -8.877896   -0.471846    3.299868
   1 H     1.0000    0     1.008   -9.311758    1.427745    3.990722
   2 H     1.0000    0     1.008   -7.009334   -1.061195    3.955675
   3 H     1.0000    0     1.008  -10.265521   -1.817009    4.021462
   4 C     6.0000    0    12.011   -8.908358   -0.466970    0.570074
   5 N     7.0000    0    14.007   -8.937932   -0.444010   -1.635104
   6 C     6.0000    0    12.011   -2.852901   -1.311394   -3.042724
   7 H     1.0000    0     1.008   -2.507685   -3.198739   -3.812277
   8 H     1.0000    0     1.008   -1.402498   -0.001228   -3.712178
   9 H     1.0000    0     1.008   -4.709046   -0.631754   -3.645943
  10 C     6.0000    0    12.011   -2.784644   -1.413742   -0.315962
  11 N     7.0000    0    14.007   -2.735360   -1.499913    1.887719
  12 C     6.0000    0    12.011   10.017181   -5.518170    2.647701
  13 H     1.0000    0     1.008   11.312035   -4.043579    3.283375
  14 H     1.0000    0     1.008   10.651710   -7.348673    3.360373
  15 H     1.0000    0     1.008    8.139729   -5.097045    3.400197
  16 C     6.0000    0    12.011    9.892321   -5.542831   -0.081806
  17 N     7.0000    0    14.007    9.771524   -5.559121   -2.282317

--------------------------------
INTERNAL COORDINATES (ANGSTROEM)
--------------------------------
 C      0   0   0     0.000000000000     0.00000000     0.00000000
 H      1   0   0     1.093997476028     0.00000000     0.00000000
 H      1   2   0     1.093354338878   110.23188073     0.00000000
 H      1   2   3     1.091654077582   109.94364040   119.12222513
 C      1   2   3     1.444637244371   109.27900475   240.05041290
 N      5   1   2     1.167098183488   179.48927802   358.44615688
 C      6   5   1     3.336811894309   102.05360307   112.84708689
 H      7   6   5     1.093933198555   111.70560639   108.16292756
 H      7   6   5     1.093282147526   131.49629836   255.54745959
 H      7   6   5     1.093626499085    32.13524685   201.45653336
 C      7   6   5     1.444407769157    78.83036115     1.46927785
 N     11   7   6     1.167320590688   179.82285150    38.98509084
 C     12  11   7     7.086851753313    95.14554678   132.17997235
 H     13  12  11     1.091586978076   113.62413734   106.42424747
 H     13  12  11     1.092371776358   125.33515211   245.68661455
 H     13  12  11     1.093288952263    25.06659033   188.94621955
 C     13  12  11     1.445962337780    84.40530400   356.95636750
 N     17  13  12     1.166245062553   179.46874677   352.54709616

---------------------------
INTERNAL COORDINATES (A.U.)
---------------------------
 C      0   0   0     0.000000000000     0.00000000     0.00000000
 H      1   0   0     2.067355620894     0.00000000     0.00000000
 H      1   2   0     2.066140267815   110.23188073     0.00000000
 H      1   2   3     2.062927239608   109.94364040   119.12222513
 C      1   2   3     2.729968754725   109.27900475   240.05041290
 N      5   1   2     2.205495938188   179.48927802   358.44615688
 C      6   5   1     6.305660640654   102.05360307   112.84708689
 H      7   6   5     2.067234154073   111.70560639   108.16292756
 H      7   6   5     2.066003845930   131.49629836   255.54745959
 H      7   6   5     2.066654576069    32.13524685   201.45653336
 C      7   6   5     2.729535109414    78.83036115     1.46927785
 N     11   7   6     2.205916226887   179.82285150    38.98509084
 C     12  11   7    13.392208965462    95.14554678   132.17997235
 H     13  12  11     2.062800439918   113.62413734   106.42424747
 H     13  12  11     2.064283493742   125.33515211   245.68661455
 H     13  12  11     2.066016705019    25.06659033   188.94621955
 C     13  12  11     2.732472818369    84.40530400   356.95636750
 N     17  13  12     2.203883773263   179.46874677   352.54709616

---------------------
BASIS SET INFORMATION
---------------------
There are 3 groups of distinct atoms

 Group   1 Type C   : 11s6p2d1f contracted to 5s3p2d1f pattern {62111/411/11/1}
 Group   2 Type H   : 5s1p contracted to 3s1p pattern {311/1}
 Group   3 Type N   : 11s6p2d1f contracted to 5s3p2d1f pattern {62111/411/11/1}

Atom   0C    basis set group =>   1
Atom   1H    basis set group =>   2
Atom   2H    basis set group =>   2
Atom   3H    basis set group =>   2
Atom   4C    basis set group =>   1
Atom   5N    basis set group =>   3
Atom   6C    basis set group =>   1
Atom   7H    basis set group =>   2
Atom   8H    basis set group =>   2
Atom   9H    basis set group =>   2
Atom  10C    basis set group =>   1
Atom  11N    basis set group =>   3
Atom  12C    basis set group =>   1
Atom  13H    basis set group =>   2
Atom  14H    basis set group =>   2
Atom  15H    basis set group =>   2
Atom  16C    basis set group =>   1
Atom  17N    basis set group =>   3


           ************************************************************
           *        Program running with 6 parallel MPI-processes     *
           *              working on a common directory               *
           ************************************************************
------------------------------------------------------------------------------
                           ORCA GTO INTEGRAL CALCULATION
------------------------------------------------------------------------------

                         BASIS SET STATISTICS AND STARTUP INFO

 # of primitive gaussian shells          ...  234
 # of primitive gaussian functions       ...  486
 # of contracted shells                  ...  135
 # of contracted basis functions         ...  333
 Highest angular momentum                ...    3
 Maximum contraction depth               ...    6
 Integral package used                   ... LIBINT
 Integral threshhold            Thresh   ...  2.500e-11
 Primitive cut-off              TCut     ...  2.500e-12


------------------------------ INTEGRAL EVALUATION ----------------------------


 * One electron integrals 
 Pre-screening matrix                    ... done
 Shell pair data                         ... done (   0.002 sec)



           ************************************************************
           *        Program running with 6 parallel MPI-processes     *
           *              working on a common directory               *
           ************************************************************
-------------------------------------------------------------------------------
                                 ORCA SCF
-------------------------------------------------------------------------------

------------
SCF SETTINGS
------------
Hamiltonian:
 Ab initio Hamiltonian  Method          .... Hartree-Fock(GTOs)


General Settings:
 Integral files         IntName         .... 12mecn.remya.etal.2.mol1,4,6-orca.engrad-mp2.def2tzvp.frozencore
 Hartree-Fock type      HFTyp           .... RHF
 Total Charge           Charge          ....    0
 Multiplicity           Mult            ....    1
 Number of Electrons    NEL             ....   66
 Basis Dimension        Dim             ....  333
 Nuclear Repulsion      ENuc            ....    304.4823832078 Eh

Convergence Acceleration:
 DIIS                   CNVDIIS         .... on
   Start iteration      DIISMaxIt       ....    12
   Startup error        DIISStart       ....  0.200000
   # of expansion vecs  DIISMaxEq       ....     5
   Bias factor          DIISBfac        ....   1.050
   Max. coefficient     DIISMaxC        ....  10.000
 Newton-Raphson         CNVNR           .... off
 SOSCF                  CNVSOSCF        .... on
   Start iteration      SOSCFMaxIt      ....   150
   Startup grad/error   SOSCFStart      ....  0.003300
 Level Shifting         CNVShift        .... on
   Level shift para.    LevelShift      ....    0.2500
   Turn off err/grad.   ShiftErr        ....    0.0010
 Zerner damping         CNVZerner       .... off
 Static damping         CNVDamp         .... on
   Fraction old density DampFac         ....    0.7000
   Max. Damping (<1)    DampMax         ....    0.9800
   Min. Damping (>=0)   DampMin         ....    0.0000
   Turn off err/grad.   DampErr         ....    0.1000
 Fernandez-Rico         CNVRico         .... off

SCF Procedure:
 Maximum # iterations   MaxIter         ....   125
 SCF integral mode      SCFMode         .... Direct
   Integral package                     .... LIBINT
 Reset frequency        DirectResetFreq ....    20
 Integral Threshold     Thresh          ....  2.500e-11 Eh
 Primitive CutOff       TCut            ....  2.500e-12 Eh

Convergence Tolerance:
 Convergence Check Mode ConvCheckMode   .... Total+1el-Energy
 Convergence forced     ConvForced      .... 1
 Energy Change          TolE            ....  1.000e-08 Eh
 1-El. energy change                    ....  1.000e-05 Eh
 Orbital Gradient       TolG            ....  1.000e-05
 Orbital Rotation angle TolX            ....  1.000e-05
 DIIS Error             TolErr          ....  5.000e-07


Diagonalization of the overlap matrix:
Smallest eigenvalue                        ... 1.483e-04
Time for diagonalization                   ...    0.016 sec
Threshold for overlap eigenvalues          ... 1.000e-08
Number of eigenvalues below threshold      ... 0
Time for construction of square roots      ...    0.008 sec
Total time needed                          ...    0.024 sec

-------------------
DFT GRID GENERATION
-------------------

General Integration Accuracy     IntAcc      ...  4.340
Radial Grid Type                 RadialGrid  ... Gauss-Chebyshev
Angular Grid (max. acc.)         AngularGrid ... Lebedev-110
Angular grid pruning method      GridPruning ... 3 (G Style)
Weight generation scheme         WeightScheme... Becke
Basis function cutoff            BFCut       ...    1.0000e-11
Integration weight cutoff        WCut        ...    1.0000e-14
Grids for H and He will be reduced by one unit

# of grid points (after initial pruning)     ...  22188 (   0.0 sec)
# of grid points (after weights+screening)   ...  21055 (   0.0 sec)
nearest neighbour list constructed           ...    0.0 sec
Grid point re-assignment to atoms done       ...    0.0 sec
Grid point division into batches done        ...    0.0 sec
Reduced shell lists constructed in    0.0 sec

Total number of grid points                  ...    21055
Total number of batches                      ...      337
Average number of points per batch           ...       62
Average number of grid points per atom       ...     1170
Average number of shells per batch           ...    56.41 (41.79%)
Average number of basis functions per batch  ...   138.79 (41.68%)
Average number of large shells per batch     ...    43.24 (76.65%)
Average number of large basis fcns per batch ...   103.86 (74.83%)
Maximum spatial batch extension              ...  22.47, 21.06, 19.63 au
Average spatial batch extension              ...   0.78,  0.82,  0.82 au

Time for grid setup =    0.069 sec

------------------------------
INITIAL GUESS: MODEL POTENTIAL
------------------------------
Loading Hartree-Fock densities                     ... done
Calculating cut-offs                               ... done
Setting up the integral package                    ... done
Initializing the effective Hamiltonian             ... done
Starting the Coulomb interaction                   ... done (   0.0 sec)
Reading the grid                                   ... done
Mapping shells                                     ... done
Starting the XC term evaluation                    ... done (   0.0 sec)
Transforming the Hamiltonian                       ... done (   0.0 sec)
Diagonalizing the Hamiltonian                      ... done (   0.0 sec)
Back transforming the eigenvectors                 ... done (   0.0 sec)
Now organizing SCF variables                       ... done
                      ------------------
                      INITIAL GUESS DONE (   0.2 sec)
                      ------------------
--------------
SCF ITERATIONS
--------------
ITER       Energy         Delta-E        Max-DP      RMS-DP      [F,P]     Damp
               ***  Starting incremental Fock matrix formation  ***
  0   -395.4467442683   0.000000000000 0.03771687  0.00084551  0.2817569 0.7000
  1   -395.6190446471  -0.172300378794 0.02702263  0.00066773  0.1878351 0.7000
                               ***Turning on DIIS***
  2   -395.7203817884  -0.101337141377 0.01611817  0.00044318  0.1420786 0.7000
  3   -396.6775293633  -0.957147574897 0.01073269  0.00029208  0.1055759 0.7000
  4   -396.6214826977   0.056046665683 0.02902484  0.00071264  0.0743840 0.0000
  5   -395.9570302037   0.664452493982 0.00615267  0.00011317  0.0061098 0.0000
                      *** Initiating the SOSCF procedure ***
                           *** Shutting down DIIS ***
                      *** Re-Reading the Fockian *** 
                      *** Removing any level shift *** 
ITER      Energy       Delta-E        Grad      Rot      Max-DP    RMS-DP
  6   -395.93872110   0.0183091053  0.001259  0.001259  0.004298  0.000070
               *** Restarting incremental Fock matrix formation ***
  7   -395.92946636   0.0092547356  0.000509  0.000811  0.002919  0.000049
  8   -395.92948576  -0.0000193928  0.000358  0.000544  0.002511  0.000042
  9   -395.92949035  -0.0000045980  0.000123  0.000148  0.000763  0.000012
 10   -395.92949100  -0.0000006427  0.000023  0.000038  0.000086  0.000001
 11   -395.92949102  -0.0000000245  0.000016  0.000044  0.000047  0.000001
 12   -395.92949103  -0.0000000114  0.000007  0.000010  0.000034  0.000000
 13   -395.92949103  -0.0000000018  0.000005  0.000007  0.000013  0.000000
                  ***Gradient check signals convergence***
              ***Rediagonalizing the Fockian in SOSCF/NRSCF***

               *****************************************************
               *                     SUCCESS                       *
               *           SCF CONVERGED AFTER  14 CYCLES          *
               *****************************************************


----------------
TOTAL SCF ENERGY
----------------

Total Energy       :         -395.92949104 Eh          -10773.78918 eV

Components:
Nuclear Repulsion  :          304.48238321 Eh            8285.38687 eV
Electronic Energy  :         -700.41187424 Eh          -19059.17605 eV
One Electron Energy:        -1138.01510618 Eh          -30966.96537 eV
Two Electron Energy:          437.60323194 Eh           11907.78932 eV

Virial components:
Potential Energy   :         -791.08711286 Eh          -21526.57473 eV
Kinetic Energy     :          395.15762182 Eh           10752.78555 eV
Virial Ratio       :            2.00195332


---------------
SCF CONVERGENCE
---------------

  Last Energy change         ...   -2.0060e-09  Tolerance :   1.0000e-08
  Last MAX-Density change    ...    3.2585e-06  Tolerance :   1.0000e-07
  Last RMS-Density change    ...    5.2692e-08  Tolerance :   5.0000e-09
  Last Orbital Gradient      ...    1.6197e-06  Tolerance :   1.0000e-05
  Last Orbital Rotation      ...    4.1156e-06  Tolerance :   1.0000e-05

             **** THE GBW FILE WAS UPDATED (12mecn.remya.etal.2.mol1,4,6-orca.engrad-mp2.def2tzvp.frozencore.gbw) ****
             **** DENSITY FILE WAS UPDATED (12mecn.remya.etal.2.mol1,4,6-orca.engrad-mp2.def2tzvp.frozencore.scfp) ****
             **** ENERGY FILE WAS UPDATED (12mecn.remya.etal.2.mol1,4,6-orca.engrad-mp2.def2tzvp.frozencore.en.tmp) ****
             **** THE GBW FILE WAS UPDATED (12mecn.remya.etal.2.mol1,4,6-orca.engrad-mp2.def2tzvp.frozencore.gbw) ****
             **** DENSITY FILE WAS UPDATED (12mecn.remya.etal.2.mol1,4,6-orca.engrad-mp2.def2tzvp.frozencore.scfp) ****
----------------
ORBITAL ENERGIES
----------------

  NO   OCC          E(Eh)            E(eV) 
   0   2.0000     -15.572942      -423.7613 
   1   2.0000     -15.571857      -423.7318 
   2   2.0000     -15.570872      -423.7050 
   3   2.0000     -11.283757      -307.0466 
   4   2.0000     -11.283658      -307.0439 
   5   2.0000     -11.283034      -307.0270 
   6   2.0000     -11.280177      -306.9492 
   7   2.0000     -11.272690      -306.7455 
   8   2.0000     -11.270018      -306.6728 
   9   2.0000      -1.218127       -33.1469 
  10   2.0000      -1.214719       -33.0542 
  11   2.0000      -1.213974       -33.0339 
  12   2.0000      -1.043054       -28.3830 
  13   2.0000      -1.036961       -28.2171 
  14   2.0000      -1.033436       -28.1212 
  15   2.0000      -0.700492       -19.0614 
  16   2.0000      -0.694914       -18.9096 
  17   2.0000      -0.689403       -18.7596 
  18   2.0000      -0.631923       -17.1955 
  19   2.0000      -0.630128       -17.1466 
  20   2.0000      -0.629062       -17.1176 
  21   2.0000      -0.625165       -17.0116 
  22   2.0000      -0.621686       -16.9169 
  23   2.0000      -0.613253       -16.6875 
  24   2.0000      -0.559392       -15.2218 
  25   2.0000      -0.556153       -15.1337 
  26   2.0000      -0.556103       -15.1323 
  27   2.0000      -0.460309       -12.5256 
  28   2.0000      -0.458584       -12.4787 
  29   2.0000      -0.458073       -12.4648 
  30   2.0000      -0.457453       -12.4479 
  31   2.0000      -0.457014       -12.4360 
  32   2.0000      -0.455949       -12.4070 
  33   0.0000       0.120002         3.2654 
  34   0.0000       0.128627         3.5001 
  35   0.0000       0.143572         3.9068 
  36   0.0000       0.168868         4.5951 
  37   0.0000       0.171802         4.6750 
  38   0.0000       0.172689         4.6991 
  39   0.0000       0.173356         4.7172 
  40   0.0000       0.179361         4.8807 
  41   0.0000       0.197073         5.3626 
  42   0.0000       0.202863         5.5202 
  43   0.0000       0.208955         5.6860 
  44   0.0000       0.216231         5.8840 
  45   0.0000       0.224869         6.1190 
  46   0.0000       0.225112         6.1256 
  47   0.0000       0.228706         6.2234 
  48   0.0000       0.231308         6.2942 
  49   0.0000       0.258134         7.0242 
  50   0.0000       0.264914         7.2087 
  51   0.0000       0.271559         7.3895 
  52   0.0000       0.282128         7.6771 
  53   0.0000       0.313426         8.5287 
  54   0.0000       0.320487         8.7209 
  55   0.0000       0.322180         8.7670 
  56   0.0000       0.325201         8.8492 
  57   0.0000       0.326284         8.8786 
  58   0.0000       0.333758         9.0820 
  59   0.0000       0.351478         9.5642 
  60   0.0000       0.381729        10.3874 
  61   0.0000       0.381934        10.3930 
  62   0.0000       0.386612        10.5203 
  63   0.0000       0.400126        10.8880 
  64   0.0000       0.408514        11.1162 
  65   0.0000       0.419591        11.4176 
  66   0.0000       0.453458        12.3392 
  67   0.0000       0.469498        12.7757 
  68   0.0000       0.479222        13.0403 
  69   0.0000       0.492100        13.3907 
  70   0.0000       0.497979        13.5507 
  71   0.0000       0.527234        14.3468 
  72   0.0000       0.531273        14.4567 
  73   0.0000       0.552867        15.0443 
  74   0.0000       0.559438        15.2231 
  75   0.0000       0.588658        16.0182 
  76   0.0000       0.598080        16.2746 
  77   0.0000       0.599595        16.3158 
  78   0.0000       0.601348        16.3635 
  79   0.0000       0.603961        16.4346 
  80   0.0000       0.609364        16.5816 
  81   0.0000       0.616927        16.7874 
  82   0.0000       0.638292        17.3688 
  83   0.0000       0.659121        17.9356 
  84   0.0000       0.659378        17.9426 
  85   0.0000       0.660018        17.9600 
  86   0.0000       0.668589        18.1932 
  87   0.0000       0.677026        18.4228 
  88   0.0000       0.696582        18.9550 
  89   0.0000       0.706859        19.2346 
  90   0.0000       0.729385        19.8476 
  91   0.0000       0.743689        20.2368 
  92   0.0000       0.753719        20.5097 
  93   0.0000       0.792488        21.5647 
  94   0.0000       0.807328        21.9685 
  95   0.0000       0.809350        22.0235 
  96   0.0000       0.812232        22.1019 
  97   0.0000       0.813308        22.1312 
  98   0.0000       0.817042        22.2328 
  99   0.0000       0.850686        23.1483 
 100   0.0000       0.856557        23.3081 
 101   0.0000       0.915107        24.9013 
 102   0.0000       0.918102        24.9828 
 103   0.0000       0.920568        25.0499 
 104   0.0000       0.930291        25.3145 
 105   0.0000       0.932983        25.3878 
 106   0.0000       0.968671        26.3589 
 107   0.0000       1.032317        28.0908 
 108   0.0000       1.033711        28.1287 
 109   0.0000       1.058463        28.8022 
 110   0.0000       1.095003        29.7966 
 111   0.0000       1.124856        30.6089 
 112   0.0000       1.125609        30.6294 
 113   0.0000       1.131061        30.7777 
 114   0.0000       1.141427        31.0598 
 115   0.0000       1.149225        31.2720 
 116   0.0000       1.177041        32.0289 
 117   0.0000       1.322936        35.9989 
 118   0.0000       1.337137        36.3853 
 119   0.0000       1.338567        36.4243 
 120   0.0000       1.389230        37.8029 
 121   0.0000       1.420060        38.6418 
 122   0.0000       1.420180        38.6451 
 123   0.0000       1.423731        38.7417 
 124   0.0000       1.429169        38.8897 
 125   0.0000       1.443215        39.2719 
 126   0.0000       1.449331        39.4383 
 127   0.0000       1.456977        39.6464 
 128   0.0000       1.466205        39.8975 
 129   0.0000       1.470857        40.0241 
 130   0.0000       1.471414        40.0392 
 131   0.0000       1.474824        40.1320 
 132   0.0000       1.486302        40.4443 
 133   0.0000       1.495158        40.6853 
 134   0.0000       1.509542        41.0767 
 135   0.0000       1.519583        41.3500 
 136   0.0000       1.529772        41.6272 
 137   0.0000       1.561541        42.4917 
 138   0.0000       1.693059        46.0705 
 139   0.0000       1.698044        46.2061 
 140   0.0000       1.698413        46.2162 
 141   0.0000       1.720644        46.8211 
 142   0.0000       1.733371        47.1674 
 143   0.0000       1.739498        47.3341 
 144   0.0000       1.750364        47.6298 
 145   0.0000       1.762322        47.9552 
 146   0.0000       1.763842        47.9966 
 147   0.0000       1.765462        48.0407 
 148   0.0000       1.786509        48.6134 
 149   0.0000       1.788555        48.6690 
 150   0.0000       1.798556        48.9412 
 151   0.0000       1.801666        49.0258 
 152   0.0000       1.818821        49.4926 
 153   0.0000       1.824466        49.6463 
 154   0.0000       1.837314        49.9959 
 155   0.0000       1.866275        50.7839 
 156   0.0000       1.934263        52.6340 
 157   0.0000       1.936039        52.6823 
 158   0.0000       1.938331        52.7447 
 159   0.0000       1.944531        52.9134 
 160   0.0000       1.971890        53.6578 
 161   0.0000       1.973230        53.6943 
 162   0.0000       1.976932        53.7950 
 163   0.0000       2.013612        54.7932 
 164   0.0000       2.035577        55.3909 
 165   0.0000       2.218120        60.3581 
 166   0.0000       2.225701        60.5644 
 167   0.0000       2.234128        60.7937 
 168   0.0000       2.237393        60.8826 
 169   0.0000       2.253140        61.3111 
 170   0.0000       2.253825        61.3297 
 171   0.0000       2.262247        61.5589 
 172   0.0000       2.269705        61.7618 
 173   0.0000       2.302687        62.6593 
 174   0.0000       2.341816        63.7241 
 175   0.0000       2.365383        64.3654 
 176   0.0000       2.369322        64.4725 
 177   0.0000       2.543255        69.2055 
 178   0.0000       2.550097        69.3917 
 179   0.0000       2.553617        69.4875 
 180   0.0000       2.560187        69.6662 
 181   0.0000       2.575969        70.0957 
 182   0.0000       2.579175        70.1829 
 183   0.0000       2.580740        70.2255 
 184   0.0000       2.596388        70.6513 
 185   0.0000       2.616170        71.1896 
 186   0.0000       2.621628        71.3381 
 187   0.0000       2.627241        71.4908 
 188   0.0000       2.631851        71.6163 
 189   0.0000       2.638259        71.7907 
 190   0.0000       2.649806        72.1049 
 191   0.0000       2.675251        72.7973 
 192   0.0000       2.703018        73.5529 
 193   0.0000       2.710868        73.7665 
 194   0.0000       2.740722        74.5788 
 195   0.0000       2.745205        74.7008 
 196   0.0000       2.747738        74.7698 
 197   0.0000       2.752880        74.9097 
 198   0.0000       2.760689        75.1222 
 199   0.0000       2.765199        75.2449 
 200   0.0000       2.812563        76.5337 
 201   0.0000       2.910047        79.1864 
 202   0.0000       2.913361        79.2766 
 203   0.0000       2.913483        79.2799 
 204   0.0000       2.913945        79.2925 
 205   0.0000       2.915680        79.3397 
 206   0.0000       2.922823        79.5340 
 207   0.0000       2.945166        80.1420 
 208   0.0000       2.952024        80.3287 
 209   0.0000       2.955852        80.4328 
 210   0.0000       2.957554        80.4791 
 211   0.0000       2.965053        80.6832 
 212   0.0000       3.002046        81.6898 
 213   0.0000       3.028229        82.4023 
 214   0.0000       3.035568        82.6020 
 215   0.0000       3.049618        82.9843 
 216   0.0000       3.088113        84.0318 
 217   0.0000       3.092443        84.1496 
 218   0.0000       3.095003        84.2193 
 219   0.0000       3.100976        84.3818 
 220   0.0000       3.103013        84.4373 
 221   0.0000       3.151784        85.7644 
 222   0.0000       3.216814        87.5340 
 223   0.0000       3.233080        87.9766 
 224   0.0000       3.237500        88.0968 
 225   0.0000       3.244282        88.2814 
 226   0.0000       3.247568        88.3708 
 227   0.0000       3.255886        88.5972 
 228   0.0000       3.264388        88.8285 
 229   0.0000       3.269658        88.9719 
 230   0.0000       3.309337        90.0516 
 231   0.0000       3.327965        90.5585 
 232   0.0000       3.332123        90.6717 
 233   0.0000       3.335852        90.7732 
 234   0.0000       3.348819        91.1260 
 235   0.0000       3.364605        91.5556 
 236   0.0000       3.402469        92.5859 
 237   0.0000       3.438300        93.5609 
 238   0.0000       3.443855        93.7121 
 239   0.0000       3.446943        93.7961 
 240   0.0000       3.451879        93.9304 
 241   0.0000       3.464758        94.2808 
 242   0.0000       3.485038        94.8327 
 243   0.0000       3.486579        94.8746 
 244   0.0000       3.545640        96.4818 
 245   0.0000       3.547883        96.5428 
 246   0.0000       3.633997        98.8861 
 247   0.0000       3.649637        99.3117 
 248   0.0000       3.659963        99.5927 
 249   0.0000       3.666978        99.7835 
 250   0.0000       3.671745        99.9133 
 251   0.0000       3.674813        99.9967 
 252   0.0000       3.799694       103.3949 
 253   0.0000       3.800827       103.4258 
 254   0.0000       3.803959       103.5110 
 255   0.0000       3.807961       103.6199 
 256   0.0000       3.810972       103.7018 
 257   0.0000       3.860966       105.0622 
 258   0.0000       3.924913       106.8023 
 259   0.0000       3.940797       107.2345 
 260   0.0000       3.948856       107.4538 
 261   0.0000       3.949400       107.4686 
 262   0.0000       3.958699       107.7217 
 263   0.0000       3.960167       107.7616 
 264   0.0000       3.960595       107.7733 
 265   0.0000       3.970120       108.0325 
 266   0.0000       3.980870       108.3250 
 267   0.0000       4.248124       115.5973 
 268   0.0000       4.250625       115.6654 
 269   0.0000       4.253387       115.7405 
 270   0.0000       4.255218       115.7904 
 271   0.0000       4.256179       115.8165 
 272   0.0000       4.302177       117.0682 
 273   0.0000       4.339717       118.0897 
 274   0.0000       4.341990       118.1515 
 275   0.0000       4.343254       118.1860 
 276   0.0000       4.346911       118.2855 
 277   0.0000       4.347065       118.2896 
 278   0.0000       4.353108       118.4541 
 279   0.0000       4.560161       124.0883 
 280   0.0000       4.582311       124.6910 
 281   0.0000       4.588506       124.8596 
 282   0.0000       4.741776       129.0303 
 283   0.0000       4.745501       129.1316 
 284   0.0000       4.755594       129.4063 
 285   0.0000       4.758324       129.4806 
 286   0.0000       4.769147       129.7751 
 287   0.0000       4.793543       130.4389 
 288   0.0000       4.836217       131.6002 
 289   0.0000       4.858069       132.1948 
 290   0.0000       4.864151       132.3603 
 291   0.0000       4.960368       134.9785 
 292   0.0000       4.962351       135.0324 
 293   0.0000       4.962744       135.0431 
 294   0.0000       4.968672       135.2044 
 295   0.0000       4.980433       135.5245 
 296   0.0000       5.007666       136.2655 
 297   0.0000       5.061918       137.7418 
 298   0.0000       5.068593       137.9234 
 299   0.0000       5.069788       137.9559 
 300   0.0000       5.075554       138.1129 
 301   0.0000       5.076290       138.1329 
 302   0.0000       5.097416       138.7077 
 303   0.0000       5.199562       141.4873 
 304   0.0000       5.210742       141.7915 
 305   0.0000       5.220602       142.0598 
 306   0.0000       5.556806       151.2084 
 307   0.0000       5.557736       151.2337 
 308   0.0000       5.558279       151.2484 
 309   0.0000       5.559690       151.2868 
 310   0.0000       5.587692       152.0488 
 311   0.0000       5.588141       152.0610 
 312   0.0000       6.023328       163.9031 
 313   0.0000       6.024807       163.9433 
 314   0.0000       6.025021       163.9492 
 315   0.0000       6.081098       165.4751 
 316   0.0000       6.084009       165.5543 
 317   0.0000       6.087681       165.6542 
 318   0.0000       6.088117       165.6661 
 319   0.0000       6.094907       165.8508 
 320   0.0000       6.171201       167.9269 
 321   0.0000       6.466858       175.9721 
 322   0.0000       6.468614       176.0199 
 323   0.0000       6.482921       176.4093 
 324   0.0000      23.474583       638.7759 
 325   0.0000      23.488706       639.1602 
 326   0.0000      23.494718       639.3238 
 327   0.0000      24.380172       663.4182 
 328   0.0000      24.385292       663.5575 
 329   0.0000      24.399933       663.9559 
 330   0.0000      33.392504       908.6562 
 331   0.0000      33.427960       909.6210 
 332   0.0000      33.465143       910.6328 

                    ********************************
                    * MULLIKEN POPULATION ANALYSIS *
                    ********************************

-----------------------
MULLIKEN ATOMIC CHARGES
-----------------------
   0 C :   -0.178255
   1 H :    0.149436
   2 H :    0.197313
   3 H :    0.149811
   4 C :   -0.054676
   5 N :   -0.263434
   6 C :   -0.174757
   7 H :    0.151219
   8 H :    0.151124
   9 H :    0.197389
  10 C :   -0.055960
  11 N :   -0.269203
  12 C :   -0.167648
  13 H :    0.155252
  14 H :    0.155858
  15 H :    0.159796
  16 C :   -0.104954
  17 N :   -0.198309
Sum of atomic charges:    0.0000000

--------------------------------
MULLIKEN REDUCED ORBITAL CHARGES
--------------------------------
  0 C s       :     3.155932  s :     3.155932
      pz      :     0.778229  p :     2.957709
      px      :     1.108300
      py      :     1.071180
      dz2     :     0.017847  d :     0.061135
      dxz     :     0.010985
      dyz     :     0.010458
      dx2y2   :     0.010589
      dxy     :     0.011256
      f0      :     0.001748  f :     0.003479
      f+1     :     0.000198
      f-1     :     0.000183
      f+2     :     0.000047
      f-2     :     0.000076
      f+3     :     0.000494
      f-3     :     0.000733
  1 H s       :     0.828199  s :     0.828199
      pz      :     0.004852  p :     0.022366
      px      :     0.004227
      py      :     0.013286
  2 H s       :     0.779468  s :     0.779468
      pz      :     0.004548  p :     0.023219
      px      :     0.014109
      py      :     0.004562
  3 H s       :     0.827813  s :     0.827813
      pz      :     0.005027  p :     0.022376
      px      :     0.008784
      py      :     0.008565
  4 C s       :     3.245898  s :     3.245898
      pz      :     0.955668  p :     2.675304
      px      :     0.851053
      py      :     0.868583
      dz2     :     0.024758  d :     0.116090
      dxz     :     0.045918
      dyz     :     0.044574
      dx2y2   :     0.000512
      dxy     :     0.000328
      f0      :     0.004052  f :     0.017383
      f+1     :     0.006690
      f-1     :     0.006569
      f+2     :     0.000036
      f-2     :     0.000031
      f+3     :     0.000003
      f-3     :     0.000001
  5 N s       :     3.741102  s :     3.741102
      pz      :     1.276193  p :     3.465984
      px      :     1.102231
      py      :     1.087560
      dz2     :     0.011081  d :     0.053411
      dxz     :     0.021100
      dyz     :     0.021100
      dx2y2   :     0.000101
      dxy     :     0.000029
      f0      :     0.000617  f :     0.002937
      f+1     :     0.001151
      f-1     :     0.001165
      f+2     :     0.000002
      f-2     :     0.000001
      f+3     :     0.000001
      f-3     :     0.000000
  6 C s       :     3.156691  s :     3.156691
      pz      :     0.774532  p :     2.953982
      px      :     1.103371
      py      :     1.076080
      dz2     :     0.017979  d :     0.060619
      dxz     :     0.010036
      dyz     :     0.010623
      dx2y2   :     0.010278
      dxy     :     0.011703
      f0      :     0.001717  f :     0.003465
      f+1     :     0.000203
      f-1     :     0.000193
      f+2     :     0.000059
      f-2     :     0.000057
      f+3     :     0.000353
      f-3     :     0.000883
  7 H s       :     0.826339  s :     0.826339
      pz      :     0.005213  p :     0.022442
      px      :     0.004057
      py      :     0.013171
  8 H s       :     0.826542  s :     0.826542
      pz      :     0.004805  p :     0.022334
      px      :     0.009230
      py      :     0.008299
  9 H s       :     0.779302  s :     0.779302
      pz      :     0.004370  p :     0.023309
      px      :     0.014103
      py      :     0.004836
 10 C s       :     3.247963  s :     3.247963
      pz      :     0.959062  p :     2.674272
      px      :     0.849329
      py      :     0.865881
      dz2     :     0.024772  d :     0.116357
      dxz     :     0.045772
      dyz     :     0.044795
      dx2y2   :     0.000480
      dxy     :     0.000538
      f0      :     0.004070  f :     0.017368
      f+1     :     0.006634
      f-1     :     0.006533
      f+2     :     0.000054
      f-2     :     0.000073
      f+3     :     0.000003
      f-3     :     0.000002
 11 N s       :     3.736593  s :     3.736593
      pz      :     1.278787  p :     3.476360
      px      :     1.106084
      py      :     1.091489
      dz2     :     0.011145  d :     0.053312
      dxz     :     0.020987
      dyz     :     0.020968
      dx2y2   :     0.000137
      dxy     :     0.000075
      f0      :     0.000624  f :     0.002939
      f+1     :     0.001145
      f-1     :     0.001155
      f+2     :     0.000007
      f-2     :     0.000006
      f+3     :     0.000001
      f-3     :     0.000000
 12 C s       :     3.148224  s :     3.148224
      pz      :     0.793999  p :     2.954032
      px      :     1.081782
      py      :     1.078250
      dz2     :     0.017658  d :     0.061921
      dxz     :     0.011676
      dyz     :     0.011178
      dx2y2   :     0.010092
      dxy     :     0.011317
      f0      :     0.001726  f :     0.003471
      f+1     :     0.000207
      f-1     :     0.000198
      f+2     :     0.000062
      f-2     :     0.000076
      f+3     :     0.000812
      f-3     :     0.000391
 13 H s       :     0.822293  s :     0.822293
      pz      :     0.004669  p :     0.022455
      px      :     0.008226
      py      :     0.009560
 14 H s       :     0.821745  s :     0.821745
      pz      :     0.004938  p :     0.022397
      px      :     0.004790
      py      :     0.012669
 15 H s       :     0.817756  s :     0.817756
      pz      :     0.005138  p :     0.022448
      px      :     0.013119
      py      :     0.004190
 16 C s       :     3.234458  s :     3.234458
      pz      :     0.968939  p :     2.739335
      px      :     0.883701
      py      :     0.886695
      dz2     :     0.026757  d :     0.113831
      dxz     :     0.043613
      dyz     :     0.042685
      dx2y2   :     0.000158
      dxy     :     0.000618
      f0      :     0.004156  f :     0.017329
      f+1     :     0.006516
      f-1     :     0.006508
      f+2     :     0.000057
      f-2     :     0.000092
      f+3     :     0.000000
      f-3     :     0.000000
 17 N s       :     3.715207  s :     3.715207
      pz      :     1.286940  p :     3.425122
      px      :     1.071377
      py      :     1.066804
      dz2     :     0.011718  d :     0.055009
      dxz     :     0.021516
      dyz     :     0.021648
      dx2y2   :     0.000067
      dxy     :     0.000059
      f0      :     0.000632  f :     0.002970
      f+1     :     0.001155
      f-1     :     0.001166
      f+2     :     0.000009
      f-2     :     0.000009
      f+3     :     0.000000
      f-3     :     0.000000


                     *******************************
                     * LOEWDIN POPULATION ANALYSIS *
                     *******************************

----------------------
LOEWDIN ATOMIC CHARGES
----------------------
   0 C :   -0.243252
   1 H :    0.144050
   2 H :    0.151029
   3 H :    0.141799
   4 C :   -0.182825
   5 N :   -0.009790
   6 C :   -0.242456
   7 H :    0.145047
   8 H :    0.143140
   9 H :    0.151172
  10 C :   -0.182853
  11 N :   -0.015060
  12 C :   -0.244678
  13 H :    0.143155
  14 H :    0.142998
  15 H :    0.145892
  16 C :   -0.198002
  17 N :    0.010633

-------------------------------
LOEWDIN REDUCED ORBITAL CHARGES
-------------------------------
  0 C s       :     2.813330  s :     2.813330
      pz      :     1.020397  p :     3.147502
      px      :     1.071619
      py      :     1.055486
      dz2     :     0.079242  d :     0.257251
      dxz     :     0.057780
      dyz     :     0.059860
      dx2y2   :     0.029368
      dxy     :     0.031001
      f0      :     0.007604  f :     0.025168
      f+1     :     0.004966
      f-1     :     0.004979
      f+2     :     0.002059
      f-2     :     0.002299
      f+3     :     0.001317
      f-3     :     0.001944
  1 H s       :     0.795404  s :     0.795404
      pz      :     0.012601  p :     0.060546
      px      :     0.013639
      py      :     0.034305
  2 H s       :     0.784907  s :     0.784907
      pz      :     0.012265  p :     0.064064
      px      :     0.037479
      py      :     0.014320
  3 H s       :     0.797248  s :     0.797248
      pz      :     0.012971  p :     0.060953
      px      :     0.024508
      py      :     0.023474
  4 C s       :     2.840526  s :     2.840526
      pz      :     1.194848  p :     2.824483
      px      :     0.810942
      py      :     0.818693
      dz2     :     0.154425  d :     0.458301
      dxz     :     0.152829
      dyz     :     0.149850
      dx2y2   :     0.000795
      dxy     :     0.000403
      f0      :     0.022907  f :     0.059515
      f+1     :     0.018499
      f-1     :     0.017973
      f+2     :     0.000073
      f-2     :     0.000052
      f+3     :     0.000006
      f-3     :     0.000003
  5 N s       :     3.308164  s :     3.308164
      pz      :     1.495280  p :     3.579201
      px      :     1.044131
      py      :     1.039790
      dz2     :     0.045532  d :     0.108317
      dxz     :     0.031233
      dyz     :     0.031383
      dx2y2   :     0.000141
      dxy     :     0.000028
      f0      :     0.006244  f :     0.014109
      f+1     :     0.003898
      f-1     :     0.003957
      f+2     :     0.000006
      f-2     :     0.000003
      f+3     :     0.000002
      f-3     :     0.000000
  6 C s       :     2.814033  s :     2.814033
      pz      :     1.019595  p :     3.146807
      px      :     1.069943
      py      :     1.057269
      dz2     :     0.079755  d :     0.256454
      dxz     :     0.054829
      dyz     :     0.061141
      dx2y2   :     0.028236
      dxy     :     0.032493
      f0      :     0.007609  f :     0.025161
      f+1     :     0.005176
      f-1     :     0.004806
      f+2     :     0.002222
      f-2     :     0.002068
      f+3     :     0.000948
      f-3     :     0.002332
  7 H s       :     0.794279  s :     0.794279
      pz      :     0.013285  p :     0.060673
      px      :     0.013200
      py      :     0.034188
  8 H s       :     0.796163  s :     0.796163
      pz      :     0.012506  p :     0.060697
      px      :     0.025442
      py      :     0.022749
  9 H s       :     0.784532  s :     0.784532
      pz      :     0.011865  p :     0.064297
      px      :     0.037416
      py      :     0.015015
 10 C s       :     2.841278  s :     2.841278
      pz      :     1.195310  p :     2.822053
      px      :     0.809141
      py      :     0.817603
      dz2     :     0.154273  d :     0.459978
      dxz     :     0.152924
      dyz     :     0.150999
      dx2y2   :     0.000833
      dxy     :     0.000949
      f0      :     0.022812  f :     0.059543
      f+1     :     0.018422
      f-1     :     0.018014
      f+2     :     0.000119
      f-2     :     0.000165
      f+3     :     0.000007
      f-3     :     0.000004
 11 N s       :     3.308366  s :     3.308366
      pz      :     1.494965  p :     3.584894
      px      :     1.047047
      py      :     1.042882
      dz2     :     0.045414  d :     0.107743
      dxz     :     0.030890
      dyz     :     0.031180
      dx2y2   :     0.000174
      dxy     :     0.000084
      f0      :     0.006214  f :     0.014058
      f+1     :     0.003862
      f-1     :     0.003938
      f+2     :     0.000023
      f-2     :     0.000019
      f+3     :     0.000001
      f-3     :     0.000000
 12 C s       :     2.813675  s :     2.813675
      pz      :     1.023818  p :     3.143870
      px      :     1.060943
      py      :     1.059109
      dz2     :     0.077270  d :     0.261824
      dxz     :     0.062387
      dyz     :     0.060918
      dx2y2   :     0.028170
      dxy     :     0.033080
      f0      :     0.007349  f :     0.025308
      f+1     :     0.004989
      f-1     :     0.005152
      f+2     :     0.002456
      f-2     :     0.002114
      f+3     :     0.002192
      f-3     :     0.001057
 13 H s       :     0.795788  s :     0.795788
      pz      :     0.012337  p :     0.061057
      px      :     0.022815
      py      :     0.025906
 14 H s       :     0.796076  s :     0.796076
      pz      :     0.012855  p :     0.060926
      px      :     0.014808
      py      :     0.033263
 15 H s       :     0.793205  s :     0.793205
      pz      :     0.013240  p :     0.060903
      px      :     0.034304
      py      :     0.013359
 16 C s       :     2.839190  s :     2.839190
      pz      :     1.191550  p :     2.851465
      px      :     0.829552
      py      :     0.830363
      dz2     :     0.154108  d :     0.448545
      dxz     :     0.147876
      dyz     :     0.145231
      dx2y2   :     0.000196
      dxy     :     0.001134
      f0      :     0.023001  f :     0.058802
      f+1     :     0.017850
      f-1     :     0.017598
      f+2     :     0.000132
      f-2     :     0.000219
      f+3     :     0.000001
      f-3     :     0.000001
 17 N s       :     3.314058  s :     3.314058
      pz      :     1.494571  p :     3.549644
      px      :     1.029776
      py      :     1.025297
      dz2     :     0.045772  d :     0.111275
      dxz     :     0.032627
      dyz     :     0.032678
      dx2y2   :     0.000104
      dxy     :     0.000094
      f0      :     0.006218  f :     0.014390
      f+1     :     0.004063
      f-1     :     0.004046
      f+2     :     0.000033
      f-2     :     0.000030
      f+3     :     0.000000
      f-3     :     0.000000


                      *****************************
                      * MAYER POPULATION ANALYSIS *
                      *****************************

  NA   - Mulliken gross atomic population
  ZA   - Total nuclear charge
  QA   - Mulliken gross atomic charge
  VA   - Mayer's total valence
  BVA  - Mayer's bonded valence
  FA   - Mayer's free valence

  ATOM       NA         ZA         QA         VA         BVA        FA
  0 C      6.1783     6.0000    -0.1783     3.7854     3.7854    -0.0000
  1 H      0.8506     1.0000     0.1494     0.9638     0.9638     0.0000
  2 H      0.8027     1.0000     0.1973     0.9613     0.9613    -0.0000
  3 H      0.8502     1.0000     0.1498     0.9623     0.9623     0.0000
  4 C      6.0547     6.0000    -0.0547     3.8689     3.8689     0.0000
  5 N      7.2634     7.0000    -0.2634     2.9870     2.9870     0.0000
  6 C      6.1748     6.0000    -0.1748     3.7813     3.7813    -0.0000
  7 H      0.8488     1.0000     0.1512     0.9645     0.9645     0.0000
  8 H      0.8489     1.0000     0.1511     0.9621     0.9621     0.0000
  9 H      0.8026     1.0000     0.1974     0.9606     0.9606     0.0000
 10 C      6.0560     6.0000    -0.0560     3.8747     3.8747    -0.0000
 11 N      7.2692     7.0000    -0.2692     2.9918     2.9918     0.0000
 12 C      6.1676     6.0000    -0.1676     3.8068     3.8068     0.0000
 13 H      0.8447     1.0000     0.1553     0.9620     0.9620     0.0000
 14 H      0.8441     1.0000     0.1559     0.9619     0.9619     0.0000
 15 H      0.8402     1.0000     0.1598     0.9613     0.9613     0.0000
 16 C      6.1050     6.0000    -0.1050     3.9239     3.9239     0.0000
 17 N      7.1983     7.0000    -0.1983     3.0378     3.0378     0.0000

  Mayer bond orders larger than 0.100000
B(  0-C ,  1-H ) :   0.9608 B(  0-C ,  2-H ) :   0.9506 B(  0-C ,  3-H ) :   0.9642 
B(  0-C ,  4-C ) :   0.9245 B(  4-C ,  5-N ) :   2.9520 B(  6-C ,  7-H ) :   0.9597 
B(  6-C ,  8-H ) :   0.9632 B(  6-C ,  9-H ) :   0.9501 B(  6-C , 10-C ) :   0.9241 
B( 10-C , 11-N ) :   2.9564 B( 12-C , 13-H ) :   0.9633 B( 12-C , 14-H ) :   0.9624 
B( 12-C , 15-H ) :   0.9625 B( 12-C , 16-C ) :   0.9296 B( 16-C , 17-N ) :   3.0126 


-------
TIMINGS
-------

Total SCF time: 0 days 0 hours 0 min 33 sec 

Total time                  ....      33.967 sec
Sum of individual times     ....      33.662 sec  ( 99.1%)

Fock matrix formation       ....      33.082 sec  ( 97.4%)
Diagonalization             ....       0.143 sec  (  0.4%)
Density matrix formation    ....       0.022 sec  (  0.1%)
Population analysis         ....       0.027 sec  (  0.1%)
Initial guess               ....       0.168 sec  (  0.5%)
Orbital Transformation      ....       0.000 sec  (  0.0%)
Orbital Orthonormalization  ....       0.000 sec  (  0.0%)
DIIS solution               ....       0.054 sec  (  0.2%)
SOSCF solution              ....       0.098 sec  (  0.3%)


           ************************************************************
           *        Program running with 6 parallel MPI-processes     *
           *              working on a common directory               *
           ************************************************************

------------------------------------------------------------------------------
                                ORCA  MP2 
------------------------------------------------------------------------------

Freezing NCore=18 chemical core electrons
MP2 will be done in the AO integral direct mode
The Q1-step will be done using symmetric double matrices
Dimension of the basis                    ...  333
Memory devoted for MP2                    ... 8000 MB   
Memory needed for all in one shot         ...  566 MB
Number of MOs that can be treated together...   55      
MP2 density construction                  ... relaxed
The MP2 gradient is requested => amplitudes will be stored on disk
Total number of MOs              ...   24
Number of MOs treated per batch  ...    4 
Number of batches necessary      ...    1 
OPERATORS   0/  0 PASS   0
-----------------------------------------------
 MP2 CORRELATION ENERGY   :     -1.530390316 Eh
-----------------------------------------------


---------------------
MP2 DENSITY FORMATION
---------------------

Completing the external part of the density      ... done
Storing the unrelaxed density                    ... done

Calculating G(D)                                 ... done
Completing the Lagrangian                        ... done
Solving the Z-vector equations                   ... 

------------------------------------------------------------------------------
                           ORCA CP-SCF CALCULATION
------------------------------------------------------------------------------

Input orbitals are from        ... 12mecn.remya.etal.2.mol1,4,6-orca.engrad-mp2.def2tzvp.frozencore.gbw
Input Perturbation             ... 12mecn.remya.etal.2.mol1,4,6-orca.engrad-mp2.def2tzvp.frozencore.pin.tmp
Wavefunction output            ... 12mecn.remya.etal.2.mol1,4,6-orca.engrad-mp2.def2tzvp.frozencore.pout.tmp
Perturbation mode              ... Real perturbation (singlet)
Solver                         ... POPLE
Max. number of iterations      ... 128
Convergence tolerance          ... 1.000e-08
Integral handling              ... Direct
Number of perturbations        ... 1
Number of operators            ... 1
Orbital ranges used for CP-SCF:
 Operator 0:  Orbitals   0... 32  to  33...332
Variables per vector in CP-SCF ... 9900
Number of vectors sought       ... 1
     CP-SCF ITERATION   0: 
     CP-SCF ITERATION   1:      0.001523777675
     CP-SCF ITERATION   2:      0.000262931358
     CP-SCF ITERATION   3:      0.000009715866
     CP-SCF ITERATION   4:      0.000002132125
     CP-SCF ITERATION   5:      0.000001018911
     CP-SCF ITERATION   6:      0.000000131205
     CP-SCF ITERATION   7:      0.000000013735
     CP-SCF ITERATION   8:      0.000000000880
                                                 ... done
Finalizing the relaxed density                   ... done
Transforming P to the AO basis                   ... done
Storing the relaxed density                      ... done

------------------------------------
ENERGY WEIGHTED DENSITY FINALIZATION
------------------------------------

Gathering the parts of the W-matrix              ...                                                      done
Forming the Z-density                            ... done
Transforming Z to the AO basis                   ... done
Calculating G(Z)                                 ... done
Finalizing the W-matrix                          ...                                                      done
Transforming W to the AO basis and storing       ... done

                *********************************************
                * UNRELAXED MP2 DENSITY POPULATION ANALYSIS *
                *********************************************

------------------------------------------------------------------------------
                           ORCA POPULATION ANALYSIS
------------------------------------------------------------------------------
Input electron density              ... 12mecn.remya.etal.2.mol1,4,6-orca.engrad-mp2.def2tzvp.frozencore.pmp2ur
BaseName (.gbw .S,...)              ... 12mecn.remya.etal.2.mol1,4,6-orca.engrad-mp2.def2tzvp.frozencore

                    ********************************
                    * MULLIKEN POPULATION ANALYSIS *
                    ********************************

-----------------------
MULLIKEN ATOMIC CHARGES
-----------------------
   0 C :   -0.190678
   1 H :    0.152120
   2 H :    0.199097
   3 H :    0.152493
   4 C :   -0.065254
   5 N :   -0.247578
   6 C :   -0.187199
   7 H :    0.153915
   8 H :    0.153809
   9 H :    0.199185
  10 C :   -0.066790
  11 N :   -0.253115
  12 C :   -0.180875
  13 H :    0.157832
  14 H :    0.158434
  15 H :    0.162346
  16 C :   -0.113748
  17 N :   -0.183994
Sum of atomic charges:    0.0000000

--------------------------------
MULLIKEN REDUCED ORBITAL CHARGES
--------------------------------
  0 C s       :     3.154134  s :     3.154134
      pz      :     0.777138  p :     2.942260
      px      :     1.100624
      py      :     1.064498
      dz2     :     0.020318  d :     0.086934
      dxz     :     0.017145
      dyz     :     0.016559
      dx2y2   :     0.016129
      dxy     :     0.016784
      f0      :     0.002143  f :     0.007350
      f+1     :     0.000865
      f-1     :     0.000852
      f+2     :     0.000590
      f-2     :     0.000617
      f+3     :     0.001034
      f-3     :     0.001249
  1 H s       :     0.822687  s :     0.822687
      pz      :     0.005850  p :     0.025193
      px      :     0.005265
      py      :     0.014079
  2 H s       :     0.775002  s :     0.775002
      pz      :     0.005529  p :     0.025901
      px      :     0.014822
      py      :     0.005550
  3 H s       :     0.822287  s :     0.822287
      pz      :     0.006023  p :     0.025220
      px      :     0.009710
      py      :     0.009487
  4 C s       :     3.245052  s :     3.245052
      pz      :     0.946601  p :     2.668488
      px      :     0.852604
      py      :     0.869283
      dz2     :     0.027173  d :     0.131383
      dxz     :     0.047880
      dyz     :     0.046582
      dx2y2   :     0.004953
      dxy     :     0.004794
      f0      :     0.004520  f :     0.020330
      f+1     :     0.007116
      f-1     :     0.007006
      f+2     :     0.000593
      f-2     :     0.000586
      f+3     :     0.000256
      f-3     :     0.000254
  5 N s       :     3.728705  s :     3.728705
      pz      :     1.263853  p :     3.437036
      px      :     1.093552
      py      :     1.079631
      dz2     :     0.015388  d :     0.076167
      dxz     :     0.025344
      dyz     :     0.025259
      dx2y2   :     0.005129
      dxy     :     0.005048
      f0      :     0.001047  f :     0.005669
      f+1     :     0.001601
      f-1     :     0.001613
      f+2     :     0.000421
      f-2     :     0.000419
      f+3     :     0.000284
      f-3     :     0.000283
  6 C s       :     3.154880  s :     3.154880
      pz      :     0.773511  p :     2.938567
      px      :     1.095727
      py      :     1.069329
      dz2     :     0.020442  d :     0.086415
      dxz     :     0.016225
      dyz     :     0.016673
      dx2y2   :     0.015863
      dxy     :     0.017212
      f0      :     0.002117  f :     0.007338
      f+1     :     0.000866
      f-1     :     0.000859
      f+2     :     0.000600
      f-2     :     0.000600
      f+3     :     0.000909
      f-3     :     0.001387
  7 H s       :     0.820829  s :     0.820829
      pz      :     0.006196  p :     0.025256
      px      :     0.005096
      py      :     0.013965
  8 H s       :     0.821020  s :     0.821020
      pz      :     0.005806  p :     0.025171
      px      :     0.010141
      py      :     0.009223
  9 H s       :     0.774829  s :     0.774829
      pz      :     0.005357  p :     0.025987
      px      :     0.014815
      py      :     0.005815
 10 C s       :     3.247031  s :     3.247031
      pz      :     0.950043  p :     2.667814
      px      :     0.851039
      py      :     0.866731
      dz2     :     0.027196  d :     0.131630
      dxz     :     0.047739
      dyz     :     0.046801
      dx2y2   :     0.004908
      dxy     :     0.004986
      f0      :     0.004538  f :     0.020315
      f+1     :     0.007060
      f-1     :     0.006969
      f+2     :     0.000610
      f-2     :     0.000627
      f+3     :     0.000256
      f-3     :     0.000254
 11 N s       :     3.724210  s :     3.724210
      pz      :     1.266457  p :     3.447114
      px      :     1.097247
      py      :     1.083410
      dz2     :     0.015464  d :     0.076119
      dxz     :     0.025243
      dyz     :     0.025144
      dx2y2   :     0.005169
      dxy     :     0.005100
      f0      :     0.001054  f :     0.005672
      f+1     :     0.001596
      f-1     :     0.001604
      f+2     :     0.000426
      f-2     :     0.000424
      f+3     :     0.000285
      f-3     :     0.000284
 12 C s       :     3.146624  s :     3.146624
      pz      :     0.792801  p :     2.939452
      px      :     1.075044
      py      :     1.071608
      dz2     :     0.020166  d :     0.087467
      dxz     :     0.017720
      dyz     :     0.017272
      dx2y2   :     0.015580
      dxy     :     0.016730
      f0      :     0.002122  f :     0.007331
      f+1     :     0.000873
      f-1     :     0.000867
      f+2     :     0.000601
      f-2     :     0.000619
      f+3     :     0.001315
      f-3     :     0.000934
 13 H s       :     0.816892  s :     0.816892
      pz      :     0.005670  p :     0.025276
      px      :     0.009153
      py      :     0.010453
 14 H s       :     0.816357  s :     0.816357
      pz      :     0.005928  p :     0.025209
      px      :     0.005804
      py      :     0.013477
 15 H s       :     0.812395  s :     0.812395
      pz      :     0.006121  p :     0.025259
      px      :     0.013918
      py      :     0.005220
 16 C s       :     3.233868  s :     3.233868
      pz      :     0.960093  p :     2.730136
      px      :     0.883629
      py      :     0.886414
      dz2     :     0.029225  d :     0.129452
      dxz     :     0.045708
      dyz     :     0.044805
      dx2y2   :     0.004632
      dxy     :     0.005082
      f0      :     0.004619  f :     0.020293
      f+1     :     0.006958
      f-1     :     0.006950
      f+2     :     0.000609
      f-2     :     0.000644
      f+3     :     0.000256
      f-3     :     0.000256
 17 N s       :     3.702470  s :     3.702470
      pz      :     1.274674  p :     3.398891
      px      :     1.064287
      py      :     1.059930
      dz2     :     0.015903  d :     0.076961
      dxz     :     0.025544
      dyz     :     0.025662
      dx2y2   :     0.004930
      dxy     :     0.004923
      f0      :     0.001058  f :     0.005672
      f+1     :     0.001600
      f-1     :     0.001612
      f+2     :     0.000424
      f-2     :     0.000423
      f+3     :     0.000278
      f-3     :     0.000278


                     *******************************
                     * LOEWDIN POPULATION ANALYSIS *
                     *******************************

----------------------
LOEWDIN ATOMIC CHARGES
----------------------
   0 C :   -0.251247
   1 H :    0.145732
   2 H :    0.152572
   3 H :    0.143472
   4 C :   -0.188831
   5 N :   -0.000683
   6 C :   -0.250436
   7 H :    0.146742
   8 H :    0.144809
   9 H :    0.152718
  10 C :   -0.188974
  11 N :   -0.005873
  12 C :   -0.252742
  13 H :    0.144829
  14 H :    0.144689
  15 H :    0.147551
  16 C :   -0.203218
  17 N :    0.018889

-------------------------------
LOEWDIN REDUCED ORBITAL CHARGES
-------------------------------
  0 C s       :     2.811550  s :     2.811550
      pz      :     1.011878  p :     3.122443
      px      :     1.063121
      py      :     1.047445
      dz2     :     0.084412  d :     0.286042
      dxz     :     0.063816
      dyz     :     0.065792
      dx2y2   :     0.035220
      dxy     :     0.036801
      f0      :     0.008722  f :     0.031211
      f+1     :     0.006038
      f-1     :     0.006044
      f+2     :     0.002726
      f-2     :     0.002975
      f+3     :     0.002022
      f-3     :     0.002685
  1 H s       :     0.788958  s :     0.788958
      pz      :     0.014013  p :     0.065311
      px      :     0.014877
      py      :     0.036421
  2 H s       :     0.778769  s :     0.778769
      pz      :     0.013654  p :     0.068659
      px      :     0.039434
      py      :     0.015571
  3 H s       :     0.790788  s :     0.790788
      pz      :     0.014398  p :     0.065740
      px      :     0.026210
      py      :     0.025133
  4 C s       :     2.837111  s :     2.837111
      pz      :     1.182231  p :     2.807409
      px      :     0.808941
      py      :     0.816238
      dz2     :     0.161721  d :     0.477162
      dxz     :     0.154069
      dyz     :     0.151221
      dx2y2   :     0.005279
      dxy     :     0.004872
      f0      :     0.024529  f :     0.067149
      f+1     :     0.020566
      f-1     :     0.020064
      f+2     :     0.000748
      f-2     :     0.000726
      f+3     :     0.000260
      f-3     :     0.000257
  5 N s       :     3.300394  s :     3.300394
      pz      :     1.479186  p :     3.542786
      px      :     1.033776
      py      :     1.029824
      dz2     :     0.052507  d :     0.138918
      dxz     :     0.038156
      dyz     :     0.038166
      dx2y2   :     0.005114
      dxy     :     0.004975
      f0      :     0.007316  f :     0.018585
      f+1     :     0.004885
      f-1     :     0.004931
      f+2     :     0.000444
      f-2     :     0.000440
      f+3     :     0.000285
      f-3     :     0.000283
  6 C s       :     2.812248  s :     2.812248
      pz      :     1.011085  p :     3.121711
      px      :     1.061440
      py      :     1.049186
      dz2     :     0.084913  d :     0.285270
      dxz     :     0.060867
      dyz     :     0.067084
      dx2y2   :     0.034100
      dxy     :     0.038305
      f0      :     0.008725  f :     0.031208
      f+1     :     0.006252
      f-1     :     0.005867
      f+2     :     0.002893
      f-2     :     0.002738
      f+3     :     0.001634
      f-3     :     0.003099
  7 H s       :     0.787837  s :     0.787837
      pz      :     0.014722  p :     0.065421
      px      :     0.014417
      py      :     0.036282
  8 H s       :     0.789712  s :     0.789712
      pz      :     0.013911  p :     0.065478
      px      :     0.027186
      py      :     0.024382
  9 H s       :     0.778395  s :     0.778395
      pz      :     0.013236  p :     0.068887
      px      :     0.039357
      py      :     0.016294
 10 C s       :     2.837845  s :     2.837845
      pz      :     1.182717  p :     2.805242
      px      :     0.807268
      py      :     0.815257
      dz2     :     0.161528  d :     0.478716
      dxz     :     0.154144
      dyz     :     0.152337
      dx2y2   :     0.005311
      dxy     :     0.005396
      f0      :     0.024441  f :     0.067171
      f+1     :     0.020474
      f-1     :     0.020093
      f+2     :     0.000799
      f-2     :     0.000846
      f+3     :     0.000261
      f-3     :     0.000258
 11 N s       :     3.300624  s :     3.300624
      pz      :     1.478905  p :     3.548307
      px      :     1.036581
      py      :     1.032821
      dz2     :     0.052397  d :     0.138408
      dxz     :     0.037832
      dyz     :     0.037984
      dx2y2   :     0.005155
      dxy     :     0.005041
      f0      :     0.007285  f :     0.018534
      f+1     :     0.004848
      f-1     :     0.004911
      f+2     :     0.000463
      f-2     :     0.000458
      f+3     :     0.000285
      f-3     :     0.000284
 12 C s       :     2.811868  s :     2.811868
      pz      :     1.015338  p :     3.119405
      px      :     1.052933
      py      :     1.051135
      dz2     :     0.082452  d :     0.290147
      dxz     :     0.068255
      dyz     :     0.066766
      dx2y2   :     0.033881
      dxy     :     0.038791
      f0      :     0.008467  f :     0.031322
      f+1     :     0.006045
      f-1     :     0.006210
      f+2     :     0.003133
      f-2     :     0.002789
      f+3     :     0.002939
      f-3     :     0.001739
 13 H s       :     0.789368  s :     0.789368
      pz      :     0.013725  p :     0.065802
      px      :     0.024429
      py      :     0.027648
 14 H s       :     0.789658  s :     0.789658
      pz      :     0.014268  p :     0.065653
      px      :     0.016092
      py      :     0.035294
 15 H s       :     0.786812  s :     0.786812
      pz      :     0.014673  p :     0.065637
      px      :     0.036377
      py      :     0.014588
 16 C s       :     2.835902  s :     2.835902
      pz      :     1.179044  p :     2.832841
      px      :     0.826563
      py      :     0.827233
      dz2     :     0.161398  d :     0.467977
      dxz     :     0.149449
      dyz     :     0.146880
      dx2y2   :     0.004672
      dxy     :     0.005578
      f0      :     0.024617  f :     0.066498
      f+1     :     0.019957
      f-1     :     0.019708
      f+2     :     0.000805
      f-2     :     0.000897
      f+3     :     0.000258
      f-3     :     0.000257
 17 N s       :     3.306246  s :     3.306246
      pz      :     1.478712  p :     3.515199
      px      :     1.020400
      py      :     1.016086
      dz2     :     0.052602  d :     0.140848
      dxz     :     0.039216
      dyz     :     0.039243
      dx2y2   :     0.004899
      dxy     :     0.004889
      f0      :     0.007287  f :     0.018818
      f+1     :     0.005030
      f-1     :     0.005009
      f+2     :     0.000470
      f-2     :     0.000467
      f+3     :     0.000278
      f-3     :     0.000278


                      *****************************
                      * MAYER POPULATION ANALYSIS *
                      *****************************

  NA   - Mulliken gross atomic population
  ZA   - Total nuclear charge
  QA   - Mulliken gross atomic charge
  VA   - Mayer's total valence
  BVA  - Mayer's bonded valence
  FA   - Mayer's free valence

  ATOM       NA         ZA         QA         VA         BVA        FA
  0 C      6.1907     6.0000    -0.1907     3.9035     3.6194     0.2842
  1 H      0.8479     1.0000     0.1521     0.9714     0.9233     0.0481
  2 H      0.8009     1.0000     0.1991     0.9681     0.9210     0.0471
  3 H      0.8475     1.0000     0.1525     0.9700     0.9220     0.0480
  4 C      6.0653     6.0000    -0.0653     3.9695     3.5346     0.4350
  5 N      7.2476     7.0000    -0.2476     3.1920     2.6997     0.4924
  6 C      6.1872     6.0000    -0.1872     3.8995     3.6153     0.2841
  7 H      0.8461     1.0000     0.1539     0.9720     0.9241     0.0479
  8 H      0.8462     1.0000     0.1538     0.9698     0.9217     0.0480
  9 H      0.8008     1.0000     0.1992     0.9674     0.9203     0.0471
 10 C      6.0668     6.0000    -0.0668     3.9754     3.5407     0.4346
 11 N      7.2531     7.0000    -0.2531     3.1974     2.7049     0.4925
 12 C      6.1809     6.0000    -0.1809     3.9245     3.6418     0.2828
 13 H      0.8422     1.0000     0.1578     0.9695     0.9220     0.0475
 14 H      0.8416     1.0000     0.1584     0.9694     0.9220     0.0474
 15 H      0.8377     1.0000     0.1623     0.9687     0.9212     0.0475
 16 C      6.1137     6.0000    -0.1137     4.0250     3.5875     0.4376
 17 N      7.1840     7.0000    -0.1840     3.2335     2.7480     0.4855

  Mayer bond orders larger than 0.100000
B(  0-C ,  1-H ) :   0.9232 B(  0-C ,  2-H ) :   0.9133 B(  0-C ,  3-H ) :   0.9266 
B(  0-C ,  4-C ) :   0.8727 B(  4-C ,  5-N ) :   2.6723 B(  6-C ,  7-H ) :   0.9222 
B(  6-C ,  8-H ) :   0.9257 B(  6-C ,  9-H ) :   0.9127 B(  6-C , 10-C ) :   0.8723 
B( 10-C , 11-N ) :   2.6771 B( 12-C , 13-H ) :   0.9260 B( 12-C , 14-H ) :   0.9252 
B( 12-C , 15-H ) :   0.9251 B( 12-C , 16-C ) :   0.8781 B( 16-C , 17-N ) :   2.7296 



                *******************************************
                * RELAXED MP2 DENSITY POPULATION ANALYSIS *
                *******************************************

------------------------------------------------------------------------------
                           ORCA POPULATION ANALYSIS
------------------------------------------------------------------------------
Input electron density              ... 12mecn.remya.etal.2.mol1,4,6-orca.engrad-mp2.def2tzvp.frozencore.pmp2re
BaseName (.gbw .S,...)              ... 12mecn.remya.etal.2.mol1,4,6-orca.engrad-mp2.def2tzvp.frozencore

                    ********************************
                    * MULLIKEN POPULATION ANALYSIS *
                    ********************************

-----------------------
MULLIKEN ATOMIC CHARGES
-----------------------
   0 C :   -0.285153
   1 H :    0.166660
   2 H :    0.204664
   3 H :    0.166815
   4 C :   -0.101772
   5 N :   -0.150943
   6 C :   -0.281518
   7 H :    0.168428
   8 H :    0.167779
   9 H :    0.204568
  10 C :   -0.105223
  11 N :   -0.154301
  12 C :   -0.281305
  13 H :    0.171736
  14 H :    0.171993
  15 H :    0.175862
  16 C :   -0.145402
  17 N :   -0.092889
Sum of atomic charges:    0.0000000

--------------------------------
MULLIKEN REDUCED ORBITAL CHARGES
--------------------------------
  0 C s       :     3.188630  s :     3.188630
      pz      :     0.823920  p :     3.013088
      px      :     1.110526
      py      :     1.078642
      dz2     :     0.015993  d :     0.076359
      dxz     :     0.017269
      dyz     :     0.016685
      dx2y2   :     0.012977
      dxy     :     0.013435
      f0      :     0.001895  f :     0.007077
      f+1     :     0.000924
      f-1     :     0.000912
      f+2     :     0.000580
      f-2     :     0.000605
      f+3     :     0.000985
      f-3     :     0.001175
  1 H s       :     0.809251  s :     0.809251
      pz      :     0.005884  p :     0.024088
      px      :     0.005427
      py      :     0.012777
  2 H s       :     0.770604  s :     0.770604
      pz      :     0.005635  p :     0.024732
      px      :     0.013480
      py      :     0.005617
  3 H s       :     0.809058  s :     0.809058
      pz      :     0.006023  p :     0.024127
      px      :     0.009183
      py      :     0.008920
  4 C s       :     3.224554  s :     3.224554
      pz      :     0.972270  p :     2.752012
      px      :     0.886676
      py      :     0.893066
      dz2     :     0.022567  d :     0.106238
      dxz     :     0.037445
      dyz     :     0.036523
      dx2y2   :     0.004937
      dxy     :     0.004765
      f0      :     0.004359  f :     0.018968
      f+1     :     0.006500
      f-1     :     0.006429
      f+2     :     0.000589
      f-2     :     0.000582
      f+3     :     0.000255
      f-3     :     0.000254
  5 N s       :     3.678725  s :     3.678725
      pz      :     1.251683  p :     3.399670
      px      :     1.075844
      py      :     1.072143
      dz2     :     0.014304  d :     0.067347
      dxz     :     0.021511
      dyz     :     0.021342
      dx2y2   :     0.005145
      dxy     :     0.005045
[...]
      f+1     :     0.006448
      f-1     :     0.006395
      f+2     :     0.000604
      f-2     :     0.000619
      f+3     :     0.000256
      f-3     :     0.000254
 11 N s       :     3.672952  s :     3.672952
      pz      :     1.254915  p :     3.408800
      px      :     1.078614
      py      :     1.075271
      dz2     :     0.014365  d :     0.067343
      dxz     :     0.021451
      dyz     :     0.021264
      dx2y2   :     0.005173
      dxy     :     0.005089
      f0      :     0.000931  f :     0.005206
      f+1     :     0.001425
      f-1     :     0.001432
      f+2     :     0.000425
      f-2     :     0.000423
      f+3     :     0.000285
      f-3     :     0.000284
 12 C s       :     3.182778  s :     3.182778
      pz      :     0.839289  p :     3.014276
      px      :     1.088769
      py      :     1.086218
      dz2     :     0.015895  d :     0.077173
      dxz     :     0.017813
      dyz     :     0.017455
      dx2y2   :     0.012567
      dxy     :     0.013443
      f0      :     0.001885  f :     0.007077
      f+1     :     0.000933
      f-1     :     0.000928
      f+2     :     0.000590
      f-2     :     0.000609
      f+3     :     0.001235
      f-3     :     0.000896
 13 H s       :     0.804131  s :     0.804131
      pz      :     0.005728  p :     0.024133
      px      :     0.008670
      py      :     0.009734
 14 H s       :     0.803941  s :     0.803941
      pz      :     0.005934  p :     0.024066
      px      :     0.005857
      py      :     0.012275
 15 H s       :     0.800024  s :     0.800024
      pz      :     0.006113  p :     0.024114
      px      :     0.012639
      py      :     0.005361
 16 C s       :     3.213107  s :     3.213107
      pz      :     0.994607  p :     2.808506
      px      :     0.907044
      py      :     0.906855
      dz2     :     0.024414  d :     0.104838
      dxz     :     0.035821
      dyz     :     0.035001
      dx2y2   :     0.004595
      dxy     :     0.005007
      f0      :     0.004432  f :     0.018952
      f+1     :     0.006386
      f-1     :     0.006386
      f+2     :     0.000603
      f-2     :     0.000634
      f+3     :     0.000256
      f-3     :     0.000256
 17 N s       :     3.643383  s :     3.643383
      pz      :     1.265081  p :     3.376321
      px      :     1.056548
      py      :     1.054692
      dz2     :     0.014879  d :     0.067985
      dxz     :     0.021615
      dyz     :     0.021662
      dx2y2   :     0.004917
      dxy     :     0.004912
      f0      :     0.000941  f :     0.005200
      f+1     :     0.001426
      f-1     :     0.001434
      f+2     :     0.000422
      f-2     :     0.000422
      f+3     :     0.000278
      f-3     :     0.000278


                     *******************************
                     * LOEWDIN POPULATION ANALYSIS *
                     *******************************

----------------------
LOEWDIN ATOMIC CHARGES
----------------------
   0 C :   -0.281967
   1 H :    0.152875
   2 H :    0.157041
   3 H :    0.150600
   4 C :   -0.207733
   5 N :    0.030239
   6 C :   -0.281194
   7 H :    0.153815
   8 H :    0.151933
   9 H :    0.157123
  10 C :   -0.208550
  11 N :    0.025822
  12 C :   -0.283495
  13 H :    0.151571
  14 H :    0.151385
  15 H :    0.154214
  16 C :   -0.218467
  17 N :    0.044791

-------------------------------
LOEWDIN REDUCED ORBITAL CHARGES
-------------------------------
  0 C s       :     2.816584  s :     2.816584
      pz      :     1.030591  p :     3.158479
      px      :     1.071079
      py      :     1.056809
      dz2     :     0.076449  d :     0.275470
      dxz     :     0.066060
      dyz     :     0.067305
      dx2y2   :     0.032189
      dxy     :     0.033468
      f0      :     0.008161  f :     0.031435
      f+1     :     0.006535
      f-1     :     0.006463
      f+2     :     0.002713
      f-2     :     0.002959
      f+3     :     0.001981
      f-3     :     0.002623
  1 H s       :     0.781425  s :     0.781425
      pz      :     0.014533  p :     0.065700
      px      :     0.015325
      py      :     0.035842
  2 H s       :     0.774307  s :     0.774307
      pz      :     0.014192  p :     0.068652
      px      :     0.038524
      py      :     0.015936
  3 H s       :     0.783246  s :     0.783246
      pz      :     0.014896  p :     0.066154
      px      :     0.026195
      py      :     0.025062
  4 C s       :     2.841457  s :     2.841457
      pz      :     1.171264  p :     2.839882
      px      :     0.834225
      py      :     0.834394
      dz2     :     0.163868  d :     0.459578
      dxz     :     0.143709
      dyz     :     0.142008
      dx2y2   :     0.005186
      dxy     :     0.004807
      f0      :     0.025600  f :     0.066816
      f+1     :     0.019717
      f-1     :     0.019538
      f+2     :     0.000733
      f-2     :     0.000713
      f+3     :     0.000259
      f-3     :     0.000256
  5 N s       :     3.300950  s :     3.300950
      pz      :     1.466862  p :     3.514358
      px      :     1.022650
      py      :     1.024847
      dz2     :     0.053050  d :     0.135436
      dxz     :     0.036385
      dyz     :     0.035901
      dx2y2   :     0.005127
      dxy     :     0.004973
      f0      :     0.007400  f :     0.019016
      f+1     :     0.005092
      f-1     :     0.005072
      f+2     :     0.000444
      f-2     :     0.000440
      f+3     :     0.000285
      f-3     :     0.000283
  6 C s       :     2.817297  s :     2.817297
      pz      :     1.030051  p :     3.157748
      px      :     1.069321
      py      :     1.058376
      dz2     :     0.076925  d :     0.274716
      dxz     :     0.063269
      dyz     :     0.068461
      dx2y2   :     0.031154
      dxy     :     0.034906
      f0      :     0.008166  f :     0.031433
      f+1     :     0.006752
      f-1     :     0.006278
      f+2     :     0.002881
      f-2     :     0.002726
      f+3     :     0.001605
      f-3     :     0.003025
  7 H s       :     0.780395  s :     0.780395
      pz      :     0.015194  p :     0.065790
      px      :     0.014880
      py      :     0.035716
  8 H s       :     0.782182  s :     0.782182
      pz      :     0.014442  p :     0.065885
      px      :     0.027111
      py      :     0.024333
  9 H s       :     0.774007  s :     0.774007
      pz      :     0.013804  p :     0.068870
      px      :     0.038447
      py      :     0.016619
 10 C s       :     2.842077  s :     2.842077
      pz      :     1.171718  p :     2.838696
      px      :     0.833126
      py      :     0.833852
      dz2     :     0.163582  d :     0.460981
      dxz     :     0.143790
      dyz     :     0.143105
      dx2y2   :     0.005216
      dxy     :     0.005289
      f0      :     0.025502  f :     0.066796
      f+1     :     0.019618
      f-1     :     0.019547
      f+2     :     0.000789
      f-2     :     0.000822
      f+3     :     0.000260
      f-3     :     0.000257
 11 N s       :     3.301198  s :     3.301198
      pz      :     1.466773  p :     3.518970
      px      :     1.024767
      py      :     1.027430
      dz2     :     0.052904  d :     0.135036
      dxz     :     0.036144
      dyz     :     0.035792
      dx2y2   :     0.005159
      dxy     :     0.005036
      f0      :     0.007367  f :     0.018974
      f+1     :     0.005059
      f-1     :     0.005055
      f+2     :     0.000464
      f-2     :     0.000459
      f+3     :     0.000285
      f-3     :     0.000284
 12 C s       :     2.816777  s :     2.816777
      pz      :     1.033400  p :     3.155983
      px      :     1.062182
      py      :     1.060402
      dz2     :     0.074855  d :     0.279205
      dxz     :     0.069789
      dyz     :     0.068307
      dx2y2   :     0.030827
      dxy     :     0.035428
      f0      :     0.007967  f :     0.031530
      f+1     :     0.006472
      f-1     :     0.006629
      f+2     :     0.003119
      f-2     :     0.002771
      f+3     :     0.002868
      f-3     :     0.001705
 13 H s       :     0.782313  s :     0.782313
      pz      :     0.014262  p :     0.066116
      px      :     0.024410
      py      :     0.027445
 14 H s       :     0.782668  s :     0.782668
      pz      :     0.014758  p :     0.065947
      px      :     0.016455
      py      :     0.034734
 15 H s       :     0.779858  s :     0.779858
      pz      :     0.015150  p :     0.065928
      px      :     0.035760
      py      :     0.015018
 16 C s       :     2.841367  s :     2.841367
      pz      :     1.170181  p :     2.858834
      px      :     0.844849
      py      :     0.843804
      dz2     :     0.163461  d :     0.451777
      dxz     :     0.140276
      dyz     :     0.137950
      dx2y2   :     0.004626
      dxy     :     0.005463
      f0      :     0.025597  f :     0.066489
      f+1     :     0.019443
      f-1     :     0.019266
      f+2     :     0.000800
      f-2     :     0.000869
      f+3     :     0.000257
      f-3     :     0.000257
 17 N s       :     3.306385  s :     3.306385
      pz      :     1.465963  p :     3.492870
      px      :     1.014710
      py      :     1.012198
      dz2     :     0.053228  d :     0.136758
      dxz     :     0.036961
      dyz     :     0.036796
      dx2y2   :     0.004890
      dxy     :     0.004883
      f0      :     0.007383  f :     0.019196
      f+1     :     0.005179
      f-1     :     0.005140
      f+2     :     0.000471
      f-2     :     0.000468
      f+3     :     0.000278
      f-3     :     0.000278


                      *****************************
                      * MAYER POPULATION ANALYSIS *
                      *****************************

  NA   - Mulliken gross atomic population
  ZA   - Total nuclear charge
  QA   - Mulliken gross atomic charge
  VA   - Mayer's total valence
  BVA  - Mayer's bonded valence
  FA   - Mayer's free valence

  ATOM       NA         ZA         QA         VA         BVA        FA
  0 C      6.2852     6.0000    -0.2852     3.9087     3.6259     0.2828
  1 H      0.8333     1.0000     0.1667     0.9653     0.9179     0.0474
  2 H      0.7953     1.0000     0.2047     0.9708     0.9243     0.0465
  3 H      0.8332     1.0000     0.1668     0.9638     0.9164     0.0474
  4 C      6.1018     6.0000    -0.1018     4.0848     3.6605     0.4243
  5 N      7.1509     7.0000    -0.1509     3.3032     2.8238     0.4794
  6 C      6.2815     6.0000    -0.2815     3.9058     3.6230     0.2828
  7 H      0.8316     1.0000     0.1684     0.9657     0.9184     0.0473
  8 H      0.8322     1.0000     0.1678     0.9637     0.9163     0.0474
  9 H      0.7954     1.0000     0.2046     0.9703     0.9238     0.0465
 10 C      6.1052     6.0000    -0.1052     4.0922     3.6683     0.4239
 11 N      7.1543     7.0000    -0.1543     3.3100     2.8306     0.4795
 12 C      6.2813     6.0000    -0.2813     3.9289     3.6473     0.2816
 13 H      0.8283     1.0000     0.1717     0.9634     0.9164     0.0470
 14 H      0.8280     1.0000     0.1720     0.9635     0.9167     0.0469
 15 H      0.8241     1.0000     0.1759     0.9624     0.9155     0.0469
 16 C      6.1454     6.0000    -0.1454     4.1494     3.7226     0.4268
 17 N      7.0929     7.0000    -0.0929     3.3477     2.8747     0.4731

  Mayer bond orders larger than 0.100000
B(  0-C ,  1-H ) :   0.9141 B(  0-C ,  2-H ) :   0.9023 B(  0-C ,  3-H ) :   0.9167 
B(  0-C ,  4-C ) :   0.9012 B(  4-C ,  5-N ) :   2.7698 B(  6-C ,  7-H ) :   0.9133 
B(  6-C ,  8-H ) :   0.9157 B(  6-C ,  9-H ) :   0.9017 B(  6-C , 10-C ) :   0.9011 
B( 10-C , 11-N ) :   2.7766 B( 12-C , 13-H ) :   0.9167 B( 12-C , 14-H ) :   0.9160 
B( 12-C , 15-H ) :   0.9158 B( 12-C , 16-C ) :   0.9027 B( 16-C , 17-N ) :   2.8386 



----------------------------------
MP2 DERIVATIVE INTEGRAL GENERATION
----------------------------------


Input Wavefunction Amplitudes       ... 12mecn.remya.etal.2.mol1,4,6-orca.engrad-mp2.def2tzvp.frozencore.mp2tsaa.tmp
Input Correlated Electron Density   ... 12mecn.remya.etal.2.mol1,4,6-orca.engrad-mp2.def2tzvp.frozencore.pmp2re
Input Energy Weighted Density       ... 12mecn.remya.etal.2.mol1,4,6-orca.engrad-mp2.def2tzvp.frozencore.wmp2.tmp
Input SCF Electron Density          ... 12mecn.remya.etal.2.mol1,4,6-orca.engrad-mp2.def2tzvp.frozencore.scfp

One-Electron Terms    ...
                        ... One-Electron Terms done
Prescreening matrices              ... done

Batch handling in the gradient evaluation:
Memory available                      ... 8000.0 MB
Memory per occupied orbital in Q2     ...   20.3 MB
Memory per occupied orbital in Q3     ...    0.1 MB
Total memory requirement per |i>      ...   20.4 MB
Max. Number of orbitals possible      ...    391
Number of orbitals treated per batch  ...     24
Number of batches to be done          ...      1
Batch   0: i=    9 ...    32

---------------------------------------
MP2 TOTAL ENERGY:     -397.459881352 Eh
---------------------------------------

The final MP2 gradient
  0:  -0.00112627   0.00122555  -0.00797898
  1:  -0.00098354   0.00373356  -0.00092337
  2:   0.00105332  -0.00293972   0.00043708
  3:   0.00073402  -0.00241099   0.00052200
  4:   0.00086802   0.00019493   0.00364945
  5:  -0.00044575   0.00008285   0.00382468
  6:  -0.00031149  -0.00190176   0.00744457
  7:   0.00054221  -0.00369658   0.00048610
  8:   0.00100119   0.00289359   0.00068635
  9:  -0.00188689   0.00232723   0.00003202
 10:   0.00002645   0.00053202  -0.00456606
 11:   0.00035081   0.00001994  -0.00362665
 12:   0.00214801  -0.00198577  -0.00768434
 13:   0.00006701   0.00188811   0.00014689
 14:   0.00082884  -0.00236403   0.00045179
 15:  -0.00229571   0.00171073  -0.00084429
 16:  -0.00071107   0.00069261   0.00331706
 17:   0.00014087  -0.00000227   0.00462571

-----------------------------------
NORM OF THE MP2 GRADIENT:  0.019346
-----------------------------------

-------------------------   --------------------
FINAL SINGLE POINT ENERGY      -397.459881351747
-------------------------   --------------------


                            ***************************************
                            *     ORCA property calculations      *
                            ***************************************

                                    ---------------------
                                    Active property flags
                                    ---------------------
   (+) Dipole Moment


------------------------------------------------------------------------------
                       ORCA ELECTRIC PROPERTIES CALCULATION
------------------------------------------------------------------------------

Dipole Moment Calculation                       ... on
Quadrupole Moment Calculation                   ... off
Polarizability Calculation                      ... off
GBWName                                         ... 12mecn.remya.etal.2.mol1,4,6-orca.engrad-mp2.def2tzvp.frozencore.gbw
Electron density file                           ... 12mecn.remya.etal.2.mol1,4,6-orca.engrad-mp2.def2tzvp.frozencore.scfp
The origin for moment calculation is the CENTER OF MASS  = (-0.600780, -2.467560  0.157989)

-------------
DIPOLE MOMENT
-------------
                                X             Y             Z
Electronic contribution:     -0.09617      -0.14724      -3.01141
Nuclear contribution   :      0.15096       0.21644       4.66913
                        -----------------------------------------
Total Dipole Moment    :      0.05479       0.06920       1.65772
                        -----------------------------------------
Magnitude (a.u.)       :      1.66007
Magnitude (Debye)      :      4.21956



--------------------
Rotational spectrum 
--------------------
 
Rotational constants in cm-1:     0.094038     0.007351     0.006863 
Rotational constants in MHz :  2819.181814   220.373231   205.733499 

 Dipole components along the rotational axes: 
x,y,z [a.u.] :    -0.005868     1.653053    -0.152331 
x,y,z [Debye]:    -0.014916     4.201727    -0.387195 

 

                         *** MP2 UNRELAXED DENSITY ***

------------------------------------------------------------------------------
                       ORCA ELECTRIC PROPERTIES CALCULATION
------------------------------------------------------------------------------

Dipole Moment Calculation                       ... on
Quadrupole Moment Calculation                   ... off
Polarizability Calculation                      ... off
GBWName                                         ... 12mecn.remya.etal.2.mol1,4,6-orca.engrad-mp2.def2tzvp.frozencore.gbw
Electron density file                           ... 12mecn.remya.etal.2.mol1,4,6-orca.engrad-mp2.def2tzvp.frozencore.pmp2ur
The origin for moment calculation is the CENTER OF MASS  = (-0.600780, -2.467560  0.157989)

-------------
DIPOLE MOMENT
-------------
                                X             Y             Z
Electronic contribution:     -0.09790      -0.14855      -3.04673
Nuclear contribution   :      0.15096       0.21644       4.66913
                        -----------------------------------------
Total Dipole Moment    :      0.05306       0.06790       1.62239
                        -----------------------------------------
Magnitude (a.u.)       :      1.62468
Magnitude (Debye)      :      4.12961



--------------------
Rotational spectrum 
--------------------
 
Rotational constants in cm-1:     0.094038     0.007351     0.006863 
Rotational constants in MHz :  2819.181814   220.373231   205.733499 

 Dipole components along the rotational axes: 
x,y,z [a.u.] :    -0.005155     1.617815    -0.149095 
x,y,z [Debye]:    -0.013104     4.112159    -0.378971 

 

                           *** MP2 RELAXED DENSITY ***

------------------------------------------------------------------------------
                       ORCA ELECTRIC PROPERTIES CALCULATION
------------------------------------------------------------------------------

Dipole Moment Calculation                       ... on
Quadrupole Moment Calculation                   ... off
Polarizability Calculation                      ... off
GBWName                                         ... 12mecn.remya.etal.2.mol1,4,6-orca.engrad-mp2.def2tzvp.frozencore.gbw
Electron density file                           ... 12mecn.remya.etal.2.mol1,4,6-orca.engrad-mp2.def2tzvp.frozencore.pmp2re
The origin for moment calculation is the CENTER OF MASS  = (-0.600780, -2.467560  0.157989)

-------------
DIPOLE MOMENT
-------------
                                X             Y             Z
Electronic contribution:     -0.10183      -0.15264      -3.14782
Nuclear contribution   :      0.15096       0.21644       4.66913
                        -----------------------------------------
Total Dipole Moment    :      0.04913       0.06381       1.52131
                        -----------------------------------------
Magnitude (a.u.)       :      1.52344
Magnitude (Debye)      :      3.87227



--------------------
Rotational spectrum 
--------------------
 
Rotational constants in cm-1:     0.094038     0.007351     0.006863 
Rotational constants in MHz :  2819.181814   220.373231   205.733499 

 Dipole components along the rotational axes: 
x,y,z [a.u.] :    -0.004193     1.517007    -0.139771 
x,y,z [Debye]:    -0.010658     3.855925    -0.355270 

 

Timings for individual modules:

Sum of individual times         ...      153.405 sec (=   2.557 min)
GTO integral calculation        ...        1.099 sec (=   0.018 min)   0.7 %
SCF iterations                  ...       34.648 sec (=   0.577 min)  22.6 %
MP2 module                      ...      117.658 sec (=   1.961 min)  76.7 %
                             ****ORCA TERMINATED NORMALLY****
TOTAL RUN TIME: 0 days 0 hours 2 minutes 34 seconds 403 msec
