
                                 *****************
                                 * O   R   C   A *
                                 *****************

           --- An Ab Initio, DFT and Semiempirical electronic structure package ---

                  #######################################################
                  #                        -***-                        #
                  #          Department of theory and spectroscopy      #
                  #               Directorship: Frank Neese             #
                  #        Max Planck Institute fuer Kohlenforschung    #
                  #                Kaiser Wilhelm Platz 1               #
                  #                 D-45470 Muelheim/Ruhr               #
                  #                      Germany                        #
                  #                                                     #
                  #                  All rights reserved                #
                  #                        -***-                        #
                  #######################################################


                         Program Version 4.2.0 -  RELEASE  -


 With contributions from (in alphabetic order):
   Daniel Aravena         : Magnetic Suceptibility
   Michael Atanasov       : Ab Initio Ligand Field Theory (pilot matlab implementation)
   Alexander A. Auer      : GIAO ZORA, VPT2
   Ute Becker             : Parallelization
   Giovanni Bistoni       : ED, misc. LED, open-shell LED, HFLED
   Martin Brehm           : Molecular dynamics
   Dmytro Bykov           : SCF Hessian
   Vijay G. Chilkuri      : MRCI spin determinant printing, contributions to CSF-ICE
   Dipayan Datta          : RHF DLPNO-CCSD density
   Achintya Kumar Dutta   : EOM-CC, STEOM-CC
   Dmitry Ganyushin       : Spin-Orbit,Spin-Spin,Magnetic field MRCI
   Miquel Garcia          : C-PCM Hessian, Gaussian charge scheme
   Yang Guo               : DLPNO-NEVPT2, CIM, IAO-localization
   Andreas Hansen         : Spin unrestricted coupled pair/coupled cluster methods
   Benjamin Helmich-Paris : CASSCF linear response (MC-RPA)
   Lee Huntington         : MR-EOM, pCC
   Robert Izsak           : Overlap fitted RIJCOSX, COSX-SCS-MP3, EOM
   Christian Kollmar      : KDIIS, OOCD, Brueckner-CCSD(T), CCSD density
   Simone Kossmann        : Meta GGA functionals, TD-DFT gradient, OOMP2, MP2 Hessian
   Martin Krupicka        : AUTO-CI
   Lucas Lang             : DCDCAS
   Dagmar Lenk            : GEPOL surface, SMD
   Dimitrios Liakos       : Extrapolation schemes; Compound Job, initial MDCI parallelization
   Dimitrios Manganas     : Further ROCIS development; embedding schemes
   Dimitrios Pantazis     : SARC Basis sets
   Taras Petrenko         : DFT Hessian,TD-DFT gradient, ASA, ECA, R-Raman, ABS, FL, XAS/XES, NRVS
   Peter Pinski           : DLPNO-MP2, DLPNO-MP2 Gradient
   Christoph Reimann      : Effective Core Potentials
   Marius Retegan         : Local ZFS, SOC
   Christoph Riplinger    : Optimizer, TS searches, QM/MM, DLPNO-CCSD(T), (RO)-DLPNO pert. Triples
   Tobias Risthaus        : Range-separated hybrids, TD-DFT gradient, RPA, STAB
   Michael Roemelt        : Original ROCIS implementation
   Masaaki Saitow         : Open-shell DLPNO-CCSD energy and density
   Barbara Sandhoefer     : DKH picture change effects
   Avijit Sen             : IP-ROCIS
   Kantharuban Sivalingam : CASSCF convergence, NEVPT2, FIC-MRCI
   Bernardo de Souza      : ESD, SOC TD-DFT
   Georgi Stoychev        : AutoAux, RI-MP2 NMR
   Willem Van den Heuvel  : Paramagnetic NMR
   Boris Wezisla          : Elementary symmetry handling
   Frank Wennmohs         : Technical directorship


 We gratefully acknowledge several colleagues who have allowed us to
 interface, adapt or use parts of their codes:
   Stefan Grimme, W. Hujo, H. Kruse,             : VdW corrections, initial TS optimization,
                  C. Bannwarth                     DFT functionals, gCP, sTDA/sTD-DF
   Ed Valeev, F. Pavosevic, A. Kumar             : LibInt (2-el integral package), F12 methods
   Garnet Chan, S. Sharma, J. Yang, R. Olivares  : DMRG
   Ulf Ekstrom                                   : XCFun DFT Library
   Mihaly Kallay                                 : mrcc  (arbitrary order and MRCC methods)
   Andreas Klamt, Michael Diedenhofen            : otool_cosmo (COSMO solvation model)
   Jiri Pittner, Ondrej Demel                    : Mk-CCSD
   Frank Weinhold                                : gennbo (NPA and NBO analysis)
   Christopher J. Cramer and Donald G. Truhlar   : smd solvation model
   Lars Goerigk                                  : TD-DFT with DH, B97 family of functionals
   V. Asgeirsson, H. Jonsson                     : NEB implementation
   FAccTs GmbH                                   : IRC, NEB, NEB-TS, Multilevel, MM, QM/MM, CI optimization
   S Lehtola, MJT Oliveira, MAL Marques          : LibXC Library


 Your calculation uses the libint2 library for the computation of 2-el integrals
 For citations please refer to: http://libint.valeyev.net

 Your ORCA version has been built with support for libXC version: 4.2.3
 For citations please refer to: https://tddft.org/programs/libxc/

 This ORCA versions uses:
   CBLAS   interface :  Fast vector & matrix operations
   LAPACKE interface :  Fast linear algebra routines
   SCALAPACK package :  Parallel linear algebra routines


----- Orbital basis set information -----
Your calculation utilizes the basis: def2-TZVP
   F. Weigend and R. Ahlrichs, Phys. Chem. Chem. Phys. 7, 3297 (2005).

================================================================================
                                        WARNINGS
                       Please study these warnings very carefully!
================================================================================


WARNING: The frozen-core approximation for MP2-gradient calculations is turned on by default.

INFO   : the flag for use of LIBINT has been found!

================================================================================
                                       INPUT FILE
================================================================================
NAME = 12h2o.su.etal.mol4,5-orca.engrad-mp2.def2tzvp.frozencore.inp
|  1> # 12h2o.su.etal.mol4,5
|  2> ! MP2 def2-TZVP EnGrad TightSCF
|  3> 
|  4> %pal
|  5>     nprocs 6
|  6> end
|  7> 
|  8> %maxcore 8000
|  9> 
| 10> %scf
| 11>     ConvForced true
| 12> end
| 13> 
| 14> *xyz 0 1
| 15> O  -0.885520000   1.737840000   0.052730000
| 16> H  -1.032320000   2.090180000  -0.841890000
| 17> H  -1.284090000   0.839590000   0.017130000
| 18> O   0.885520000  -1.737840000   0.052730000
| 19> H   1.284090000  -0.839590000   0.017130000
| 20> H   1.032320000  -2.090180000  -0.841890000
| 21> *
| 22> 
| 23>                          ****END OF INPUT****
================================================================================

                     *******************************
                     * Energy+Gradient Calculation *
                     *******************************

---------------------------------
CARTESIAN COORDINATES (ANGSTROEM)
---------------------------------
  O     -0.885520    1.737840    0.052730
  H     -1.032320    2.090180   -0.841890
  H     -1.284090    0.839590    0.017130
  O      0.885520   -1.737840    0.052730
  H      1.284090   -0.839590    0.017130
  H      1.032320   -2.090180   -0.841890

----------------------------
CARTESIAN COORDINATES (A.U.)
----------------------------
  NO LB      ZA    FRAG     MASS         X           Y           Z
   0 O     8.0000    0    15.999   -1.673390    3.284042    0.099645
   1 H     1.0000    0     1.008   -1.950802    3.949868   -1.590942
   2 H     1.0000    0     1.008   -2.426578    1.586595    0.032371
   3 O     8.0000    0    15.999    1.673390   -3.284042    0.099645
   4 H     1.0000    0     1.008    2.426578   -1.586595    0.032371
   5 H     1.0000    0     1.008    1.950802   -3.949868   -1.590942

--------------------------------
INTERNAL COORDINATES (ANGSTROEM)
--------------------------------
 O      0   0   0     0.000000000000     0.00000000     0.00000000
 H      1   0   0     0.972645187106     0.00000000     0.00000000
 H      1   2   0     0.983350632989   103.67575169     0.00000000
 O      3   1   2     3.369216573181   115.93827062   108.73265366
 H      4   3   1     0.983350632989    64.01297461   355.38487433
 H      4   3   1     0.972645187106   111.38238039   260.12892927

---------------------------
INTERNAL COORDINATES (A.U.)
---------------------------
 O      0   0   0     0.000000000000     0.00000000     0.00000000
 H      1   0   0     1.838033029106     0.00000000     0.00000000
 H      1   2   0     1.858263389967   103.67575169     0.00000000
 O      3   1   2     6.366896609181   115.93827062   108.73265366
 H      4   3   1     1.858263389967    64.01297461   355.38487433
 H      4   3   1     1.838033029106   111.38238039   260.12892927

---------------------
BASIS SET INFORMATION
---------------------
There are 2 groups of distinct atoms

 Group   1 Type O   : 11s6p2d1f contracted to 5s3p2d1f pattern {62111/411/11/1}
 Group   2 Type H   : 5s1p contracted to 3s1p pattern {311/1}

Atom   0O    basis set group =>   1
Atom   1H    basis set group =>   2
Atom   2H    basis set group =>   2
Atom   3O    basis set group =>   1
Atom   4H    basis set group =>   2
Atom   5H    basis set group =>   2


           ************************************************************
           *        Program running with 6 parallel MPI-processes     *
           *              working on a common directory               *
           ************************************************************
------------------------------------------------------------------------------
                           ORCA GTO INTEGRAL CALCULATION
------------------------------------------------------------------------------

                         BASIS SET STATISTICS AND STARTUP INFO

 # of primitive gaussian shells          ...   64
 # of primitive gaussian functions       ...  124
 # of contracted shells                  ...   38
 # of contracted basis functions         ...   86
 Highest angular momentum                ...    3
 Maximum contraction depth               ...    6
 Integral package used                   ... LIBINT
 Integral threshhold            Thresh   ...  2.500e-11
 Primitive cut-off              TCut     ...  2.500e-12


------------------------------ INTEGRAL EVALUATION ----------------------------


 * One electron integrals 
 Pre-screening matrix                    ... done
 Shell pair data                         ... done (   0.000 sec)



           ************************************************************
           *        Program running with 6 parallel MPI-processes     *
           *              working on a common directory               *
           ************************************************************
-------------------------------------------------------------------------------
                                 ORCA SCF
-------------------------------------------------------------------------------

------------
SCF SETTINGS
------------
Hamiltonian:
 Ab initio Hamiltonian  Method          .... Hartree-Fock(GTOs)


General Settings:
 Integral files         IntName         .... 12h2o.su.etal.mol4,5-orca.engrad-mp2.def2tzvp.frozencore
 Hartree-Fock type      HFTyp           .... RHF
 Total Charge           Charge          ....    0
 Multiplicity           Mult            ....    1
 Number of Electrons    NEL             ....   20
 Basis Dimension        Dim             ....   86
 Nuclear Repulsion      ENuc            ....     31.6960824211 Eh

Convergence Acceleration:
 DIIS                   CNVDIIS         .... on
   Start iteration      DIISMaxIt       ....    12
   Startup error        DIISStart       ....  0.200000
   # of expansion vecs  DIISMaxEq       ....     5
   Bias factor          DIISBfac        ....   1.050
   Max. coefficient     DIISMaxC        ....  10.000
 Newton-Raphson         CNVNR           .... off
 SOSCF                  CNVSOSCF        .... on
   Start iteration      SOSCFMaxIt      ....   150
   Startup grad/error   SOSCFStart      ....  0.003300
 Level Shifting         CNVShift        .... on
   Level shift para.    LevelShift      ....    0.2500
   Turn off err/grad.   ShiftErr        ....    0.0010
 Zerner damping         CNVZerner       .... off
 Static damping         CNVDamp         .... on
   Fraction old density DampFac         ....    0.7000
   Max. Damping (<1)    DampMax         ....    0.9800
   Min. Damping (>=0)   DampMin         ....    0.0000
   Turn off err/grad.   DampErr         ....    0.1000
 Fernandez-Rico         CNVRico         .... off

SCF Procedure:
 Maximum # iterations   MaxIter         ....   125
 SCF integral mode      SCFMode         .... Direct
   Integral package                     .... LIBINT
 Reset frequency        DirectResetFreq ....    20
 Integral Threshold     Thresh          ....  2.500e-11 Eh
 Primitive CutOff       TCut            ....  2.500e-12 Eh

Convergence Tolerance:
 Convergence Check Mode ConvCheckMode   .... Total+1el-Energy
 Convergence forced     ConvForced      .... 1
 Energy Change          TolE            ....  1.000e-08 Eh
 1-El. energy change                    ....  1.000e-05 Eh
 Orbital Gradient       TolG            ....  1.000e-05
 Orbital Rotation angle TolX            ....  1.000e-05
 DIIS Error             TolErr          ....  5.000e-07


Diagonalization of the overlap matrix:
Smallest eigenvalue                        ... 8.854e-03
Time for diagonalization                   ...    0.002 sec
Threshold for overlap eigenvalues          ... 1.000e-08
Number of eigenvalues below threshold      ... 0
Time for construction of square roots      ...    0.001 sec
Total time needed                          ...    0.003 sec

-------------------
DFT GRID GENERATION
-------------------

General Integration Accuracy     IntAcc      ...  4.340
Radial Grid Type                 RadialGrid  ... Gauss-Chebyshev
Angular Grid (max. acc.)         AngularGrid ... Lebedev-110
Angular grid pruning method      GridPruning ... 3 (G Style)
Weight generation scheme         WeightScheme... Becke
Basis function cutoff            BFCut       ...    1.0000e-11
Integration weight cutoff        WCut        ...    1.0000e-14
Grids for H and He will be reduced by one unit

# of grid points (after initial pruning)     ...   6608 (   0.0 sec)
# of grid points (after weights+screening)   ...   6538 (   0.0 sec)
nearest neighbour list constructed           ...    0.0 sec
Grid point re-assignment to atoms done       ...    0.0 sec
Grid point division into batches done        ...    0.0 sec
Reduced shell lists constructed in    0.0 sec

Total number of grid points                  ...     6538
Total number of batches                      ...      104
Average number of points per batch           ...       62
Average number of grid points per atom       ...     1090
Average number of shells per batch           ...    25.74 (67.73%)
Average number of basis functions per batch  ...    55.00 (63.95%)
Average number of large shells per batch     ...    21.95 (85.28%)
Average number of large basis fcns per batch ...    46.79 (85.07%)
Maximum spatial batch extension              ...  12.89, 16.96, 13.97 au
Average spatial batch extension              ...   0.61,  0.68,  0.59 au

Time for grid setup =    0.013 sec

------------------------------
INITIAL GUESS: MODEL POTENTIAL
------------------------------
Loading Hartree-Fock densities                     ... done
Calculating cut-offs                               ... done
Setting up the integral package                    ... done
Initializing the effective Hamiltonian             ... done
Starting the Coulomb interaction                   ... done (   0.0 sec)
Reading the grid                                   ... done
Mapping shells                                     ... done
Starting the XC term evaluation                    ... done (   0.0 sec)
Transforming the Hamiltonian                       ... done (   0.0 sec)
Diagonalizing the Hamiltonian                      ... done (   0.0 sec)
Back transforming the eigenvectors                 ... done (   0.0 sec)
Now organizing SCF variables                       ... done
                      ------------------
                      INITIAL GUESS DONE (   0.1 sec)
                      ------------------
--------------
SCF ITERATIONS
--------------
ITER       Energy         Delta-E        Max-DP      RMS-DP      [F,P]     Damp
               ***  Starting incremental Fock matrix formation  ***
  0   -151.9152503889   0.000000000000 0.04277138  0.00173652  0.3393706 0.7000
  1   -151.9953831357  -0.080132746824 0.02800893  0.00118987  0.2158701 0.7000
                               ***Turning on DIIS***
  2   -152.0369145018  -0.041531366134 0.01587621  0.00064329  0.1638426 0.7000
  3   -152.3864514912  -0.349536989316 0.00691103  0.00027022  0.1218672 0.7000
  4   -152.3126722747   0.073779216477 0.01476638  0.00061330  0.0862033 0.0000
  5   -152.1326517706   0.180020504118 0.00170007  0.00010041  0.0052658 0.0000
                      *** Initiating the SOSCF procedure ***
                           *** Shutting down DIIS ***
                      *** Re-Reading the Fockian *** 
                      *** Removing any level shift *** 
ITER      Energy       Delta-E        Grad      Rot      Max-DP    RMS-DP
  6   -152.11986159   0.0127901818  0.001027  0.001027  0.000971  0.000058
               *** Restarting incremental Fock matrix formation ***
  7   -152.11597631   0.0038852771  0.000388  0.000561  0.000291  0.000025
  8   -152.11597901  -0.0000027003  0.000206  0.000429  0.000421  0.000021
  9   -152.11597965  -0.0000006381  0.000061  0.000050  0.000066  0.000004
 10   -152.11597970  -0.0000000543  0.000010  0.000008  0.000008  0.000001
                  ***Gradient check signals convergence***
              ***Rediagonalizing the Fockian in SOSCF/NRSCF***

               *****************************************************
               *                     SUCCESS                       *
               *           SCF CONVERGED AFTER  11 CYCLES          *
               *****************************************************


----------------
TOTAL SCF ENERGY
----------------

Total Energy       :         -152.11597971 Eh           -4139.28625 eV

Components:
Nuclear Repulsion  :           31.69608242 Eh             862.49425 eV
Electronic Energy  :         -183.81206213 Eh           -5001.78050 eV
One Electron Energy:         -272.81841119 Eh           -7423.76639 eV
Two Electron Energy:           89.00634906 Eh            2421.98589 eV

Virial components:
Potential Energy   :         -303.96238408 Eh           -8271.23697 eV
Kinetic Energy     :          151.84640438 Eh            4131.95073 eV
Virial Ratio       :            2.00177532


---------------
SCF CONVERGENCE
---------------

  Last Energy change         ...   -1.2345e-09  Tolerance :   1.0000e-08
  Last MAX-Density change    ...    2.2845e-06  Tolerance :   1.0000e-07
  Last RMS-Density change    ...    1.9464e-07  Tolerance :   5.0000e-09
  Last Orbital Gradient      ...    2.4193e-06  Tolerance :   1.0000e-05
  Last Orbital Rotation      ...    3.2287e-06  Tolerance :   1.0000e-05

             **** THE GBW FILE WAS UPDATED (12h2o.su.etal.mol4,5-orca.engrad-mp2.def2tzvp.frozencore.gbw) ****
             **** DENSITY FILE WAS UPDATED (12h2o.su.etal.mol4,5-orca.engrad-mp2.def2tzvp.frozencore.scfp) ****
             **** ENERGY FILE WAS UPDATED (12h2o.su.etal.mol4,5-orca.engrad-mp2.def2tzvp.frozencore.en.tmp) ****
             **** THE GBW FILE WAS UPDATED (12h2o.su.etal.mol4,5-orca.engrad-mp2.def2tzvp.frozencore.gbw) ****
             **** DENSITY FILE WAS UPDATED (12h2o.su.etal.mol4,5-orca.engrad-mp2.def2tzvp.frozencore.scfp) ****
----------------
ORBITAL ENERGIES
----------------

  NO   OCC          E(Eh)            E(eV) 
   0   2.0000     -20.565931      -559.6274 
   1   2.0000     -20.565931      -559.6274 
   2   2.0000      -1.342187       -36.5228 
   3   2.0000      -1.341562       -36.5058 
   4   2.0000      -0.704990       -19.1838 
   5   2.0000      -0.702426       -19.1140 
   6   2.0000      -0.581208       -15.8155 
   7   2.0000      -0.581044       -15.8110 
   8   2.0000      -0.511035       -13.9060 
   9   2.0000      -0.506553       -13.7840 
  10   0.0000       0.110363         3.0031 
  11   0.0000       0.146633         3.9901 
  12   0.0000       0.203454         5.5363 
  13   0.0000       0.205407         5.5894 
  14   0.0000       0.507129        13.7997 
  15   0.0000       0.520805        14.1718 
  16   0.0000       0.550547        14.9812 
  17   0.0000       0.574465        15.6320 
  18   0.0000       0.578891        15.7524 
  19   0.0000       0.627077        17.0636 
  20   0.0000       0.630403        17.1541 
  21   0.0000       0.691577        18.8188 
  22   0.0000       0.751048        20.4371 
  23   0.0000       0.759255        20.6604 
  24   0.0000       0.775766        21.1097 
  25   0.0000       0.824386        22.4327 
  26   0.0000       1.399782        38.0900 
  27   0.0000       1.404498        38.2183 
  28   0.0000       1.437536        39.1173 
  29   0.0000       1.441205        39.2172 
  30   0.0000       1.541084        41.9350 
  31   0.0000       1.545855        42.0648 
  32   0.0000       1.789713        48.7006 
  33   0.0000       1.796460        48.8842 
  34   0.0000       1.907678        51.9106 
  35   0.0000       1.910288        51.9816 
  36   0.0000       2.016126        54.8616 
  37   0.0000       2.018194        54.9178 
  38   0.0000       2.291087        62.3436 
  39   0.0000       2.315554        63.0094 
  40   0.0000       2.341348        63.7113 
  41   0.0000       2.347182        63.8701 
  42   0.0000       2.374245        64.6065 
  43   0.0000       2.377627        64.6985 
  44   0.0000       2.581623        70.2495 
  45   0.0000       2.588011        70.4234 
  46   0.0000       2.663560        72.4792 
  47   0.0000       2.673086        72.7384 
  48   0.0000       2.919142        79.4339 
  49   0.0000       2.942020        80.0564 
  50   0.0000       2.942606        80.0724 
  51   0.0000       2.957231        80.4703 
  52   0.0000       3.004157        81.7473 
  53   0.0000       3.071873        83.5899 
  54   0.0000       3.123858        85.0045 
  55   0.0000       3.165394        86.1348 
  56   0.0000       4.006557       109.0240 
  57   0.0000       4.016168       109.2855 
  58   0.0000       4.288711       116.7018 
  59   0.0000       4.295330       116.8819 
  60   0.0000       5.545970       150.9135 
  61   0.0000       5.546047       150.9156 
  62   0.0000       5.648943       153.7155 
  63   0.0000       5.649359       153.7269 
  64   0.0000       5.812664       158.1706 
  65   0.0000       5.814905       158.2316 
  66   0.0000       5.845634       159.0678 
  67   0.0000       5.846908       159.1024 
  68   0.0000       5.884301       160.1200 
  69   0.0000       5.885704       160.1581 
  70   0.0000       6.463020       175.8677 
  71   0.0000       6.467448       175.9882 
  72   0.0000       6.676660       181.6812 
  73   0.0000       6.680632       181.7892 
  74   0.0000       6.825666       185.7358 
  75   0.0000       6.826001       185.7449 
  76   0.0000       6.882356       187.2784 
  77   0.0000       6.882556       187.2839 
  78   0.0000       6.942661       188.9194 
  79   0.0000       6.942967       188.9277 
  80   0.0000       7.340283       199.7392 
  81   0.0000       7.349610       199.9931 
  82   0.0000       7.501960       204.1387 
  83   0.0000       7.506569       204.2641 
  84   0.0000      44.801627      1219.1143 
  85   0.0000      44.837163      1220.0812 

                    ********************************
                    * MULLIKEN POPULATION ANALYSIS *
                    ********************************

-----------------------
MULLIKEN ATOMIC CHARGES
-----------------------
   0 O :   -0.698817
   1 H :    0.343664
   2 H :    0.355154
   3 O :   -0.698817
   4 H :    0.355154
   5 H :    0.343664
Sum of atomic charges:   -0.0000000

--------------------------------
MULLIKEN REDUCED ORBITAL CHARGES
--------------------------------
  0 O s       :     3.818182  s :     3.818182
      pz      :     1.527729  p :     4.852604
      px      :     1.871986
      py      :     1.452889
      dz2     :     0.011976  d :     0.026517
      dxz     :     0.002749
      dyz     :     0.002994
      dx2y2   :     0.003293
      dxy     :     0.005504
      f0      :     0.000184  f :     0.001514
      f+1     :     0.000130
      f-1     :     0.000461
      f+2     :     0.000078
      f-2     :     0.000042
      f+3     :     0.000490
      f-3     :     0.000128
  1 H s       :     0.611524  s :     0.611524
      pz      :     0.018558  p :     0.044812
      px      :     0.014224
      py      :     0.012030
  2 H s       :     0.601310  s :     0.601310
      pz      :     0.010092  p :     0.043536
      px      :     0.014973
      py      :     0.018472
  3 O s       :     3.818182  s :     3.818182
      pz      :     1.527729  p :     4.852604
      px      :     1.871986
      py      :     1.452889
      dz2     :     0.011976  d :     0.026517
      dxz     :     0.002749
      dyz     :     0.002994
      dx2y2   :     0.003293
      dxy     :     0.005504
      f0      :     0.000184  f :     0.001514
      f+1     :     0.000130
      f-1     :     0.000461
      f+2     :     0.000078
      f-2     :     0.000042
      f+3     :     0.000490
      f-3     :     0.000128
  4 H s       :     0.601310  s :     0.601310
      pz      :     0.010092  p :     0.043536
      px      :     0.014973
      py      :     0.018472
  5 H s       :     0.611524  s :     0.611524
      pz      :     0.018558  p :     0.044812
      px      :     0.014224
      py      :     0.012030


                     *******************************
                     * LOEWDIN POPULATION ANALYSIS *
                     *******************************

----------------------
LOEWDIN ATOMIC CHARGES
----------------------
   0 O :   -0.337732
   1 H :    0.163736
   2 H :    0.173996
   3 O :   -0.337732
   4 H :    0.173996
   5 H :    0.163736

-------------------------------
LOEWDIN REDUCED ORBITAL CHARGES
-------------------------------
  0 O s       :     3.480254  s :     3.480254
      pz      :     1.538978  p :     4.821711
      px      :     1.833408
      py      :     1.449325
      dz2     :     0.015855  d :     0.033592
      dxz     :     0.001860
      dyz     :     0.004372
      dx2y2   :     0.004467
      dxy     :     0.007037
      f0      :     0.000389  f :     0.002176
      f+1     :     0.000208
      f-1     :     0.000770
      f+2     :     0.000050
      f-2     :     0.000045
      f+3     :     0.000641
      f-3     :     0.000074
  1 H s       :     0.678874  s :     0.678874
      pz      :     0.079239  p :     0.157391
      px      :     0.043044
      py      :     0.035108
  2 H s       :     0.673145  s :     0.673145
      pz      :     0.029091  p :     0.152859
      px      :     0.049316
      py      :     0.074452
  3 O s       :     3.480254  s :     3.480254
      pz      :     1.538978  p :     4.821711
      px      :     1.833408
      py      :     1.449325
      dz2     :     0.015855  d :     0.033592
      dxz     :     0.001860
      dyz     :     0.004372
      dx2y2   :     0.004467
      dxy     :     0.007037
      f0      :     0.000389  f :     0.002176
      f+1     :     0.000208
      f-1     :     0.000770
      f+2     :     0.000050
      f-2     :     0.000045
      f+3     :     0.000641
      f-3     :     0.000074
  4 H s       :     0.673145  s :     0.673145
      pz      :     0.029091  p :     0.152859
      px      :     0.049316
      py      :     0.074452
  5 H s       :     0.678874  s :     0.678874
      pz      :     0.079239  p :     0.157391
      px      :     0.043044
      py      :     0.035108


                      *****************************
                      * MAYER POPULATION ANALYSIS *
                      *****************************

  NA   - Mulliken gross atomic population
  ZA   - Total nuclear charge
  QA   - Mulliken gross atomic charge
  VA   - Mayer's total valence
  BVA  - Mayer's bonded valence
  FA   - Mayer's free valence

  ATOM       NA         ZA         QA         VA         BVA        FA
  0 O      8.6988     8.0000    -0.6988     1.7757     1.7757    -0.0000
  1 H      0.6563     1.0000     0.3437     0.8957     0.8957    -0.0000
  2 H      0.6448     1.0000     0.3552     0.8895     0.8895    -0.0000
  3 O      8.6988     8.0000    -0.6988     1.7757     1.7757     0.0000
  4 H      0.6448     1.0000     0.3552     0.8895     0.8895     0.0000
  5 H      0.6563     1.0000     0.3437     0.8957     0.8957    -0.0000

  Mayer bond orders larger than 0.100000
B(  0-O ,  1-H ) :   0.8910 B(  0-O ,  2-H ) :   0.8804 B(  3-O ,  4-H ) :   0.8804 
B(  3-O ,  5-H ) :   0.8910 

-------
TIMINGS
-------

Total SCF time: 0 days 0 hours 0 min 1 sec 

Total time                  ....       1.433 sec
Sum of individual times     ....       1.266 sec  ( 88.3%)

Fock matrix formation       ....       1.140 sec  ( 79.6%)
Diagonalization             ....       0.007 sec  (  0.5%)
Density matrix formation    ....       0.002 sec  (  0.1%)
Population analysis         ....       0.012 sec  (  0.8%)
Initial guess               ....       0.087 sec  (  6.0%)
Orbital Transformation      ....       0.000 sec  (  0.0%)
Orbital Orthonormalization  ....       0.000 sec  (  0.0%)
DIIS solution               ....       0.003 sec  (  0.2%)
SOSCF solution              ....       0.003 sec  (  0.2%)


           ************************************************************
           *        Program running with 6 parallel MPI-processes     *
           *              working on a common directory               *
           ************************************************************

------------------------------------------------------------------------------
                                ORCA  MP2 
------------------------------------------------------------------------------

Freezing NCore=4 chemical core electrons
MP2 will be done in the AO integral direct mode
The Q1-step will be done using symmetric double matrices
Dimension of the basis                    ...   86
Memory devoted for MP2                    ... 8000 MB   
Memory needed for all in one shot         ...    6 MB
Number of MOs that can be treated together... 3258      
MP2 density construction                  ... relaxed
The MP2 gradient is requested => amplitudes will be stored on disk
Total number of MOs              ...    8
Number of MOs treated per batch  ...    2 
Number of batches necessary      ...    1 
OPERATORS   0/  0 PASS   0
-----------------------------------------------
 MP2 CORRELATION ENERGY   :     -0.511899848 Eh
-----------------------------------------------


---------------------
MP2 DENSITY FORMATION
---------------------

Completing the external part of the density      ... done
Storing the unrelaxed density                    ... done

Calculating G(D)                                 ... done
Completing the Lagrangian                        ... done
Solving the Z-vector equations                   ... 

------------------------------------------------------------------------------
                           ORCA CP-SCF CALCULATION
------------------------------------------------------------------------------

Input orbitals are from        ... 12h2o.su.etal.mol4,5-orca.engrad-mp2.def2tzvp.frozencore.gbw
Input Perturbation             ... 12h2o.su.etal.mol4,5-orca.engrad-mp2.def2tzvp.frozencore.pin.tmp
Wavefunction output            ... 12h2o.su.etal.mol4,5-orca.engrad-mp2.def2tzvp.frozencore.pout.tmp
Perturbation mode              ... Real perturbation (singlet)
Solver                         ... POPLE
Max. number of iterations      ... 128
Convergence tolerance          ... 1.000e-08
Integral handling              ... Direct
Number of perturbations        ... 1
Number of operators            ... 1
Orbital ranges used for CP-SCF:
 Operator 0:  Orbitals   0...  9  to  10... 85
Variables per vector in CP-SCF ... 760
Number of vectors sought       ... 1
     CP-SCF ITERATION   0: 
     CP-SCF ITERATION   1:      0.000240309336
     CP-SCF ITERATION   2:      0.000004628346
     CP-SCF ITERATION   3:      0.000000122418
     CP-SCF ITERATION   4:      0.000000001732
                                                 ... done
Finalizing the relaxed density                   ... done
Transforming P to the AO basis                   ... done
Storing the relaxed density                      ... done

------------------------------------
ENERGY WEIGHTED DENSITY FINALIZATION
------------------------------------

Gathering the parts of the W-matrix              ...                                                      done
Forming the Z-density                            ... done
Transforming Z to the AO basis                   ... done
Calculating G(Z)                                 ... done
Finalizing the W-matrix                          ...                                                      done
Transforming W to the AO basis and storing       ... done

                *********************************************
                * UNRELAXED MP2 DENSITY POPULATION ANALYSIS *
                *********************************************

------------------------------------------------------------------------------
                           ORCA POPULATION ANALYSIS
------------------------------------------------------------------------------
Input electron density              ... 12h2o.su.etal.mol4,5-orca.engrad-mp2.def2tzvp.frozencore.pmp2ur
BaseName (.gbw .S,...)              ... 12h2o.su.etal.mol4,5-orca.engrad-mp2.def2tzvp.frozencore

                    ********************************
                    * MULLIKEN POPULATION ANALYSIS *
                    ********************************

-----------------------
MULLIKEN ATOMIC CHARGES
-----------------------
   0 O :   -0.693844
   1 H :    0.341323
   2 H :    0.352521
   3 O :   -0.693844
   4 H :    0.352521
   5 H :    0.341323
Sum of atomic charges:    0.0000000

--------------------------------
MULLIKEN REDUCED ORBITAL CHARGES
--------------------------------
  0 O s       :     3.813341  s :     3.813341
      pz      :     1.518602  p :     4.823663
      px      :     1.860405
      py      :     1.444656
      dz2     :     0.016937  d :     0.052786
      dxz     :     0.008169
      dyz     :     0.008216
      dx2y2   :     0.008648
      dxy     :     0.010816
      f0      :     0.000562  f :     0.004055
      f+1     :     0.000498
      f-1     :     0.000822
      f+2     :     0.000438
      f-2     :     0.000404
      f+3     :     0.000840
      f-3     :     0.000491
  1 H s       :     0.612207  s :     0.612207
      pz      :     0.018715  p :     0.046470
      px      :     0.015103
      py      :     0.012652
  2 H s       :     0.602327  s :     0.602327
      pz      :     0.010914  p :     0.045152
      px      :     0.015740
      py      :     0.018498
  3 O s       :     3.813341  s :     3.813341
      pz      :     1.518602  p :     4.823663
      px      :     1.860405
      py      :     1.444656
      dz2     :     0.016937  d :     0.052786
      dxz     :     0.008169
      dyz     :     0.008216
      dx2y2   :     0.008648
      dxy     :     0.010816
      f0      :     0.000562  f :     0.004055
      f+1     :     0.000498
      f-1     :     0.000822
      f+2     :     0.000438
      f-2     :     0.000404
      f+3     :     0.000840
      f-3     :     0.000491
  4 H s       :     0.602327  s :     0.602327
      pz      :     0.010914  p :     0.045152
      px      :     0.015740
      py      :     0.018498
  5 H s       :     0.612207  s :     0.612207
      pz      :     0.018715  p :     0.046470
      px      :     0.015103
      py      :     0.012652


                     *******************************
                     * LOEWDIN POPULATION ANALYSIS *
                     *******************************

----------------------
LOEWDIN ATOMIC CHARGES
----------------------
   0 O :   -0.334804
   1 H :    0.162398
   2 H :    0.172406
   3 O :   -0.334804
   4 H :    0.172406
   5 H :    0.162398

-------------------------------
LOEWDIN REDUCED ORBITAL CHARGES
-------------------------------
  0 O s       :     3.476451  s :     3.476451
      pz      :     1.529538  p :     4.792495
      px      :     1.822242
      py      :     1.440715
      dz2     :     0.021464  d :     0.060950
      dxz     :     0.007210
      dyz     :     0.009612
      dx2y2   :     0.010020
      dxy     :     0.012644
      f0      :     0.000796  f :     0.004907
      f+1     :     0.000592
      f-1     :     0.001199
      f+2     :     0.000416
      f-2     :     0.000413
      f+3     :     0.001045
      f-3     :     0.000447
  1 H s       :     0.676997  s :     0.676997
      pz      :     0.080895  p :     0.160606
      px      :     0.043845
      py      :     0.035866
  2 H s       :     0.671588  s :     0.671588
      pz      :     0.029877  p :     0.156006
      px      :     0.050267
      py      :     0.075862
  3 O s       :     3.476451  s :     3.476451
      pz      :     1.529538  p :     4.792495
      px      :     1.822242
      py      :     1.440715
      dz2     :     0.021464  d :     0.060950
      dxz     :     0.007210
      dyz     :     0.009612
      dx2y2   :     0.010020
      dxy     :     0.012644
      f0      :     0.000796  f :     0.004907
      f+1     :     0.000592
      f-1     :     0.001199
      f+2     :     0.000416
      f-2     :     0.000413
      f+3     :     0.001045
      f-3     :     0.000447
  4 H s       :     0.671588  s :     0.671588
      pz      :     0.029877  p :     0.156006
      px      :     0.050267
      py      :     0.075862
  5 H s       :     0.676997  s :     0.676997
      pz      :     0.080895  p :     0.160606
      px      :     0.043845
      py      :     0.035866


                      *****************************
                      * MAYER POPULATION ANALYSIS *
                      *****************************

  NA   - Mulliken gross atomic population
  ZA   - Total nuclear charge
  QA   - Mulliken gross atomic charge
  VA   - Mayer's total valence
  BVA  - Mayer's bonded valence
  FA   - Mayer's free valence

  ATOM       NA         ZA         QA         VA         BVA        FA
  0 O      8.6938     8.0000    -0.6938     2.0796     1.6930     0.3866
  1 H      0.6587     1.0000     0.3413     0.9016     0.8540     0.0477
  2 H      0.6475     1.0000     0.3525     0.8956     0.8478     0.0478
  3 O      8.6938     8.0000    -0.6938     2.0796     1.6930     0.3866
  4 H      0.6475     1.0000     0.3525     0.8956     0.8478     0.0478
  5 H      0.6587     1.0000     0.3413     0.9016     0.8540     0.0477

  Mayer bond orders larger than 0.100000
B(  0-O ,  1-H ) :   0.8496 B(  0-O ,  2-H ) :   0.8392 B(  3-O ,  4-H ) :   0.8392 
B(  3-O ,  5-H ) :   0.8496 


                *******************************************
                * RELAXED MP2 DENSITY POPULATION ANALYSIS *
                *******************************************

------------------------------------------------------------------------------
                           ORCA POPULATION ANALYSIS
------------------------------------------------------------------------------
Input electron density              ... 12h2o.su.etal.mol4,5-orca.engrad-mp2.def2tzvp.frozencore.pmp2re
BaseName (.gbw .S,...)              ... 12h2o.su.etal.mol4,5-orca.engrad-mp2.def2tzvp.frozencore

                    ********************************
                    * MULLIKEN POPULATION ANALYSIS *
                    ********************************

-----------------------
MULLIKEN ATOMIC CHARGES
-----------------------
   0 O :   -0.679940
   1 H :    0.335081
   2 H :    0.344859
   3 O :   -0.679940
   4 H :    0.344859
   5 H :    0.335081
Sum of atomic charges:   -0.0000000

--------------------------------
MULLIKEN REDUCED ORBITAL CHARGES
--------------------------------
  0 O s       :     3.818592  s :     3.818592
      pz      :     1.511367  p :     4.806928
      px      :     1.855240
      py      :     1.440320
      dz2     :     0.015668  d :     0.050439
      dxz     :     0.008207
      dyz     :     0.007944
      dx2y2   :     0.008339
      dxy     :     0.010281
      f0      :     0.000547  f :     0.003981
      f+1     :     0.000492
      f-1     :     0.000792
      f+2     :     0.000438
      f-2     :     0.000403
      f+3     :     0.000819
      f-3     :     0.000490
  1 H s       :     0.617704  s :     0.617704
      pz      :     0.018065  p :     0.047214
      px      :     0.016105
      py      :     0.013045
  2 H s       :     0.609282  s :     0.609282
      pz      :     0.011642  p :     0.045859
      px      :     0.016549
      py      :     0.017668
  3 O s       :     3.818592  s :     3.818592
      pz      :     1.511367  p :     4.806928
      px      :     1.855240
      py      :     1.440320
      dz2     :     0.015668  d :     0.050439
      dxz     :     0.008207
      dyz     :     0.007944
      dx2y2   :     0.008339
      dxy     :     0.010281
      f0      :     0.000547  f :     0.003981
      f+1     :     0.000492
      f-1     :     0.000792
      f+2     :     0.000438
      f-2     :     0.000403
      f+3     :     0.000819
      f-3     :     0.000490
  4 H s       :     0.609282  s :     0.609282
      pz      :     0.011642  p :     0.045859
      px      :     0.016549
      py      :     0.017668
  5 H s       :     0.617704  s :     0.617704
      pz      :     0.018065  p :     0.047214
      px      :     0.016105
      py      :     0.013045


                     *******************************
                     * LOEWDIN POPULATION ANALYSIS *
                     *******************************

----------------------
LOEWDIN ATOMIC CHARGES
----------------------
   0 O :   -0.337554
   1 H :    0.164192
   2 H :    0.173361
   3 O :   -0.337554
   4 H :    0.173361
   5 H :    0.164192

-------------------------------
LOEWDIN REDUCED ORBITAL CHARGES
-------------------------------
  0 O s       :     3.478804  s :     3.478804
      pz      :     1.530482  p :     4.794247
      px      :     1.819643
      py      :     1.444122
      dz2     :     0.020752  d :     0.059577
      dxz     :     0.007278
      dyz     :     0.009360
      dx2y2   :     0.009812
      dxy     :     0.012375
      f0      :     0.000793  f :     0.004925
      f+1     :     0.000591
      f-1     :     0.001209
      f+2     :     0.000419
      f-2     :     0.000411
      f+3     :     0.001053
      f-3     :     0.000449
  1 H s       :     0.675080  s :     0.675080
      pz      :     0.080272  p :     0.160727
      px      :     0.044752
      py      :     0.035703
  2 H s       :     0.670504  s :     0.670504
      pz      :     0.030294  p :     0.156135
      px      :     0.051067
      py      :     0.074774
  3 O s       :     3.478804  s :     3.478804
      pz      :     1.530482  p :     4.794247
      px      :     1.819643
      py      :     1.444122
      dz2     :     0.020752  d :     0.059577
      dxz     :     0.007278
      dyz     :     0.009360
      dx2y2   :     0.009812
      dxy     :     0.012375
      f0      :     0.000793  f :     0.004925
      f+1     :     0.000591
      f-1     :     0.001209
      f+2     :     0.000419
      f-2     :     0.000411
      f+3     :     0.001053
      f-3     :     0.000449
  4 H s       :     0.670504  s :     0.670504
      pz      :     0.030294  p :     0.156135
      px      :     0.051067
      py      :     0.074774
  5 H s       :     0.675080  s :     0.675080
      pz      :     0.080272  p :     0.160727
      px      :     0.044752
      py      :     0.035703


                      *****************************
                      * MAYER POPULATION ANALYSIS *
                      *****************************

  NA   - Mulliken gross atomic population
  ZA   - Total nuclear charge
  QA   - Mulliken gross atomic charge
  VA   - Mayer's total valence
  BVA  - Mayer's bonded valence
  FA   - Mayer's free valence

  ATOM       NA         ZA         QA         VA         BVA        FA
  0 O      8.6799     8.0000    -0.6799     2.0856     1.7040     0.3816
  1 H      0.6649     1.0000     0.3351     0.9060     0.8583     0.0478
  2 H      0.6551     1.0000     0.3449     0.9028     0.8551     0.0477
  3 O      8.6799     8.0000    -0.6799     2.0856     1.7040     0.3816
  4 H      0.6551     1.0000     0.3449     0.9028     0.8551     0.0477
  5 H      0.6649     1.0000     0.3351     0.9060     0.8583     0.0478

  Mayer bond orders larger than 0.100000
B(  0-O ,  1-H ) :   0.8538 B(  0-O ,  2-H ) :   0.8434 B(  3-O ,  4-H ) :   0.8434 
B(  3-O ,  5-H ) :   0.8538 


----------------------------------
MP2 DERIVATIVE INTEGRAL GENERATION
----------------------------------


Input Wavefunction Amplitudes       ... 12h2o.su.etal.mol4,5-orca.engrad-mp2.def2tzvp.frozencore.mp2tsaa.tmp
Input Correlated Electron Density   ... 12h2o.su.etal.mol4,5-orca.engrad-mp2.def2tzvp.frozencore.pmp2re
Input Energy Weighted Density       ... 12h2o.su.etal.mol4,5-orca.engrad-mp2.def2tzvp.frozencore.wmp2.tmp
Input SCF Electron Density          ... 12h2o.su.etal.mol4,5-orca.engrad-mp2.def2tzvp.frozencore.scfp

One-Electron Terms    ...
                        ... One-Electron Terms done
Prescreening matrices              ... done

Batch handling in the gradient evaluation:
Memory available                      ... 8000.0 MB
Memory per occupied orbital in Q2     ...    0.5 MB
Memory per occupied orbital in Q3     ...    0.0 MB
Total memory requirement per |i>      ...    0.5 MB
Max. Number of orbitals possible      ...  16543
Number of orbitals treated per batch  ...      8
Number of batches to be done          ...      1
Batch   0: i=    2 ...     9

---------------------------------------
MP2 TOTAL ENERGY:     -152.627879554 Eh
---------------------------------------

The final MP2 gradient
  0:   0.00808064   0.01470074   0.01056996
  1:  -0.00116381   0.00287321  -0.00882121
  2:  -0.00789309  -0.01632845  -0.00174875
  3:  -0.00808064  -0.01470074   0.01056996
  4:   0.00789309   0.01632845  -0.00174875
  5:   0.00116381  -0.00287321  -0.00882121

-----------------------------------
NORM OF THE MP2 GRADIENT:  0.040312
-----------------------------------

-------------------------   --------------------
FINAL SINGLE POINT ENERGY      -152.627879553612
-------------------------   --------------------


                            ***************************************
                            *     ORCA property calculations      *
                            ***************************************

                                    ---------------------
                                    Active property flags
                                    ---------------------
   (+) Dipole Moment


------------------------------------------------------------------------------
                       ORCA ELECTRIC PROPERTIES CALCULATION
------------------------------------------------------------------------------

Dipole Moment Calculation                       ... on
Quadrupole Moment Calculation                   ... off
Polarizability Calculation                      ... off
GBWName                                         ... 12h2o.su.etal.mol4,5-orca.engrad-mp2.def2tzvp.frozencore.gbw
Electron density file                           ... 12h2o.su.etal.mol4,5-orca.engrad-mp2.def2tzvp.frozencore.scfp
The origin for moment calculation is the CENTER OF MASS  = (-0.000000, -0.000000  0.001287)

-------------
DIPOLE MOMENT
-------------
                                X             Y             Z
Electronic contribution:     -0.00000       0.00000       0.23010
Nuclear contribution   :     -0.00000       0.00000      -1.54856
                        -----------------------------------------
Total Dipole Moment    :     -0.00000       0.00000      -1.31846
                        -----------------------------------------
Magnitude (a.u.)       :      1.31846
Magnitude (Debye)      :      3.35126



--------------------
Rotational spectrum 
--------------------
 
Rotational constants in cm-1:     6.321745     0.122664     0.122335 
Rotational constants in MHz : 189521.149489  3677.382004  3667.500773 

 Dipole components along the rotational axes: 
x,y,z [a.u.] :    -0.000000    -1.318461     0.000000 
x,y,z [Debye]:    -0.000000    -3.351262     0.000000 

 

                         *** MP2 UNRELAXED DENSITY ***

------------------------------------------------------------------------------
                       ORCA ELECTRIC PROPERTIES CALCULATION
------------------------------------------------------------------------------

Dipole Moment Calculation                       ... on
Quadrupole Moment Calculation                   ... off
Polarizability Calculation                      ... off
GBWName                                         ... 12h2o.su.etal.mol4,5-orca.engrad-mp2.def2tzvp.frozencore.gbw
Electron density file                           ... 12h2o.su.etal.mol4,5-orca.engrad-mp2.def2tzvp.frozencore.pmp2ur
The origin for moment calculation is the CENTER OF MASS  = (-0.000000, -0.000000  0.001287)

-------------
DIPOLE MOMENT
-------------
                                X             Y             Z
Electronic contribution:     -0.00000       0.00000       0.24562
Nuclear contribution   :     -0.00000       0.00000      -1.54856
                        -----------------------------------------
Total Dipole Moment    :     -0.00000       0.00000      -1.30293
                        -----------------------------------------
Magnitude (a.u.)       :      1.30293
Magnitude (Debye)      :      3.31180



--------------------
Rotational spectrum 
--------------------
 
Rotational constants in cm-1:     6.321745     0.122664     0.122335 
Rotational constants in MHz : 189521.149489  3677.382004  3667.500773 

 Dipole components along the rotational axes: 
x,y,z [a.u.] :    -0.000000    -1.302935     0.000000 
x,y,z [Debye]:    -0.000000    -3.311797     0.000000 

 

                           *** MP2 RELAXED DENSITY ***

------------------------------------------------------------------------------
                       ORCA ELECTRIC PROPERTIES CALCULATION
------------------------------------------------------------------------------

Dipole Moment Calculation                       ... on
Quadrupole Moment Calculation                   ... off
Polarizability Calculation                      ... off
GBWName                                         ... 12h2o.su.etal.mol4,5-orca.engrad-mp2.def2tzvp.frozencore.gbw
Electron density file                           ... 12h2o.su.etal.mol4,5-orca.engrad-mp2.def2tzvp.frozencore.pmp2re
The origin for moment calculation is the CENTER OF MASS  = (-0.000000, -0.000000  0.001287)

-------------
DIPOLE MOMENT
-------------
                                X             Y             Z
Electronic contribution:     -0.00000       0.00000       0.26216
Nuclear contribution   :     -0.00000       0.00000      -1.54856
                        -----------------------------------------
Total Dipole Moment    :     -0.00000       0.00000      -1.28639
                        -----------------------------------------
Magnitude (a.u.)       :      1.28639
Magnitude (Debye)      :      3.26975



--------------------
Rotational spectrum 
--------------------
 
Rotational constants in cm-1:     6.321745     0.122664     0.122335 
Rotational constants in MHz : 189521.149489  3677.382004  3667.500773 

 Dipole components along the rotational axes: 
x,y,z [a.u.] :    -0.000000    -1.286392     0.000000 
x,y,z [Debye]:    -0.000000    -3.269749     0.000000 

 

Timings for individual modules:

Sum of individual times         ...        5.505 sec (=   0.092 min)
GTO integral calculation        ...        0.998 sec (=   0.017 min)  18.1 %
SCF iterations                  ...        2.181 sec (=   0.036 min)  39.6 %
MP2 module                      ...        2.327 sec (=   0.039 min)  42.3 %
                             ****ORCA TERMINATED NORMALLY****
TOTAL RUN TIME: 0 days 0 hours 0 minutes 6 seconds 428 msec
