13
Energy:   -310.84777296
O    1.39503064  -2.41856867   2.11589782
H    1.26420768  -2.63530592   3.03901328
H    2.05582678  -3.04197534   1.81432786
O   -0.89966645   2.33845849  -1.54162241
H   -0.63263068   2.59375309  -2.42465605
H   -1.67824771   2.86629236  -1.36432469
O   -1.01950342  -1.40883268  -0.95550815
H   -1.20955916  -0.78691419  -1.65788131
H   -1.46169548  -2.21473263  -1.22238505
O    0.62128410   1.44123037   0.56073133
H    1.07895794   2.18084660   0.96039911
H    0.14147916   1.82435462  -0.17359481
Na   0.32878117  -0.80376742   0.84779788
