13
Energy:   -311.16048415
O   -0.43290244  -0.75678322   1.19983376
H    0.00901635  -0.03423423   1.64577388
H   -0.77175199  -1.30449441   1.90794765
O    0.95724695   1.33760591   2.27782593
H    0.59994117   2.13583468   2.66692136
H    1.72699402   1.13518504   2.80956561
O   -1.71156364  -1.94633266  -2.39595764
H   -2.60602416  -1.78343748  -2.69535266
H   -1.47995447  -2.79170201  -2.78058694
O    1.10517630   1.24401561  -1.22741743
H    1.39721936   1.82707400  -1.92812108
H    1.59033105   1.53496649  -0.45527476
Na  -0.38231496  -0.59937413  -1.06663483
