13
Energy:   -313.00201757
O   -1.19306738   1.02163933   0.80053968
H   -1.69706485   1.49342959   1.46358745
H   -1.28457936   1.55067659   0.00808970
O    0.61047480  -2.05238374   2.81429454
H    0.63891062  -1.67215411   3.69227443
H    0.63666645  -2.99786992   2.96126981
O    0.82761472  -0.77658752  -1.29376213
H    1.19235256  -1.31911044  -1.99295241
H    0.49201374  -0.00052292  -1.74245753
O   -0.14485715   1.60508119  -2.23434886
H   -0.73658893   1.66455486  -2.98438102
H    0.45525406   2.34283962  -2.34302676
Na   0.16714258  -0.84505158   0.90637676
