13
Energy:   -312.61881523
O   -1.63085562   0.56088289  -2.25243812
H   -2.56821126   0.37122198  -2.29274951
H   -1.45997134   1.09272618  -3.02972385
O    0.13221530  -1.06253115  -0.88736803
H   -0.47774728  -0.58746906  -1.45172032
H    0.46104104  -1.77503317  -1.43549790
O   -0.55256224   1.64781881   0.61675236
H   -0.73709615   2.52624537   0.94923674
H   -0.89101434   1.65409886  -0.27859259
O    2.11241814  -1.23433706   2.73081419
H    3.03231164  -1.30253566   2.47512543
H    2.08730465  -1.56760278   3.62777300
Na   0.51746427  -0.31058784   1.25766429
