13
Energy:   -311.52665582
O   -1.37641023  -0.80600004  -0.02157137
H   -2.10809239  -1.42302130  -0.00900820
H   -1.48241141  -0.29170757   0.77874035
O    1.27334628  -1.13831247  -3.02234533
H    0.79673848  -1.06878799  -3.84953528
H    2.02657107  -1.69303092  -3.22525346
O   -1.33284932   0.76951430   2.26579281
H   -2.08083453   1.34424785   2.42836996
H   -1.19769502   0.31111561   3.09515148
O    1.50823746   1.20198432   0.54551505
H    2.40152889   1.47593228   0.75339671
H    0.97079256   1.59341940   1.23411029
Na   0.63347433  -0.32734769  -0.95468658
