
                                 *****************
                                 * O   R   C   A *
                                 *****************

           --- An Ab Initio, DFT and Semiempirical electronic structure package ---

                  #######################################################
                  #                        -***-                        #
                  #  Department of molecular theory and spectroscopy    #
                  #              Directorship: Frank Neese              #
                  # Max Planck Institute for Chemical Energy Conversion #
                  #                  D-45470 Muelheim/Ruhr              #
                  #                       Germany                       #
                  #                                                     #
                  #                  All rights reserved                #
                  #                        -***-                        #
                  #######################################################


                         Program Version 3.0.3 - RELEASE   -


 With contributions from (in alphabetic order):
   Ute Becker             : Parallelization
   Dmytro Bykov           : SCF Hessian
   Dmitry Ganyushin       : Spin-Orbit,Spin-Spin,Magnetic field MRCI
   Andreas Hansen         : Spin unrestricted coupled pair/coupled cluster methods
   Dimitrios Liakos       : Extrapolation schemes; parallel MDCI
   Robert Izsak           : Overlap fitted RIJCOSX, COSX-SCS-MP3
   Christian Kollmar      : KDIIS, OOCD, Brueckner-CCSD(T), CCSD density
   Simone Kossmann        : Meta GGA functionals, TD-DFT gradient, OOMP2, MP2 Hessian
   Taras Petrenko         : DFT Hessian,TD-DFT gradient, ASA and ECA modules, normal mode analysis, Resonance Raman, ABS, FL, XAS/XES, NRVS
   Christoph Reimann      : Effective Core Potentials
   Michael Roemelt        : Restricted open shell CIS
   Christoph Riplinger    : Improved optimizer, TS searches, QM/MM, DLPNO-CCSD
   Barbara Sandhoefer     : DKH picture change effects
   Igor Schapiro          : Molecular dynamics
   Kantharuban Sivalingam : CASSCF convergence, NEVPT2
   Boris Wezisla          : Elementary symmetry handling
   Frank Wennmohs         : Technical directorship


 We gratefully acknowledge several colleagues who have allowed us to
 interface, adapt or use parts of their codes:
   Stefan Grimme, W. Hujo, H. Kruse, T. Risthaus : VdW corrections, initial TS optimization,
                                                   DFT functionals, gCP
   Ed Valeev                                     : LibInt (2-el integral package), F12 methods
   Garnet Chan, S. Sharma, R. Olivares           : DMRG
   Ulf Ekstrom                                   : XCFun DFT Library
   Mihaly Kallay                                 : mrcc  (arbitrary order and MRCC methods)
   Andreas Klamt, Michael Diedenhofen            : otool_cosmo (COSMO solvation model)
   Frank Weinhold                                : gennbo (NPA and NBO analysis)
   Christopher J. Cramer and Donald G. Truhlar   : smd solvation model


 Your calculation uses the libint2 library for the computation of 2-el integrals
 For citations please refer to: http://libint.valeyev.net

 This ORCA versions uses:
   CBLAS   interface :  Fast vector & matrix operations
   LAPACKE interface :  Fast linear algebra routines
   SCALAPACK package :  Parallel linear algebra routines


Your calculation utilizes the basis: Ahlrichs-TZV
Cite in your paper:
H - Kr: A. Schaefer, H. Horn and R. Ahlrichs, J. Chem. Phys. 97, 2571 (1992).

The def2-TZV basis will be loaded
Cite in your paper:
 	F. Weigend, R. Ahlrichs, Phys. Chem. Chem. Phys. 2005, 7, 3297.

Your calculation utilizes the atom-pairwise dispersion correction
with the Becke-Johnson damping scheme (D3BJ)
Cite in your paper:
S.Grimme, S.Ehrlich, L.Goerigk, J Comput Chem, (2011), 32, 1456–1465 
S.Grimme, J.Antony, S.Ehrlich and H.Krieg, J.Chem.Phys., 132, (2010), 154104 
   

================================================================================
                                        WARNINGS
                       Please study these warnings very carefully!
================================================================================
Now building the actual basis set


INFO   : the flag for use of LIBINT has been found!

================================================================================
                                       INPUT FILE
================================================================================
NAME = 2_B3LYP_SMD_onBP86_SMD_8_waters.inp
|  1> ! B3LYP Def2-TZVP def2-TZVP/J RIJCOSX TightSCF Grid4 D3BJ COSMO
|  2> 
|  3> %pal nprocs 12 end
|  4> 
|  5> %scf
|  6>         maxiter 400
|  7> end
|  8> 
|  9> %cosmo
| 10>         SMD true
| 11>         solvent "WATER"
| 12> end
| 13> 
| 14> * xyz  0  1
| 15> O  1.886588	1.183364	0.226222
| 16> H  1.233332	1.206647	1.022388
| 17> H  2.647150	1.735918	0.493454
| 18> O  0.084505	1.062040	2.101507
| 19> H  -0.693324	1.282427	1.506582
| 20> H  0.039891	0.060459	2.122993
| 21> O  -0.060142	-1.577541	1.601126
| 22> H  0.715960	-1.629618	0.922603
| 23> H  0.057139	-2.345963	2.193466
| 24> O  -1.789741	1.353269	0.192822
| 25> H  -1.986384	0.355778	0.025982
| 26> H  -2.663736	1.780866	0.285098
| 27> O  1.837395	-1.476059	-0.170970
| 28> H  2.057380	-0.511936	-0.002220
| 29> H  1.231853	-1.401188	-0.968460
| 30> O  0.087052	1.627434	-1.724938
| 31> H  0.853366	1.609100	-1.077504
| 32> H  -0.698363	1.679069	-1.105506
| 33> O  -0.045654	-0.955952	-2.019984
| 34> H  0.028139	0.072618	-2.010101
| 35> H  -0.034427	-1.211054	-2.963491
| 36> O  -2.023533	-1.210322	-0.204328
| 37> H  -1.404735	-1.231062	-0.992298
| 38> H  -1.404866	-1.472591	0.541001
| 39> **                         ****END OF INPUT****
================================================================================

                       ****************************
                       * Single Point Calculation *
                       ****************************

---------------------------------
CARTESIAN COORDINATES (ANGSTROEM)
---------------------------------
  O      1.886588    1.183364    0.226222
  H      1.233332    1.206647    1.022388
  H      2.647150    1.735918    0.493454
  O      0.084505    1.062040    2.101507
  H     -0.693324    1.282427    1.506582
  H      0.039891    0.060459    2.122993
  O     -0.060142   -1.577541    1.601126
  H      0.715960   -1.629618    0.922603
  H      0.057139   -2.345963    2.193466
  O     -1.789741    1.353269    0.192822
  H     -1.986384    0.355778    0.025982
  H     -2.663736    1.780866    0.285098
  O      1.837395   -1.476059   -0.170970
  H      2.057380   -0.511936   -0.002220
  H      1.231853   -1.401188   -0.968460
  O      0.087052    1.627434   -1.724938
  H      0.853366    1.609100   -1.077504
  H     -0.698363    1.679069   -1.105506
  O     -0.045654   -0.955952   -2.019984
  H      0.028139    0.072618   -2.010101
  H     -0.034427   -1.211054   -2.963491
  O     -2.023533   -1.210322   -0.204328
  H     -1.404735   -1.231062   -0.992298
  H     -1.404866   -1.472591    0.541001

----------------------------
CARTESIAN COORDINATES (A.U.)
----------------------------
  NO LB      ZA    FRAG    MASS        X           Y           Z
   0 O     8.0000    0    15.999          3.565134647542226          2.236233876741588          0.427497625467933
   1 H     1.0000    0     1.008          2.330659712201365          2.280232370317677          1.932033322607481
   2 H     1.0000    0     1.008          5.002388535409641          3.280409610944311          0.932492919687977
   3 O     8.0000    0    15.999          0.159691306947015          2.006964743269726          3.971272698518447
   4 H     1.0000    0     1.008         -1.310192482074818          2.423435816746229          2.847027378295347
   5 H     1.0000    0     1.008          0.075383065208253          0.114250952330745          4.011875354231880
   6 O     8.0000    0    15.999         -0.113651909146292         -2.981120455032265          3.025689645900798
   7 H     1.0000    0     1.008          1.352968322842259         -3.079531722908482          1.743467000334148
   8 H     1.0000    0     1.008          0.107977061566126         -4.433227590312301          4.145050024067712
   9 O     8.0000    0    15.999         -3.382120340650355          2.557307795525479          0.364380772594964
  10 H     1.0000    0     1.008         -3.753721756803031          0.672322984474235          0.049098864411542
  11 H     1.0000    0     1.008         -5.033731533066859          3.365349021211804          0.538757141328681
  12 O     8.0000    0    15.999          3.472173349836238         -2.789347267509669         -0.323086477116516
  13 H     1.0000    0     1.008          3.887884753406905         -0.967418838095110         -0.004195192017305
  14 H     1.0000    0     1.008          2.327864807249296         -2.647861582136851         -1.830124171657375
  15 O     8.0000    0    15.999          0.164504439410113          3.075404561031998         -3.259660417993856
  16 H     1.0000    0     1.008          1.612628031999843          3.040758322092686         -2.036187468204684
  17 H     1.0000    0     1.008         -1.319714812063647          3.172980569957022         -2.089103579406748
  18 O     8.0000    0    15.999         -0.086273556918041         -1.806487477174288         -3.817216554902786
  19 H     1.0000    0     1.008          0.053175003682410          0.137228132393093         -3.798540391521242
  20 H     1.0000    0     1.008         -0.065057601612507         -2.288560393389868         -5.600186390340424
  21 O     8.0000    0    15.999         -3.823923192952072         -2.287177113859837         -0.386123961491862
  22 H     1.0000    0     1.008         -2.654564440733870         -2.326370033877364         -1.875171463237790
  23 H     1.0000    0     1.008         -2.654811994857413         -2.782793697277230          1.022343728177531

--------------------------------
INTERNAL COORDINATES (ANGSTROEM)
--------------------------------
 O      0   0   0   0.000000     0.000     0.000
 H      1   0   0   1.030129     0.000     0.000
 H      1   2   0   0.977335   105.628     0.000
 O      2   1   3   1.582786   170.115   185.049
 H      4   2   1   1.003755    97.950   305.181
 H      4   2   1   1.002804    97.941    47.939
 O      6   4   2   1.722032   161.108   310.499
 H      7   6   4   1.032201   101.743    53.242
 H      7   6   4   0.977289   123.866   171.264
 O      5   4   2   1.712634   163.707    45.469
 H     10   5   4   1.030288   101.909    52.591
 H     10   5   4   0.977354   121.209   169.222
 O      8   7   6   1.573880   170.956   324.074
 H     13   8   7   1.003196    97.651    36.232
 H     13   8   7   1.004130    97.436   293.810
 O      1   2   3   2.691199    97.619   226.170
 H     16   1   2   1.003366    11.028   127.784
 H     16   1   2   1.001618    94.846   359.586
 O     15  13   8   1.713465   163.016    45.433
 H     19  15  13   1.031261   101.533    54.154
 H     19  15  13   0.977450   121.064   170.456
 O     11  10   5   1.583380   170.276   315.421
 H     22  11  10   1.002117    96.913   302.106
 H     22  11  10   1.003518    97.817    44.690

---------------------------
INTERNAL COORDINATES (A.U.)
---------------------------
 O      0   0   0   0.000000     0.000     0.000
 H      1   0   0   1.946662     0.000     0.000
 H      1   2   0   1.846895   105.628     0.000
 O      2   1   3   2.991033   170.115   185.049
 H      4   2   1   1.896822    97.950   305.181
 H      4   2   1   1.895026    97.941    47.939
 O      6   4   2   3.254170   161.108   310.499
 H      7   6   4   1.950578   101.743    53.242
 H      7   6   4   1.846809   123.866   171.264
 O      5   4   2   3.236409   163.707    45.469
 H     10   5   4   1.946961   101.909    52.591
 H     10   5   4   1.846932   121.209   169.222
 O      8   7   6   2.974202   170.956   324.074
 H     13   8   7   1.895767    97.651    36.232
 H     13   8   7   1.897531    97.436   293.810
 O      1   2   3   5.085630    97.619   226.170
 H     16   1   2   1.896088    11.028   127.784
 H     16   1   2   1.892784    94.846   359.586
 O     15  13   8   3.237979   163.016    45.433
 H     19  15  13   1.948801   101.533    54.154
 H     19  15  13   1.847113   121.064   170.456
 O     11  10   5   2.992154   170.276   315.421
 H     22  11  10   1.893726    96.913   302.106
 H     22  11  10   1.896375    97.817    44.690

---------------------
BASIS SET INFORMATION
---------------------
There are 2 groups of distinct atoms

 Group   1 Type O   : 11s6p2d1f contracted to 5s3p2d1f pattern {62111/411/11/1}
 Group   2 Type H   : 5s1p contracted to 3s1p pattern {311/1}

Atom   0O    basis set group =>   1
Atom   1H    basis set group =>   2
Atom   2H    basis set group =>   2
Atom   3O    basis set group =>   1
Atom   4H    basis set group =>   2
Atom   5H    basis set group =>   2
Atom   6O    basis set group =>   1
Atom   7H    basis set group =>   2
Atom   8H    basis set group =>   2
Atom   9O    basis set group =>   1
Atom  10H    basis set group =>   2
Atom  11H    basis set group =>   2
Atom  12O    basis set group =>   1
Atom  13H    basis set group =>   2
Atom  14H    basis set group =>   2
Atom  15O    basis set group =>   1
Atom  16H    basis set group =>   2
Atom  17H    basis set group =>   2
Atom  18O    basis set group =>   1
Atom  19H    basis set group =>   2
Atom  20H    basis set group =>   2
Atom  21O    basis set group =>   1
Atom  22H    basis set group =>   2
Atom  23H    basis set group =>   2
-------------------------------
AUXILIARY BASIS SET INFORMATION
-------------------------------
There are 2 groups of distinct atoms

 Group   1 Type O   : 12s5p4d2f1g contracted to 6s4p3d1f1g pattern {711111/2111/211/2/1}
 Group   2 Type H   : 5s2p1d contracted to 3s1p1d pattern {311/2/1}

Atom   0O    basis set group =>   1
Atom   1H    basis set group =>   2
Atom   2H    basis set group =>   2
Atom   3O    basis set group =>   1
Atom   4H    basis set group =>   2
Atom   5H    basis set group =>   2
Atom   6O    basis set group =>   1
Atom   7H    basis set group =>   2
Atom   8H    basis set group =>   2
Atom   9O    basis set group =>   1
Atom  10H    basis set group =>   2
Atom  11H    basis set group =>   2
Atom  12O    basis set group =>   1
Atom  13H    basis set group =>   2
Atom  14H    basis set group =>   2
Atom  15O    basis set group =>   1
Atom  16H    basis set group =>   2
Atom  17H    basis set group =>   2
Atom  18O    basis set group =>   1
Atom  19H    basis set group =>   2
Atom  20H    basis set group =>   2
Atom  21O    basis set group =>   1
Atom  22H    basis set group =>   2
Atom  23H    basis set group =>   2
smp-n90.crc.pitt.edu.428963hfi_wait_for_device: The /dev/hfi1_0 device failed to appear after 15.0 seconds: Connection timed out
smp-n90.crc.pitt.edu.428966hfi_wait_for_device: The /dev/hfi1_0 device failed to appear after 15.0 seconds: Connection timed out
smp-n90.crc.pitt.edu.428947hfi_wait_for_device: The /dev/hfi1_0 device failed to appear after 15.0 seconds: Connection timed out
smp-n90.crc.pitt.edu.428950hfi_wait_for_device: The /dev/hfi1_0 device failed to appear after 15.0 seconds: Connection timed out
smp-n90.crc.pitt.edu.428955hfi_wait_for_device: The /dev/hfi1_0 device failed to appear after 15.0 seconds: Connection timed out
smp-n90.crc.pitt.edu.428959hfi_wait_for_device: The /dev/hfi1_0 device failed to appear after 15.0 seconds: Connection timed out
smp-n90.crc.pitt.edu.428948hfi_wait_for_device: The /dev/hfi1_0 device failed to appear after 15.0 seconds: Connection timed out
smp-n90.crc.pitt.edu.428946hfi_wait_for_device: The /dev/hfi1_0 device failed to appear after 15.0 seconds: Connection timed out
smp-n90.crc.pitt.edu.428951hfi_wait_for_device: The /dev/hfi1_0 device failed to appear after 15.0 seconds: Connection timed out
smp-n90.crc.pitt.edu.428956hfi_wait_for_device: The /dev/hfi1_0 device failed to appear after 15.0 seconds: Connection timed out
smp-n90.crc.pitt.edu.428964hfi_wait_for_device: The /dev/hfi1_0 device failed to appear after 15.0 seconds: Connection timed out
smp-n90.crc.pitt.edu.428960hfi_wait_for_device: The /dev/hfi1_0 device failed to appear after 15.0 seconds: Connection timed out


           ************************************************************
           *        Program running with 12 parallel MPI-processes    *
           *              working on a common directory               *
           ************************************************************
------------------------------------------------------------------------------
                           ORCA GTO INTEGRAL CALCULATION
                           -- RI-GTO INTEGRALS CHOSEN --
------------------------------------------------------------------------------

                         BASIS SET STATISTICS AND STARTUP INFO

Gaussian basis set:
 # of primitive gaussian shells          ...  256
 # of primitive gaussian functions       ...  496
 # of contracted shells                  ...  152
 # of contracted basis functions         ...  344
 Highest angular momentum                ...    3
 Maximum contraction depth               ...    6
Auxiliary gaussian basis set:
 # of primitive gaussian shells          ...  320
 # of primitive gaussian functions       ...  816
 # of contracted shells                  ...  200
 # of contracted aux-basis functions     ...  568
 Highest angular momentum                ...    4
 Maximum contraction depth               ...    7
Ratio of auxiliary to basis functions    ...  1.65
Integral package used                  ... LIBINT
 One Electron integrals                  ... done
 Ordering auxiliary basis shells         ... done
 Integral threshhold             Thresh  ...  2.500e-11
 Primitive cut-off               TCut    ...  2.500e-12
 Pre-screening matrix                    ... done
 Shell pair data                         ... 
 Ordering of the shell pairs             ... done (   0.001 sec) 10024 of 11628 pairs
 Determination of significant pairs      ... done (   0.000 sec)
 Creation of shell pair data             ... done (   0.001 sec)
 Storage of shell pair data              ... done (   0.002 sec)
 Shell pair data done in (   0.004 sec)
 Computing two index integrals           ... done
 Cholesky decomposition of the V-matrix  ... done


Timings:
 Total evaluation time                   ...   0.608 sec (  0.010 min)
 One electron matrix time                ...   0.139 sec (  0.002 min) = 22.8%
 Schwartz matrix evaluation time         ...   0.140 sec (  0.002 min) = 23.1%
 Two index repulsion integral time       ...   0.241 sec (  0.004 min) = 39.6%
 Cholesky decomposition of V             ...   0.044 sec (  0.001 min) =  7.2%
 Three index repulsion integral time     ...   0.000 sec (  0.000 min) =  0.0%

           ************************************************************
           *              Shut down parallel processing               *
           ************************************************************
smp-n90.crc.pitt.edu.429001hfi_wait_for_device: The /dev/hfi1_0 device failed to appear after 15.0 seconds: Connection timed out
smp-n90.crc.pitt.edu.428986hfi_wait_for_device: The /dev/hfi1_0 device failed to appear after 15.0 seconds: Connection timed out
smp-n90.crc.pitt.edu.428989hfi_wait_for_device: The /dev/hfi1_0 device failed to appear after 15.0 seconds: Connection timed out
smp-n90.crc.pitt.edu.428993hfi_wait_for_device: The /dev/hfi1_0 device failed to appear after 15.0 seconds: Connection timed out
smp-n90.crc.pitt.edu.428997hfi_wait_for_device: The /dev/hfi1_0 device failed to appear after 15.0 seconds: Connection timed out
smp-n90.crc.pitt.edu.429005hfi_wait_for_device: The /dev/hfi1_0 device failed to appear after 15.0 seconds: Connection timed out
smp-n90.crc.pitt.edu.428987hfi_wait_for_device: The /dev/hfi1_0 device failed to appear after 15.0 seconds: Connection timed out
smp-n90.crc.pitt.edu.428985hfi_wait_for_device: The /dev/hfi1_0 device failed to appear after 15.0 seconds: Connection timed out
smp-n90.crc.pitt.edu.428990hfi_wait_for_device: The /dev/hfi1_0 device failed to appear after 15.0 seconds: Connection timed out
smp-n90.crc.pitt.edu.428994hfi_wait_for_device: The /dev/hfi1_0 device failed to appear after 15.0 seconds: Connection timed out
smp-n90.crc.pitt.edu.428998hfi_wait_for_device: The /dev/hfi1_0 device failed to appear after 15.0 seconds: Connection timed out
smp-n90.crc.pitt.edu.429002hfi_wait_for_device: The /dev/hfi1_0 device failed to appear after 15.0 seconds: Connection timed out


           ************************************************************
           *        Program running with 12 parallel MPI-processes    *
           *              working on a common directory               *
           ************************************************************
-------------------------------------------------------------------------------
                                 ORCA SCF
-------------------------------------------------------------------------------

------------
SCF SETTINGS
------------
Hamiltonian:
 Density Functional     Method          .... DFT(GTOs)
 Exchange Functional    Exchange        .... B88
   X-Alpha parameter    XAlpha          ....  0.666667
   Becke's b parameter  XBeta           ....  0.004200
 Correlation Functional Correlation     .... LYP
 LDA part of GGA corr.  LDAOpt          .... VWN-5
 Gradients option       PostSCFGGA      .... off
 Hybrid DFT is turned on
   Fraction HF Exchange ScalHFX         ....  0.200000
   Scaling of DF-GGA-X  ScalDFX         ....  0.720000
   Scaling of DF-GGA-C  ScalDFC         ....  0.810000
   Scaling of DF-LDA-C  ScalLDAC        ....  1.000000
   Perturbative correction              ....  0.000000
   NL short-range parameter             ....  4.800000
 RI-approximation to the Coulomb term is turned on
   Number of auxiliary basis functions  .... 568
   RIJ-COSX (HFX calculated with COS-X)).... on


General Settings:
 Integral files         IntName         .... 2_B3LYP_SMD_onBP86_SMD_8_waters
 Hartree-Fock type      HFTyp           .... RHF
 Total Charge           Charge          ....    0
 Multiplicity           Mult            ....    1
 Number of Electrons    NEL             ....   80
 Basis Dimension        Dim             ....  344
 Nuclear Repulsion      ENuc            ....    529.1967107908 Eh

Convergence Acceleration:
 DIIS                   CNVDIIS         .... on
   Start iteration      DIISMaxIt       ....    12
   Startup error        DIISStart       ....  0.200000
   # of expansion vecs  DIISMaxEq       ....     5
   Bias factor          DIISBfac        ....   1.050
   Max. coefficient     DIISMaxC        ....  10.000
 Newton-Raphson         CNVNR           .... off
 SOSCF                  CNVSOSCF        .... on
   Start iteration      SOSCFMaxIt      ....   150
   Startup grad/error   SOSCFStart      ....  0.003300
 Level Shifting         CNVShift        .... on
   Level shift para.    LevelShift      ....    0.2500
   Turn off err/grad.   ShiftErr        ....    0.0010
 Zerner damping         CNVZerner       .... off
 Static damping         CNVDamp         .... on
   Fraction old density DampFac         ....    0.7000
   Max. Damping (<1)    DampMax         ....    0.9800
   Min. Damping (>=0)   DampMin         ....    0.0000
   Turn off err/grad.   DampErr         ....    0.1000
 Fernandez-Rico         CNVRico         .... off

SCF Procedure:
 Maximum # iterations   MaxIter         ....   400
 SCF integral mode      SCFMode         .... Direct
   Integral package                     .... LIBINT
 Reset frequeny         DirectResetFreq ....    20
 Integral Threshold     Thresh          ....  2.500e-11 Eh
 Primitive CutOff       TCut            ....  2.500e-12 Eh

Convergence Tolerance:
 Convergence Check Mode ConvCheckMode   .... Total+1el-Energy
 Energy Change          TolE            ....  1.000e-08 Eh
 1-El. energy change                    ....  1.000e-05 Eh
 Orbital Gradient       TolG            ....  1.000e-05
 Orbital Rotation angle TolX            ....  1.000e-05
 DIIS Error             TolErr          ....  5.000e-07


Diagonalization of the overlap matrix:
Smallest eigenvalue                        ... 2.971e-03
Time for diagonalization                   ...    0.383 sec
Threshold for overlap eigenvalues          ... 1.000e-08
Number of eigenvalues below threshold      ... 0
Time for construction of square roots      ...    0.057 sec
Total time needed                          ...    0.440 sec

-------------------
DFT GRID GENERATION
-------------------

General Integration Accuracy     IntAcc      ...  4.670
Radial Grid Type                 RadialGrid  ... Gauss-Chebyshev
Angular Grid (max. acc.)         AngularGrid ... Lebedev-302
Angular grid pruning method      GridPruning ... 3 (G Style)
Weight generation scheme         WeightScheme... Becke
Basis function cutoff            BFCut       ...    1.0000e-11
Integration weight cutoff        WCut        ...    1.0000e-14
Grids for H and He will be reduced by one unit

# of grid points (after initial pruning)     ... 104000 (   0.1 sec)
# of grid points (after weights+screening)   ...  93314 (   0.4 sec)
nearest neighbour list constructed           ...    0.0 sec
Grid point re-assignment to atoms done       ...    0.0 sec
Grid point division into batches done        ...    0.4 sec
Reduced shell lists constructed in    0.6 sec

Total number of grid points                  ...    93314
Total number of batches                      ...     1470
Average number of points per batch           ...       63
Average number of grid points per atom       ...     3888
Average number of shells per batch           ...    83.07 (54.65%)
Average number of basis functions per batch  ...   172.07 (50.02%)
Average number of large shells per batch     ...    59.48 (71.59%)
Average number of large basis fcns per batch ...   116.54 (67.73%)
Maximum spatial batch extension              ...  13.83, 14.17, 13.27 au
Average spatial batch extension              ...   0.18,  0.18,  0.19 au

Time for grid setup =    1.579 sec

------------------------------
INITIAL GUESS: MODEL POTENTIAL
------------------------------
Loading Hartree-Fock densities                     ... done
Calculating cut-offs                               ... done
Setting up the integral package                    ... done
Initializing the effective Hamiltonian             ... done
Starting the Coulomb interaction                   ... done (   0.0 sec)
Reading the grid                                   ... done
Mapping shells                                     ... done
Starting the XC term evaluation                    ... done (   0.6 sec)
  promolecular density results
     # of electrons  =     79.990539561
     EX              =    -70.324181624
     EC              =     -2.771709734
     EX+EC           =    -73.095891357
Transforming the Hamiltonian                       ... done (   0.0 sec)
Diagonalizing the Hamiltonian                      ... done (   0.2 sec)
Back transforming the eigenvectors                 ... done (   0.0 sec)
Now organizing SCF variables                       ... done
                      ------------------
                      INITIAL GUESS DONE (   2.5 sec)
                      ------------------
--------------------
COSX GRID GENERATION
--------------------

General Integration Accuracy     IntAcc      ...  3.340
Radial Grid Type                 RadialGrid  ... Gauss-Chebyshev
Angular Grid (max. acc.)         AngularGrid ... Lebedev-50
Angular grid pruning method      GridPruning ... 3 (G Style)
Weight generation scheme         WeightScheme... Becke
Basis function cutoff            BFCut       ...    1.0000e-11
Integration weight cutoff        WCut        ...    1.0000e-14
Grids for H and He will be reduced by one unit

# of grid points (after initial pruning)     ...   9760 (   0.0 sec)
# of grid points (after weights+screening)   ...   8873 (   0.3 sec)
nearest neighbour list constructed           ...    0.0 sec
Grid point re-assignment to atoms done       ...    0.0 sec
Grid point division into batches done        ...    0.0 sec
Reduced shell lists constructed in    0.0 sec

Total number of grid points                  ...     8873
Total number of batches                      ...      152
Average number of points per batch           ...       58
Average number of grid points per atom       ...      370
Average number of shells per batch           ...    92.21 (60.67%)
Average number of basis functions per batch  ...   197.79 (57.50%)
Average number of large shells per batch     ...    67.07 (72.73%)
Average number of large basis fcns per batch ...   133.93 (67.71%)
Maximum spatial batch extension              ...  11.60, 12.45, 16.21 au
Average spatial batch extension              ...   0.32,  0.37,  0.38 au

Overlap Fitting                  UseSFitting ... on
Constructing numerical overlap ... done (      0.1 sec)
Inverting numerical overlap    ... done (      0.0 sec)
Obtaining analytic overlap     ... done (      0.1 sec)
Final contraction and storage  ... done (      0.0 sec)


General Integration Accuracy     IntAcc      ...  3.670
Radial Grid Type                 RadialGrid  ... Gauss-Chebyshev
Angular Grid (max. acc.)         AngularGrid ... Lebedev-50
Angular grid pruning method      GridPruning ... 3 (G Style)
Weight generation scheme         WeightScheme... Becke
Basis function cutoff            BFCut       ...    1.0000e-11
Integration weight cutoff        WCut        ...    1.0000e-14
Grids for H and He will be reduced by one unit

# of grid points (after initial pruning)     ...  12816 (   0.0 sec)
# of grid points (after weights+screening)   ...  11645 (   0.3 sec)
nearest neighbour list constructed           ...    0.0 sec
Grid point re-assignment to atoms done       ...    0.0 sec
Grid point division into batches done        ...    0.0 sec
Reduced shell lists constructed in    0.0 sec

Total number of grid points                  ...    11645
Total number of batches                      ...      194
Average number of points per batch           ...       60
Average number of grid points per atom       ...      485
Average number of shells per batch           ...    93.33 (61.40%)
Average number of basis functions per batch  ...   200.11 (58.17%)
Average number of large shells per batch     ...    67.06 (71.85%)
Average number of large basis fcns per batch ...   135.06 (67.49%)
Maximum spatial batch extension              ...  11.48, 13.46, 18.42 au
Average spatial batch extension              ...   0.29,  0.32,  0.32 au

Overlap Fitting                  UseSFitting ... on
Constructing numerical overlap ... done (      0.2 sec)
Inverting numerical overlap    ... done (      0.0 sec)
Obtaining analytic overlap     ... done (      0.1 sec)
Final contraction and storage  ... done (      0.1 sec)


General Integration Accuracy     IntAcc      ...  4.010
Radial Grid Type                 RadialGrid  ... Gauss-Chebyshev
Angular Grid (max. acc.)         AngularGrid ... Lebedev-110
Angular grid pruning method      GridPruning ... 3 (G Style)
Weight generation scheme         WeightScheme... Becke
Basis function cutoff            BFCut       ...    1.0000e-11
Integration weight cutoff        WCut        ...    1.0000e-14
Grids for H and He will be reduced by one unit

# of grid points (after initial pruning)     ...  22064 (   0.0 sec)
# of grid points (after weights+screening)   ...  20157 (   0.3 sec)
nearest neighbour list constructed           ...    0.0 sec
Grid point re-assignment to atoms done       ...    0.0 sec
Grid point division into batches done        ...    0.0 sec
Reduced shell lists constructed in    0.1 sec

Total number of grid points                  ...    20157
Total number of batches                      ...      324
Average number of points per batch           ...       62
Average number of grid points per atom       ...      840
Average number of shells per batch           ...    91.36 (60.10%)
Average number of basis functions per batch  ...   193.71 (56.31%)
Average number of large shells per batch     ...    66.50 (72.79%)
Average number of large basis fcns per batch ...   133.07 (68.69%)
Maximum spatial batch extension              ...  11.41, 15.32, 18.29 au
Average spatial batch extension              ...   0.24,  0.26,  0.28 au

Overlap Fitting                  UseSFitting ... on
Constructing numerical overlap ... done (      0.3 sec)
Inverting numerical overlap    ... done (      0.0 sec)
Obtaining analytic overlap     ... done (      0.1 sec)
Final contraction and storage  ... done (      0.1 sec)

Time for X-Grid setup             =    3.146 sec

--------------------
COSMO INITIALIZATION
--------------------

Epsilon                                      ...   78.3550
Refractive Index                             ...    1.3300
Potential Evaluation                         ...  ANALYTIC
Technical COSMO parameters:
  rsolv                                      ...    1.3000
  routf                                      ...    0.8500
  disex                                      ...   10.0000
  nppa                                       ... 1082   
  nspa                                       ...   92   
Solvent:                                     ... WATER
Solvent:                                     ... WATER
SMD-CDS solvent descriptors:
  Soln                                       ...    1.3328
  Soln25                                     ...    1.3323
  Sola                                       ...    0.0000
  Solb                                       ...    0.0000
  Solg                                       ...    0.0000
  Solc                                       ...    0.0000
  Solh                                       ...    0.0000
Radii:
 Radius for O  used is    2.8724 Bohr (=   1.5200 Ang.)
 Radius for H  used is    2.2677 Bohr (=   1.2000 Ang.)
Initializing COSMO package            ... done
Setting COSMO radii                   ... done
Setting atoms and making cavity       ...  USING 1082 GRID
done
Cholesky decomposition of A           ... done
--------------
SCF ITERATIONS
--------------
ITER       Energy         Delta-E        Max-DP      RMS-DP      [F,P]     Damp
               ***  Starting incremental Fock matrix formation  ***
  0   -610.9658969822   0.000000000000 0.05206871  0.00123909  0.3093071 0.7000
  1   -611.2587557584  -0.292858776193 0.03188547  0.00076127  0.1304390 0.7000
                               ***Turning on DIIS***
  2   -611.3562276045  -0.097471846072 0.03536132  0.00092759  0.0315914 0.0000
  3   -611.5238336065  -0.167606002025 0.01954662  0.00047451  0.0750142 0.0000
  4   -611.5570117253  -0.033178118824 0.00454180  0.00014276  0.0143274 0.0000
                      *** Initiating the SOSCF procedure ***
                           *** Shutting down DIIS ***
                      *** Re-Reading the Fockian *** 
                      *** Removing any level shift *** 
ITER      Energy       Delta-E        Grad      Rot      Max-DP    RMS-DP
  5   -611.55842433  -0.0014126074  0.000736  0.000736  0.001692  0.000048
               *** Restarting incremental Fock matrix formation ***
  6   -611.55849215  -0.0000678179  0.000378  0.000830  0.000915  0.000028
  7   -611.55849254  -0.0000003854  0.000275  0.000152  0.000399  0.000008
  8   -611.55849816  -0.0000056281  0.000055  0.000105  0.000162  0.000005
  9   -611.55849818  -0.0000000113  0.000055  0.000038  0.000068  0.000001
 10   -611.55849833  -0.0000001550  0.000007  0.000016  0.000028  0.000001
                  ***Gradient check signals convergence***
              ***Rediagonalizing the Fockian in SOSCF/NRSCF***

               *****************************************************
               *                     SUCCESS                       *
               *           SCF CONVERGED AFTER  11 CYCLES          *
               *****************************************************

Setting up the final grid:

General Integration Accuracy     IntAcc      ...  5.010
Radial Grid Type                 RadialGrid  ... Gauss-Chebyshev
Angular Grid (max. acc.)         AngularGrid ... Lebedev-434
Angular grid pruning method      GridPruning ... 3 (G Style)
Weight generation scheme         WeightScheme... Becke
Basis function cutoff            BFCut       ...    1.0000e-11
Integration weight cutoff        WCut        ...    1.0000e-14
Grids for H and He will be reduced by one unit

# of grid points (after initial pruning)     ... 193808 (   0.1 sec)
# of grid points (after weights+screening)   ... 173483 (   3.0 sec)
nearest neighbour list constructed           ...    0.0 sec
Grid point re-assignment to atoms done       ...    0.0 sec
Grid point division into batches done        ...    1.2 sec
Reduced shell lists constructed in    1.5 sec

Total number of grid points                  ...   173483
Total number of batches                      ...     2723
Average number of points per batch           ...       63
Average number of grid points per atom       ...     7228
Average number of shells per batch           ...    80.90 (53.23%)
Average number of basis functions per batch  ...   166.52 (48.41%)
Average number of large shells per batch     ...    57.94 (71.62%)
Average number of large basis fcns per batch ...   113.14 (67.95%)
Maximum spatial batch extension              ...  12.03, 12.74, 12.44 au
Average spatial batch extension              ...   0.15,  0.15,  0.16 au

Final grid set up in    6.1 sec
Final integration                            ... done (   0.8 sec)
Change in XC energy                          ...    -0.000065873
Integrated number of electrons               ...    79.999715686
Previous integrated no of electrons          ...    79.999328352
Old exchange energy                            =    -14.274870181 Eh
New exchange energy                            =    -14.274327698 Eh
Exchange energy change after final integration =      0.000542483 Eh
Total energy after final integration           =   -611.558021717 Eh
Final COS-X integration done in                =     3.329 sec
   3.12400178761154        1.00207874515087      -0.637699735262749     
  8.310195169621462E-004  0.107332135554216       7.742504261851564E-003
Total Energy after outlying charge correction =   -611.562035934 Eh

SMD CDS free energy correction energy :                 5.19600     Kcal/mol
Total Energy after SMD CDS correction =              -611.549741365 Eh

----------------
TOTAL SCF ENERGY
----------------

Total Energy       :         -611.54974137 Eh          -16641.11448 eV
Total Energy       :         -611.54974137 Eh          -16641.11448 eV
COSMO(ediel)       :           -0.04606720 Eh              -1.25355 eV
SMD CDS (Gcds)     :            0.00828035 Eh               0.22532 eV

Components:
Nuclear Repulsion  :          529.19671079 Eh           14400.17459 eV
Electronic Energy  :        -1140.74645216 Eh          -31041.28907 eV

One Electron Energy:        -1896.03685627 Eh          -51593.78584 eV
Two Electron Energy:          755.29040411 Eh           20552.49676 eV

Virial components:
Potential Energy   :        -1220.46935274 Eh          -33210.65949 eV
Kinetic Energy     :          608.91961138 Eh           16569.54501 eV
Virial Ratio       :            2.00431934


DFT components:
N(Alpha)           :       39.999857843054 electrons
N(Beta)            :       39.999857843054 electrons
N(Total)           :       79.999715686109 electrons
E(X)               :      -56.907178384056 Eh       
E(C)               :       -3.278446260414 Eh       
E(XC)              :      -60.185624644471 Eh       

---------------
SCF CONVERGENCE
---------------

  Last Energy change         ...    3.8511e-09  Tolerance :   1.0000e-08
  Last MAX-Density change    ...    1.6598e-14  Tolerance :   1.0000e-07
  Last RMS-Density change    ...    6.4461e-16  Tolerance :   5.0000e-09
  Last Orbital Gradient      ...    1.8602e-06  Tolerance :   1.0000e-05
  Last Orbital Rotation      ...    3.9588e-06  Tolerance :   1.0000e-05

             **** THE GBW FILE WAS UPDATED (2_B3LYP_SMD_onBP86_SMD_8_waters.gbw) ****
             **** DENSITY FILE WAS UPDATED (2_B3LYP_SMD_onBP86_SMD_8_waters.scfp.tmp) ****
             **** ENERGY FILE WAS UPDATED (2_B3LYP_SMD_onBP86_SMD_8_waters.en.tmp) ****
----------------
ORBITAL ENERGIES
----------------

  NO   OCC          E(Eh)            E(eV) 
   0   2.0000     -19.129561      -520.5418 
   1   2.0000     -19.129451      -520.5388 
   2   2.0000     -19.129430      -520.5383 
   3   2.0000     -19.128926      -520.5245 
   4   2.0000     -19.118263      -520.2344 
   5   2.0000     -19.117826      -520.2225 
   6   2.0000     -19.117821      -520.2224 
   7   2.0000     -19.117518      -520.2141 
   8   2.0000      -1.028611       -27.9899 
   9   2.0000      -1.012123       -27.5413 
  10   2.0000      -1.009831       -27.4789 
  11   2.0000      -1.009648       -27.4739 
  12   2.0000      -0.990787       -26.9607 
  13   2.0000      -0.990464       -26.9519 
  14   2.0000      -0.988274       -26.8923 
  15   2.0000      -0.972403       -26.4604 
  16   2.0000      -0.533775       -14.5248 
  17   2.0000      -0.531712       -14.4686 
  18   2.0000      -0.529596       -14.4110 
  19   2.0000      -0.529334       -14.4039 
  20   2.0000      -0.516857       -14.0644 
  21   2.0000      -0.515561       -14.0291 
  22   2.0000      -0.510296       -13.8858 
  23   2.0000      -0.509732       -13.8705 
  24   2.0000      -0.460220       -12.5232 
  25   2.0000      -0.422803       -11.5051 
  26   2.0000      -0.422569       -11.4987 
  27   2.0000      -0.420861       -11.4522 
  28   2.0000      -0.391604       -10.6561 
  29   2.0000      -0.389328       -10.5942 
  30   2.0000      -0.389065       -10.5870 
  31   2.0000      -0.355916        -9.6850 
  32   2.0000      -0.322897        -8.7865 
  33   2.0000      -0.322647        -8.7797 
  34   2.0000      -0.321864        -8.7584 
  35   2.0000      -0.321570        -8.7504 
  36   2.0000      -0.315360        -8.5814 
  37   2.0000      -0.315146        -8.5756 
  38   2.0000      -0.313019        -8.5177 
  39   2.0000      -0.311145        -8.4667 
  40   0.0000       0.019082         0.5192 
  41   0.0000       0.060581         1.6485 
  42   0.0000       0.061013         1.6602 
  43   0.0000       0.061160         1.6643 
  44   0.0000       0.130757         3.5581 
  45   0.0000       0.131228         3.5709 
  46   0.0000       0.133630         3.6363 
  47   0.0000       0.135197         3.6789 
  48   0.0000       0.199060         5.4167 
  49   0.0000       0.202370         5.5068 
  50   0.0000       0.207174         5.6375 
  51   0.0000       0.210511         5.7283 
  52   0.0000       0.210968         5.7407 
  53   0.0000       0.221366         6.0237 
  54   0.0000       0.238039         6.4774 
  55   0.0000       0.238917         6.5013 
  56   0.0000       0.258540         7.0352 
  57   0.0000       0.316863         8.6223 
  58   0.0000       0.318942         8.6789 
  59   0.0000       0.321309         8.7433 
  60   0.0000       0.321883         8.7589 
  61   0.0000       0.335879         9.1397 
  62   0.0000       0.338358         9.2072 
  63   0.0000       0.347493         9.4558 
  64   0.0000       0.348368         9.4796 
  65   0.0000       0.364573         9.9205 
  66   0.0000       0.371678        10.1139 
  67   0.0000       0.372528        10.1370 
  68   0.0000       0.397113        10.8060 
  69   0.0000       0.397748        10.8233 
  70   0.0000       0.405086        11.0229 
  71   0.0000       0.434234        11.8161 
  72   0.0000       0.481407        13.0997 
  73   0.0000       0.481867        13.1123 
  74   0.0000       0.487095        13.2545 
  75   0.0000       0.509985        13.8774 
  76   0.0000       0.528743        14.3878 
  77   0.0000       0.538417        14.6511 
  78   0.0000       0.538775        14.6608 
  79   0.0000       0.566508        15.4155 
  80   0.0000       0.584276        15.8989 
  81   0.0000       0.585632        15.9359 
  82   0.0000       0.587151        15.9772 
  83   0.0000       0.608902        16.5691 
  84   0.0000       0.613358        16.6903 
  85   0.0000       0.654452        17.8086 
  86   0.0000       0.654941        17.8218 
  87   0.0000       0.661944        18.0124 
  88   0.0000       0.663195        18.0465 
  89   0.0000       0.678026        18.4500 
  90   0.0000       0.679377        18.4868 
  91   0.0000       0.689156        18.7529 
  92   0.0000       0.691280        18.8107 
  93   0.0000       0.747643        20.3444 
  94   0.0000       0.748029        20.3549 
  95   0.0000       0.754513        20.5313 
  96   0.0000       0.888734        24.1837 
  97   0.0000       0.889496        24.2044 
  98   0.0000       0.903804        24.5937 
  99   0.0000       0.923648        25.1337 
 100   0.0000       0.927833        25.2476 
 101   0.0000       0.931429        25.3455 
 102   0.0000       0.936027        25.4706 
 103   0.0000       1.054184        28.6858 
 104   0.0000       1.075339        29.2615 
 105   0.0000       1.119341        30.4588 
 106   0.0000       1.160763        31.5860 
 107   0.0000       1.162147        31.6236 
 108   0.0000       1.163812        31.6689 
 109   0.0000       1.169028        31.8109 
 110   0.0000       1.171305        31.8728 
 111   0.0000       1.172577        31.9074 
 112   0.0000       1.188749        32.3475 
 113   0.0000       1.189151        32.3584 
 114   0.0000       1.211496        32.9665 
 115   0.0000       1.278311        34.7846 
 116   0.0000       1.297079        35.2953 
 117   0.0000       1.299656        35.3654 
 118   0.0000       1.328343        36.1461 
 119   0.0000       1.338405        36.4199 
 120   0.0000       1.358478        36.9661 
 121   0.0000       1.360570        37.0230 
 122   0.0000       1.364585        37.1322 
 123   0.0000       1.373486        37.3744 
 124   0.0000       1.404951        38.2307 
 125   0.0000       1.405255        38.2389 
 126   0.0000       1.405999        38.2592 
 127   0.0000       1.425754        38.7967 
 128   0.0000       1.521160        41.3929 
 129   0.0000       1.632049        44.4103 
 130   0.0000       1.637962        44.5712 
 131   0.0000       1.669824        45.4382 
 132   0.0000       1.672398        45.5083 
 133   0.0000       1.684804        45.8458 
 134   0.0000       1.688682        45.9514 
 135   0.0000       1.690615        46.0040 
 136   0.0000       1.695730        46.1432 
 137   0.0000       1.704056        46.3697 
 138   0.0000       1.717807        46.7439 
 139   0.0000       1.719028        46.7771 
 140   0.0000       1.721084        46.8331 
 141   0.0000       1.728894        47.0456 
 142   0.0000       1.779828        48.4316 
 143   0.0000       1.781070        48.4654 
 144   0.0000       1.835710        49.9522 
 145   0.0000       1.887192        51.3531 
 146   0.0000       1.888566        51.3905 
 147   0.0000       1.893769        51.5321 
 148   0.0000       1.931650        52.5629 
 149   0.0000       1.938477        52.7486 
 150   0.0000       1.941177        52.8221 
 151   0.0000       1.943372        52.8819 
 152   0.0000       1.998648        54.3860 
 153   0.0000       2.016091        54.8606 
 154   0.0000       2.018855        54.9358 
 155   0.0000       2.020513        54.9810 
 156   0.0000       2.053160        55.8693 
 157   0.0000       2.060656        56.0733 
 158   0.0000       2.063526        56.1514 
 159   0.0000       2.082160        56.6584 
 160   0.0000       2.121066        57.7172 
 161   0.0000       2.139391        58.2158 
 162   0.0000       2.155634        58.6578 
 163   0.0000       2.158348        58.7316 
 164   0.0000       2.199335        59.8470 
 165   0.0000       2.205317        60.0097 
 166   0.0000       2.212635        60.2089 
 167   0.0000       2.216884        60.3245 
 168   0.0000       2.263476        61.5923 
 169   0.0000       2.264500        61.6202 
 170   0.0000       2.282544        62.1112 
 171   0.0000       2.285255        62.1849 
 172   0.0000       2.294967        62.4492 
 173   0.0000       2.300236        62.5926 
 174   0.0000       2.316397        63.0324 
 175   0.0000       2.323612        63.2287 
 176   0.0000       2.363239        64.3070 
 177   0.0000       2.364638        64.3451 
 178   0.0000       2.367444        64.4214 
 179   0.0000       2.369187        64.4688 
 180   0.0000       2.378794        64.7303 
 181   0.0000       2.385602        64.9155 
 182   0.0000       2.390104        65.0380 
 183   0.0000       2.398571        65.2684 
 184   0.0000       2.400299        65.3155 
 185   0.0000       2.413439        65.6730 
 186   0.0000       2.413765        65.6819 
 187   0.0000       2.417606        65.7864 
 188   0.0000       2.440174        66.4005 
 189   0.0000       2.505625        68.1815 
 190   0.0000       2.506923        68.2168 
 191   0.0000       2.507759        68.2396 
 192   0.0000       2.526924        68.7611 
 193   0.0000       2.528448        68.8026 
 194   0.0000       2.532593        68.9154 
 195   0.0000       2.546498        69.2937 
 196   0.0000       2.588964        70.4493 
 197   0.0000       2.601068        70.7787 
 198   0.0000       2.604775        70.8795 
 199   0.0000       2.619824        71.2890 
 200   0.0000       2.665471        72.5312 
 201   0.0000       2.675710        72.8098 
 202   0.0000       2.711011        73.7704 
 203   0.0000       2.725118        74.1542 
 204   0.0000       2.728294        74.2406 
 205   0.0000       2.741759        74.6070 
 206   0.0000       2.742508        74.6274 
 207   0.0000       2.749921        74.8292 
 208   0.0000       2.943539        80.0978 
 209   0.0000       2.951200        80.3062 
 210   0.0000       2.953748        80.3756 
 211   0.0000       2.998510        81.5936 
 212   0.0000       3.020784        82.1997 
 213   0.0000       3.025551        82.3294 
 214   0.0000       3.028877        82.4199 
 215   0.0000       3.041894        82.7741 
 216   0.0000       3.091944        84.1361 
 217   0.0000       3.094913        84.2169 
 218   0.0000       3.103565        84.4523 
 219   0.0000       3.139207        85.4222 
 220   0.0000       3.184418        86.6524 
 221   0.0000       3.192927        86.8840 
 222   0.0000       3.196779        86.9888 
 223   0.0000       3.201309        87.1120 
 224   0.0000       3.747344       101.9704 
 225   0.0000       3.765394       102.4616 
 226   0.0000       3.767869       102.5289 
 227   0.0000       3.769805       102.5816 
 228   0.0000       3.803676       103.5033 
 229   0.0000       3.820819       103.9698 
 230   0.0000       3.825567       104.0990 
 231   0.0000       3.869322       105.2896 
 232   0.0000       3.876660       105.4893 
 233   0.0000       3.924008       106.7777 
 234   0.0000       3.952772       107.5604 
 235   0.0000       3.957017       107.6759 
 236   0.0000       3.994386       108.6928 
 237   0.0000       4.001778       108.8939 
 238   0.0000       4.003558       108.9424 
 239   0.0000       4.046099       110.1000 
 240   0.0000       5.093239       138.5941 
 241   0.0000       5.093398       138.5984 
 242   0.0000       5.094059       138.6164 
 243   0.0000       5.094843       138.6377 
 244   0.0000       5.112077       139.1067 
 245   0.0000       5.113556       139.1469 
 246   0.0000       5.115042       139.1874 
 247   0.0000       5.115418       139.1976 
 248   0.0000       5.198267       141.4520 
 249   0.0000       5.203995       141.6079 
 250   0.0000       5.211690       141.8173 
 251   0.0000       5.212549       141.8407 
 252   0.0000       5.232338       142.3792 
 253   0.0000       5.241755       142.6354 
 254   0.0000       5.243751       142.6897 
 255   0.0000       5.246405       142.7619 
 256   0.0000       5.315183       144.6335 
 257   0.0000       5.319467       144.7501 
 258   0.0000       5.320358       144.7743 
 259   0.0000       5.324063       144.8751 
 260   0.0000       5.348517       145.5405 
 261   0.0000       5.348865       145.5500 
 262   0.0000       5.359244       145.8324 
 263   0.0000       5.373487       146.2200 
 264   0.0000       5.379520       146.3842 
 265   0.0000       5.394087       146.7806 
 266   0.0000       5.394477       146.7912 
 267   0.0000       5.412717       147.2875 
 268   0.0000       5.413579       147.3110 
 269   0.0000       5.414626       147.3395 
 270   0.0000       5.418841       147.4542 
 271   0.0000       5.421973       147.5394 
 272   0.0000       5.432402       147.8232 
 273   0.0000       5.438963       148.0017 
 274   0.0000       5.439606       148.0192 
 275   0.0000       5.442680       148.1029 
 276   0.0000       5.453424       148.3952 
 277   0.0000       5.454236       148.4173 
 278   0.0000       5.456750       148.4857 
 279   0.0000       5.458532       148.5342 
 280   0.0000       5.929076       161.3384 
 281   0.0000       5.935205       161.5051 
 282   0.0000       5.936020       161.5273 
 283   0.0000       5.943540       161.7320 
 284   0.0000       5.947079       161.8282 
 285   0.0000       5.950533       161.9222 
 286   0.0000       5.953026       161.9901 
 287   0.0000       5.954149       162.0206 
 288   0.0000       6.069049       165.1472 
 289   0.0000       6.160770       167.6431 
 290   0.0000       6.175038       168.0313 
 291   0.0000       6.175951       168.0562 
 292   0.0000       6.261680       170.3890 
 293   0.0000       6.282650       170.9596 
 294   0.0000       6.285960       171.0497 
 295   0.0000       6.290607       171.1761 
 296   0.0000       6.313968       171.8118 
 297   0.0000       6.333189       172.3348 
 298   0.0000       6.357596       172.9990 
 299   0.0000       6.358755       173.0305 
 300   0.0000       6.373051       173.4195 
 301   0.0000       6.384454       173.7298 
 302   0.0000       6.386761       173.7926 
 303   0.0000       6.412781       174.5006 
 304   0.0000       6.413675       174.5250 
 305   0.0000       6.415914       174.5859 
 306   0.0000       6.433892       175.0751 
 307   0.0000       6.440142       175.2452 
 308   0.0000       6.442181       175.3007 
 309   0.0000       6.447438       175.4437 
 310   0.0000       6.478926       176.3006 
 311   0.0000       6.510903       177.1707 
 312   0.0000       6.527049       177.6100 
 313   0.0000       6.528852       177.6591 
 314   0.0000       6.532821       177.7671 
 315   0.0000       6.638408       180.6403 
 316   0.0000       6.695628       182.1973 
 317   0.0000       6.753548       183.7734 
 318   0.0000       6.755453       183.8252 
 319   0.0000       6.775294       184.3651 
 320   0.0000       6.861080       186.6995 
 321   0.0000       6.932823       188.6517 
 322   0.0000       6.934109       188.6867 
 323   0.0000       6.936719       188.7577 
 324   0.0000       6.987035       190.1269 
 325   0.0000       6.993612       190.3059 
 326   0.0000       7.025041       191.1611 
 327   0.0000       7.027493       191.2278 
 328   0.0000       7.081380       192.6941 
 329   0.0000       7.113841       193.5774 
 330   0.0000       7.117295       193.6714 
 331   0.0000       7.133817       194.1210 
 332   0.0000       7.136659       194.1984 
 333   0.0000       7.139370       194.2721 
 334   0.0000       7.141721       194.3361 
 335   0.0000       7.155712       194.7168 
 336   0.0000      43.407640      1181.1819 
 337   0.0000      43.444815      1182.1935 
 338   0.0000      43.458696      1182.5712 
 339   0.0000      43.459871      1182.6032 
 340   0.0000      43.579443      1185.8569 
 341   0.0000      43.594245      1186.2597 
 342   0.0000      43.598337      1186.3711 
 343   0.0000      43.841671      1192.9925 

                    ********************************
                    * MULLIKEN POPULATION ANALYSIS *
                    ********************************

-----------------------
MULLIKEN ATOMIC CHARGES
-----------------------
   0 O :   -0.755545
   1 H :    0.373759
   2 H :    0.385365
   3 O :   -0.751212
   4 H :    0.374736
   5 H :    0.373651
   6 O :   -0.757888
   7 H :    0.371820
   8 H :    0.385266
   9 O :   -0.756004
  10 H :    0.372834
  11 H :    0.385547
  12 O :   -0.748623
  13 H :    0.371976
  14 H :    0.375116
  15 O :   -0.749484
  16 H :    0.375931
  17 H :    0.373019
  18 O :   -0.756199
  19 H :    0.372667
  20 H :    0.385560
  21 O :   -0.749584
  22 H :    0.372538
  23 H :    0.374751
Sum of atomic charges:    0.0000000

--------------------------------
MULLIKEN REDUCED ORBITAL CHARGES
--------------------------------
  0 O s       :     3.804821  s :     3.804821
      pz      :     1.660187  p :     4.932761
      px      :     1.500534
      py      :     1.772040
      dz2     :     0.003187  d :     0.016940
      dxz     :     0.006806
      dyz     :     0.001912
      dx2y2   :     0.001278
      dxy     :     0.003757
      f0      :     0.000040  f :     0.001024
      f+1     :     0.000232
      f-1     :     0.000028
      f+2     :     0.000167
      f-2     :     0.000122
      f+3     :     0.000098
      f-3     :     0.000337
  1 H s       :     0.567617  s :     0.567617
      pz      :     0.025743  p :     0.058623
      px      :     0.022827
      py      :     0.010053
  2 H s       :     0.571100  s :     0.571100
      pz      :     0.011625  p :     0.043535
      px      :     0.016534
      py      :     0.015375
  3 O s       :     3.793836  s :     3.793836
      pz      :     1.802835  p :     4.936659
      px      :     1.637981
      py      :     1.495843
      dz2     :     0.003027  d :     0.019799
      dxz     :     0.007065
      dyz     :     0.000876
      dx2y2   :     0.008048
      dxy     :     0.000784
      f0      :     0.000121  f :     0.000918
      f+1     :     0.000087
      f-1     :     0.000191
      f+2     :     0.000173
      f-2     :     0.000089
      f+3     :     0.000003
      f-3     :     0.000254
  4 H s       :     0.571286  s :     0.571286
      pz      :     0.020669  p :     0.053978
      px      :     0.023423
      py      :     0.009886
  5 H s       :     0.573009  s :     0.573009
      pz      :     0.010995  p :     0.053340
      px      :     0.010448
      py      :     0.031897
  6 O s       :     3.805049  s :     3.805049
      pz      :     1.591720  p :     4.934947
      px      :     1.696249
      py      :     1.646978
      dz2     :     0.000342  d :     0.016868
      dxz     :     0.005621
      dyz     :     0.004309
      dx2y2   :     0.005037
      dxy     :     0.001559
      f0      :     0.000111  f :     0.001024
      f+1     :     0.000137
      f-1     :     0.000143
      f+2     :     0.000489
      f-2     :     0.000043
      f+3     :     0.000039
      f-3     :     0.000062
  7 H s       :     0.569051  s :     0.569051
      pz      :     0.023689  p :     0.059129
      px      :     0.026431
      py      :     0.009010
  8 H s       :     0.571146  s :     0.571146
      pz      :     0.014854  p :     0.043588
      px      :     0.011556
      py      :     0.017178
  9 O s       :     3.805014  s :     3.805014
      pz      :     1.893890  p :     4.933079
      px      :     1.557875
      py      :     1.481313
      dz2     :     0.003457  d :     0.016885
      dxz     :     0.001733
      dyz     :     0.000653
      dx2y2   :     0.007196
      dxy     :     0.003846
      f0      :     0.000113  f :     0.001026
      f+1     :     0.000234
      f-1     :     0.000239
      f+2     :     0.000051
      f-2     :     0.000030
      f+3     :     0.000006
      f-3     :     0.000353
 10 H s       :     0.568559  s :     0.568559
      pz      :     0.011772  p :     0.058607
      px      :     0.008633
      py      :     0.038202
 11 H s       :     0.570868  s :     0.570868
      pz      :     0.013416  p :     0.043585
      px      :     0.018017
      py      :     0.012152
 12 O s       :     3.792942  s :     3.792942
      pz      :     1.607944  p :     4.934834
      px      :     1.753250
      py      :     1.573639
      dz2     :     0.003382  d :     0.019935
      dxz     :     0.006360
      dyz     :     0.001357
      dx2y2   :     0.007378
      dxy     :     0.001458
      f0      :     0.000036  f :     0.000911
      f+1     :     0.000345
      f-1     :     0.000073
      f+2     :     0.000151
      f-2     :     0.000048
      f+3     :     0.000113
      f-3     :     0.000147
 13 H s       :     0.574436  s :     0.574436
      pz      :     0.010984  p :     0.053588
      px      :     0.011232
      py      :     0.031371
 14 H s       :     0.571032  s :     0.571032
      pz      :     0.023516  p :     0.053852
      px      :     0.020647
      py      :     0.009689
 15 O s       :     3.793379  s :     3.793379
      pz      :     1.652700  p :     4.935343
      px      :     1.397929
      py      :     1.884714
      dz2     :     0.002691  d :     0.019841
      dxz     :     0.012323
      dyz     :     0.001454
      dx2y2   :     0.003269
      dxy     :     0.000104
      f0      :     0.000034  f :     0.000920
      f+1     :     0.000087
      f-1     :     0.000016
      f+2     :     0.000490
      f-2     :     0.000005
      f+3     :     0.000225
      f-3     :     0.000063
 16 H s       :     0.570385  s :     0.570385
      pz      :     0.020308  p :     0.053684
      px      :     0.021237
      py      :     0.012139
 17 H s       :     0.573617  s :     0.573617
      pz      :     0.019281  p :     0.053363
      px      :     0.022036
      py      :     0.012047
 18 O s       :     3.804985  s :     3.804985
      pz      :     1.513913  p :     4.933310
      px      :     1.906283
      py      :     1.513113
      dz2     :     0.008731  d :     0.016880
      dxz     :     0.001458
      dyz     :     0.000841
      dx2y2   :     0.005351
      dxy     :     0.000498
      f0      :     0.000321  f :     0.001025
      f+1     :     0.000045
      f-1     :     0.000229
      f+2     :     0.000059
      f-2     :     0.000009
      f+3     :     0.000051
      f-3     :     0.000312
 19 H s       :     0.568736  s :     0.568736
      pz      :     0.008286  p :     0.058597
      px      :     0.011159
      py      :     0.039152
 20 H s       :     0.570883  s :     0.570883
      pz      :     0.019194  p :     0.043557
      px      :     0.013400
      py      :     0.010964
 21 O s       :     3.793403  s :     3.793403
      pz      :     1.407751  p :     4.935422
      px      :     1.685131
      py      :     1.842540
      dz2     :     0.000603  d :     0.019843
      dxz     :     0.011857
      dyz     :     0.000574
      dx2y2   :     0.004659
      dxy     :     0.002150
      f0      :     0.000020  f :     0.000917
      f+1     :     0.000392
      f-1     :     0.000081
      f+2     :     0.000212
      f-2     :     0.000095
      f+3     :     0.000052
      f-3     :     0.000064
 22 H s       :     0.574030  s :     0.574030
      pz      :     0.021809  p :     0.053432
      px      :     0.019680
      py      :     0.011943
 23 H s       :     0.571370  s :     0.571370
      pz      :     0.020999  p :     0.053879
      px      :     0.020006
      py      :     0.012873


                     *******************************
                     * LOEWDIN POPULATION ANALYSIS *
                     *******************************

----------------------
LOEWDIN ATOMIC CHARGES
----------------------
   0 O :   -0.294836
   1 H :    0.147912
   2 H :    0.185869
   3 O :   -0.330615
   4 H :    0.145644
   5 H :    0.146529
   6 O :   -0.297855
   7 H :    0.146987
   8 H :    0.185351
   9 O :   -0.296034
  10 H :    0.147954
  11 H :    0.185952
  12 O :   -0.329097
  13 H :    0.146010
  14 H :    0.146173
  15 O :   -0.328535
  16 H :    0.146599
  17 H :    0.146138
  18 O :   -0.296246
  19 H :    0.148245
  20 H :    0.185846
  21 O :   -0.329868
  22 H :    0.146053
  23 H :    0.145825

-------------------------------
LOEWDIN REDUCED ORBITAL CHARGES
-------------------------------
  0 O s       :     3.467330  s :     3.467330
      pz      :     1.630137  p :     4.797644
      px      :     1.456791
      py      :     1.710716
      dz2     :     0.004621  d :     0.027837
      dxz     :     0.011780
      dyz     :     0.001752
      dx2y2   :     0.003210
      dxy     :     0.006475
      f0      :     0.000140  f :     0.002025
      f+1     :     0.000569
      f-1     :     0.000068
      f+2     :     0.000312
      f-2     :     0.000274
      f+3     :     0.000087
      f-3     :     0.000576
  1 H s       :     0.644983  s :     0.644983
      pz      :     0.097100  p :     0.207106
      px      :     0.079283
      py      :     0.030723
  2 H s       :     0.656618  s :     0.656618
      pz      :     0.038571  p :     0.157513
      px      :     0.062939
      py      :     0.056002
  3 O s       :     3.476339  s :     3.476339
      pz      :     1.738599  p :     4.824097
      px      :     1.605594
      py      :     1.479904
      dz2     :     0.003343  d :     0.028285
      dxz     :     0.010505
      dyz     :     0.000665
      dx2y2   :     0.012810
      dxy     :     0.000961
      f0      :     0.000139  f :     0.001895
      f+1     :     0.000161
      f-1     :     0.000339
      f+2     :     0.000442
      f-2     :     0.000141
      f+3     :     0.000100
      f-3     :     0.000574
  4 H s       :     0.667134  s :     0.667134
      pz      :     0.071882  p :     0.187222
      px      :     0.086234
      py      :     0.029106
  5 H s       :     0.667791  s :     0.667791
      pz      :     0.035893  p :     0.185680
      px      :     0.031172
      py      :     0.118615
  6 O s       :     3.468081  s :     3.468081
      pz      :     1.540219  p :     4.799906
      px      :     1.655669
      py      :     1.604018
      dz2     :     0.000588  d :     0.027845
      dxz     :     0.009989
      dyz     :     0.007749
      dx2y2   :     0.008561
      dxy     :     0.000957
      f0      :     0.000239  f :     0.002023
      f+1     :     0.000234
      f-1     :     0.000196
      f+2     :     0.000968
      f-2     :     0.000067
      f+3     :     0.000148
      f-3     :     0.000171
  7 H s       :     0.644405  s :     0.644405
      pz      :     0.083261  p :     0.208608
      px      :     0.098035
      py      :     0.027312
  8 H s       :     0.657025  s :     0.657025
      pz      :     0.052183  p :     0.157624
      px      :     0.036032
      py      :     0.069409
  9 O s       :     3.467395  s :     3.467395
      pz      :     1.815148  p :     4.798807
      px      :     1.533936
      py      :     1.449724
      dz2     :     0.005004  d :     0.027806
      dxz     :     0.003645
      dyz     :     0.000982
      dx2y2   :     0.011815
      dxy     :     0.006361
      f0      :     0.000081  f :     0.002026
      f+1     :     0.000425
      f-1     :     0.000335
      f+2     :     0.000117
      f-2     :     0.000043
      f+3     :     0.000182
      f-3     :     0.000843
 10 H s       :     0.645129  s :     0.645129
      pz      :     0.036782  p :     0.206917
      px      :     0.027508
      py      :     0.142627
 11 H s       :     0.656576  s :     0.656576
      pz      :     0.041675  p :     0.157472
      px      :     0.077432
      py      :     0.038364
 12 O s       :     3.476693  s :     3.476693
      pz      :     1.572553  p :     4.821979
      px      :     1.691706
      py      :     1.557719
      dz2     :     0.005216  d :     0.028524
      dxz     :     0.010477
      dyz     :     0.001350
      dx2y2   :     0.009947
      dxy     :     0.001533
      f0      :     0.000059  f :     0.001901
      f+1     :     0.000635
      f-1     :     0.000252
      f+2     :     0.000352
      f-2     :     0.000038
      f+3     :     0.000223
      f-3     :     0.000341
 13 H s       :     0.667605  s :     0.667605
      pz      :     0.032315  p :     0.186385
      px      :     0.037097
      py      :     0.116973
 14 H s       :     0.666867  s :     0.666867
      pz      :     0.086723  p :     0.186959
      px      :     0.070972
      py      :     0.029265
 15 O s       :     3.475447  s :     3.475447
      pz      :     1.638127  p :     4.822830
      px      :     1.381165
      py      :     1.803539
      dz2     :     0.001911  d :     0.028361
      dxz     :     0.018648
      dyz     :     0.000879
      dx2y2   :     0.006755
      dxy     :     0.000168
      f0      :     0.000160  f :     0.001897
      f+1     :     0.000470
      f-1     :     0.000041
      f+2     :     0.000858
      f-2     :     0.000009
      f+3     :     0.000276
      f-3     :     0.000083
 16 H s       :     0.666964  s :     0.666964
      pz      :     0.073061  p :     0.186437
      px      :     0.074357
      py      :     0.039020
 17 H s       :     0.668280  s :     0.668280
      pz      :     0.069268  p :     0.185582
      px      :     0.077455
      py      :     0.038859
 18 O s       :     3.467849  s :     3.467849
      pz      :     1.486907  p :     4.798593
      px      :     1.826415
      py      :     1.485271
      dz2     :     0.013541  d :     0.027780
      dxz     :     0.003153
      dyz     :     0.001692
      dx2y2   :     0.008751
      dxy     :     0.000643
      f0      :     0.000764  f :     0.002023
      f+1     :     0.000033
      f-1     :     0.000580
      f+2     :     0.000083
      f-2     :     0.000018
      f+3     :     0.000031
      f-3     :     0.000515
 19 H s       :     0.644859  s :     0.644859
      pz      :     0.024545  p :     0.206896
      px      :     0.034328
      py      :     0.148022
 20 H s       :     0.656645  s :     0.656645
      pz      :     0.083342  p :     0.157510
      px      :     0.041591
      py      :     0.032577
 21 O s       :     3.476114  s :     3.476114
      pz      :     1.390512  p :     4.823480
      px      :     1.663689
      py      :     1.769278
      dz2     :     0.002366  d :     0.028378
      dxz     :     0.017679
      dyz     :     0.001298
      dx2y2   :     0.005712
      dxy     :     0.001323
      f0      :     0.000015  f :     0.001897
      f+1     :     0.000824
      f-1     :     0.000113
      f+2     :     0.000571
      f-2     :     0.000200
      f+3     :     0.000035
      f-3     :     0.000139
 22 H s       :     0.668292  s :     0.668292
      pz      :     0.077389  p :     0.185655
      px      :     0.070646
      py      :     0.037621
 23 H s       :     0.667280  s :     0.667280
      pz      :     0.072458  p :     0.186895
      px      :     0.071550
      py      :     0.042887


                      *****************************
                      * MAYER POPULATION ANALYSIS *
                      *****************************

  NA   - Mulliken gross atomic population
  ZA   - Total nuclear charge
  QA   - Mulliken gross atomic charge
  VA   - Mayer's total valence
  BVA  - Mayer's bonded valence
  FA   - Mayer's free valence

  ATOM       NA         ZA         QA         VA         BVA        FA
  0 O      8.7555     8.0000    -0.7555     1.7826     1.7826    -0.0000
  1 H      0.6262     1.0000     0.3738     0.9196     0.9196    -0.0000
  2 H      0.6146     1.0000     0.3854     0.8698     0.8698    -0.0000
  3 O      8.7512     8.0000    -0.7512     1.7547     1.7547    -0.0000
  4 H      0.6253     1.0000     0.3747     0.9191     0.9191     0.0000
  5 H      0.6263     1.0000     0.3737     0.9203     0.9203    -0.0000
  6 O      8.7579     8.0000    -0.7579     1.7772     1.7772    -0.0000
  7 H      0.6282     1.0000     0.3718     0.9222     0.9222    -0.0000
  8 H      0.6147     1.0000     0.3853     0.8701     0.8701    -0.0000
  9 O      8.7560     8.0000    -0.7560     1.7814     1.7814    -0.0000
 10 H      0.6272     1.0000     0.3728     0.9204     0.9204     0.0000
 11 H      0.6145     1.0000     0.3855     0.8698     0.8698     0.0000
 12 O      8.7486     8.0000    -0.7486     1.7571     1.7571    -0.0000
 13 H      0.6280     1.0000     0.3720     0.9229     0.9229     0.0000
 14 H      0.6249     1.0000     0.3751     0.9187     0.9187     0.0000
 15 O      8.7495     8.0000    -0.7495     1.7579     1.7579     0.0000
 16 H      0.6241     1.0000     0.3759     0.9176     0.9176    -0.0000
 17 H      0.6270     1.0000     0.3730     0.9212     0.9212    -0.0000
 18 O      8.7562     8.0000    -0.7562     1.7802     1.7802     0.0000
 19 H      0.6273     1.0000     0.3727     0.9206     0.9206     0.0000
 20 H      0.6144     1.0000     0.3856     0.8697     0.8697     0.0000
 21 O      8.7496     8.0000    -0.7496     1.7573     1.7573     0.0000
 22 H      0.6275     1.0000     0.3725     0.9213     0.9213     0.0000
 23 H      0.6252     1.0000     0.3748     0.9195     0.9195    -0.0000

  Mayer bond orders larger than 0.1
B(  0-O ,  1-H ) :   0.7225 B(  0-O ,  2-H ) :   0.8504 B(  0-O , 13-H ) :   0.1220 
B(  0-O , 16-H ) :   0.1200 B(  1-H ,  3-O ) :   0.1864 B(  3-O ,  4-H ) :   0.7909 
B(  3-O ,  5-H ) :   0.7932 B(  4-H ,  9-O ) :   0.1218 B(  5-H ,  6-O ) :   0.1182 
B(  6-O ,  7-H ) :   0.7192 B(  6-O ,  8-H ) :   0.8505 B(  6-O , 23-H ) :   0.1216 
B(  7-H , 12-O ) :   0.1922 B(  9-O , 10-H ) :   0.7227 B(  9-O , 11-H ) :   0.8503 
B(  9-O , 17-H ) :   0.1183 B( 10-H , 21-O ) :   0.1871 B( 12-O , 13-H ) :   0.7921 
B( 12-O , 14-H ) :   0.7907 B( 14-H , 18-O ) :   0.1220 B( 15-O , 16-H ) :   0.7913 
B( 15-O , 17-H ) :   0.7942 B( 15-O , 19-H ) :   0.1880 B( 18-O , 19-H ) :   0.7222 
B( 18-O , 20-H ) :   0.8504 B( 18-O , 22-H ) :   0.1178 B( 21-O , 22-H ) :   0.7948 
B( 21-O , 23-H ) :   0.7913 

-------
TIMINGS
-------

Total SCF time: 0 days 0 hours 1 min 5 sec 

Total time                  ....      65.072 sec
Sum of individual times     ....      68.996 sec  (106.0%)

Fock matrix formation       ....      40.856 sec  ( 62.8%)
  Coulomb formation         ....      32.835 sec  ( 80.4% of F)
  Split-RI-J                ....       4.928 sec  ( 12.1% of F)
  Chain of spheres X        ....      20.999 sec  ( 51.4% of F)
  COS-X 1 center corr.      ....       0.000 sec  (  0.0% of F)
  XC integration            ....       6.683 sec  ( 16.4% of F)
    Basis function eval.    ....       0.901 sec  ( 13.5% of XC)
    Density eval.           ....       0.845 sec  ( 12.7% of XC)
    XC-Functional eval.     ....       0.174 sec  (  2.6% of XC)
    XC-Potential eval.      ....       1.577 sec  ( 23.6% of XC)
Diagonalization             ....       2.062 sec  (  3.2%)
Density matrix formation    ....       1.584 sec  (  2.4%)
Population analysis         ....       0.251 sec  (  0.4%)
Initial guess               ....       2.541 sec  (  3.9%)
Orbital Transformation      ....       0.000 sec  (  0.0%)
Orbital Orthonormalization  ....       0.000 sec  (  0.0%)
DIIS solution               ....       0.199 sec  (  0.3%)
SOSCF solution              ....       0.559 sec  (  0.9%)
Grid generation             ....      10.808 sec  ( 16.6%)
COSMO(total)                ....      10.135 sec  ( 15.6%)
   Initialization           ....       1.866 sec  ( 18.4% of COSMO)
   Potential evaluation     ....       3.144 sec  ( 31.0% of COSMO)
   Charge calculation       ....       0.731 sec  (  7.2% of COSMO)
   Fock-Matrix contrib.     ....       3.812 sec  ( 37.6% of COSMO)
   Outer-lying charge       ....       0.393 sec  (  3.9% of COSMO)
           ************************************************************
           *              Shut down parallel processing               *
           ************************************************************

Entering the calculation of the dispersion correction...

Checking the input atom types...

Done


-------------------------------------------------------------------------------
                          DFT DISPERSION CORRECTION                            
                                                                               
                                DFTD3 V2.1  Rev 6                               
                          USING Becke-Johnson damping                          
-------------------------------------------------------------------------------
The B3LYP functional is recognized
Active option DFTDOPT                   ...         4   

molecular C6(AA) [au] = 2847.393859 


            DFT-D V3
 parameters
 s6 scaling factor         :     1.0000 
 a1 scaling factor         :     0.3981 
 s8 scaling factor         :     1.9889 
 a2 scaling factor         :     4.4211 
 ad hoc parameters k1-k3   :    16.0000     1.3333    -4.0000 

 Edisp/kcal,au: -16.353654922191  -0.026061205215 
 E6   /kcal   :  -8.940600913 
 E8   /kcal   :  -7.413054009 
 % E8         :  45.329646765 

-------------------------   ----------------
Dispersion correction           -0.026061205
-------------------------   ----------------


-------------------------   --------------------
FINAL SINGLE POINT ENERGY      -611.575802570324
-------------------------   --------------------


                            ***************************************
                            *     ORCA property calculations      *
                            ***************************************

                                    ---------------------
                                    Active property flags
                                    ---------------------
   (+) Dipole Moment


------------------------------------------------------------------------------
                       ORCA ELECTRIC PROPERTIES CALCULATION
------------------------------------------------------------------------------

Dipole Moment Calculation                       ... on
Quadrupole Moment Calculation                   ... off
Polarizability Calculation                      ... off
GBWName                                         ... 2_B3LYP_SMD_onBP86_SMD_8_waters.gbw
Electron density file                           ... 2_B3LYP_SMD_onBP86_SMD_8_waters.scfp.tmp

-------------
DIPOLE MOMENT
-------------
                                X             Y             Z
Electronic contribution:      0.00460       0.00979      -0.00705
Nuclear contribution   :      0.02117      -0.02746      -0.00743
                        -----------------------------------------
Total Dipole Moment    :      0.02577      -0.01767      -0.01448
                        -----------------------------------------
Magnitude (a.u.)       :      0.03444
Magnitude (Debye)      :      0.08754

smp-n90.crc.pitt.edu.429028hfi_wait_for_device: The /dev/hfi1_0 device failed to appear after 15.0 seconds: Connection timed out
smp-n90.crc.pitt.edu.429031hfi_wait_for_device: The /dev/hfi1_0 device failed to appear after 15.0 seconds: Connection timed out
smp-n90.crc.pitt.edu.429040hfi_wait_for_device: The /dev/hfi1_0 device failed to appear after 15.0 seconds: Connection timed out
smp-n90.crc.pitt.edu.429043hfi_wait_for_device: The /dev/hfi1_0 device failed to appear after 15.0 seconds: Connection timed out
smp-n90.crc.pitt.edu.429035hfi_wait_for_device: The /dev/hfi1_0 device failed to appear after 15.0 seconds: Connection timed out
smp-n90.crc.pitt.edu.429047hfi_wait_for_device: The /dev/hfi1_0 device failed to appear after 15.0 seconds: Connection timed out
smp-n90.crc.pitt.edu.429036hfi_wait_for_device: The /dev/hfi1_0 device failed to appear after 15.0 seconds: Connection timed out
smp-n90.crc.pitt.edu.429032hfi_wait_for_device: The /dev/hfi1_0 device failed to appear after 15.0 seconds: Connection timed out
smp-n90.crc.pitt.edu.429027hfi_wait_for_device: The /dev/hfi1_0 device failed to appear after 15.0 seconds: Connection timed out
smp-n90.crc.pitt.edu.429029hfi_wait_for_device: The /dev/hfi1_0 device failed to appear after 15.0 seconds: Connection timed out
smp-n90.crc.pitt.edu.429041hfi_wait_for_device: The /dev/hfi1_0 device failed to appear after 15.0 seconds: Connection timed out
smp-n90.crc.pitt.edu.429044hfi_wait_for_device: The /dev/hfi1_0 device failed to appear after 15.0 seconds: Connection timed out

Timings for individual modules:

Sum of individual times         ...       99.890 sec (=   1.665 min)
GTO integral calculation        ...       16.613 sec (=   0.277 min)  16.6 %
SCF iterations                  ...       83.277 sec (=   1.388 min)  83.4 %
                             ****ORCA TERMINATED NORMALLY****
TOTAL RUN TIME: 0 days 0 hours 1 minutes 56 seconds 221 msec
cp: cannot stat ‘/scratch/slurm-1328861/*.{prop}’: No such file or directory
