
                                 *****************
                                 * O   R   C   A *
                                 *****************

           --- An Ab Initio, DFT and Semiempirical electronic structure package ---

                  #######################################################
                  #                        -***-                        #
                  #          Department of theory and spectroscopy      #
                  #               Directorship: Frank Neese             #
                  #        Max Planck Institute fuer Kohlenforschung    #
                  #                Kaiser Wilhelm Platz 1               #
                  #                 D-45470 Muelheim/Ruhr               #
                  #                      Germany                        #
                  #                                                     #
                  #                  All rights reserved                #
                  #                        -***-                        #
                  #######################################################


                         Program Version 4.2.0 -  RELEASE  -


 With contributions from (in alphabetic order):
   Daniel Aravena         : Magnetic Suceptibility
   Michael Atanasov       : Ab Initio Ligand Field Theory (pilot matlab implementation)
   Alexander A. Auer      : GIAO ZORA, VPT2
   Ute Becker             : Parallelization
   Giovanni Bistoni       : ED, misc. LED, open-shell LED, HFLED
   Martin Brehm           : Molecular dynamics
   Dmytro Bykov           : SCF Hessian
   Vijay G. Chilkuri      : MRCI spin determinant printing, contributions to CSF-ICE
   Dipayan Datta          : RHF DLPNO-CCSD density
   Achintya Kumar Dutta   : EOM-CC, STEOM-CC
   Dmitry Ganyushin       : Spin-Orbit,Spin-Spin,Magnetic field MRCI
   Miquel Garcia          : C-PCM Hessian, Gaussian charge scheme
   Yang Guo               : DLPNO-NEVPT2, CIM, IAO-localization
   Andreas Hansen         : Spin unrestricted coupled pair/coupled cluster methods
   Benjamin Helmich-Paris : CASSCF linear response (MC-RPA)
   Lee Huntington         : MR-EOM, pCC
   Robert Izsak           : Overlap fitted RIJCOSX, COSX-SCS-MP3, EOM
   Christian Kollmar      : KDIIS, OOCD, Brueckner-CCSD(T), CCSD density
   Simone Kossmann        : Meta GGA functionals, TD-DFT gradient, OOMP2, MP2 Hessian
   Martin Krupicka        : AUTO-CI
   Lucas Lang             : DCDCAS
   Dagmar Lenk            : GEPOL surface, SMD
   Dimitrios Liakos       : Extrapolation schemes; Compound Job, initial MDCI parallelization
   Dimitrios Manganas     : Further ROCIS development; embedding schemes
   Dimitrios Pantazis     : SARC Basis sets
   Taras Petrenko         : DFT Hessian,TD-DFT gradient, ASA, ECA, R-Raman, ABS, FL, XAS/XES, NRVS
   Peter Pinski           : DLPNO-MP2, DLPNO-MP2 Gradient
   Christoph Reimann      : Effective Core Potentials
   Marius Retegan         : Local ZFS, SOC
   Christoph Riplinger    : Optimizer, TS searches, QM/MM, DLPNO-CCSD(T), (RO)-DLPNO pert. Triples
   Tobias Risthaus        : Range-separated hybrids, TD-DFT gradient, RPA, STAB
   Michael Roemelt        : Original ROCIS implementation
   Masaaki Saitow         : Open-shell DLPNO-CCSD energy and density
   Barbara Sandhoefer     : DKH picture change effects
   Avijit Sen             : IP-ROCIS
   Kantharuban Sivalingam : CASSCF convergence, NEVPT2, FIC-MRCI
   Bernardo de Souza      : ESD, SOC TD-DFT
   Georgi Stoychev        : AutoAux, RI-MP2 NMR
   Willem Van den Heuvel  : Paramagnetic NMR
   Boris Wezisla          : Elementary symmetry handling
   Frank Wennmohs         : Technical directorship


 We gratefully acknowledge several colleagues who have allowed us to
 interface, adapt or use parts of their codes:
   Stefan Grimme, W. Hujo, H. Kruse,             : VdW corrections, initial TS optimization,
                  C. Bannwarth                     DFT functionals, gCP, sTDA/sTD-DF
   Ed Valeev, F. Pavosevic, A. Kumar             : LibInt (2-el integral package), F12 methods
   Garnet Chan, S. Sharma, J. Yang, R. Olivares  : DMRG
   Ulf Ekstrom                                   : XCFun DFT Library
   Mihaly Kallay                                 : mrcc  (arbitrary order and MRCC methods)
   Andreas Klamt, Michael Diedenhofen            : otool_cosmo (COSMO solvation model)
   Jiri Pittner, Ondrej Demel                    : Mk-CCSD
   Frank Weinhold                                : gennbo (NPA and NBO analysis)
   Christopher J. Cramer and Donald G. Truhlar   : smd solvation model
   Lars Goerigk                                  : TD-DFT with DH, B97 family of functionals
   V. Asgeirsson, H. Jonsson                     : NEB implementation
   FAccTs GmbH                                   : IRC, NEB, NEB-TS, Multilevel, MM, QM/MM, CI optimization
   S Lehtola, MJT Oliveira, MAL Marques          : LibXC Library


 Your calculation uses the libint2 library for the computation of 2-el integrals
 For citations please refer to: http://libint.valeyev.net

 Your ORCA version has been built with support for libXC version: 4.2.3
 For citations please refer to: https://tddft.org/programs/libxc/

 This ORCA versions uses:
   CBLAS   interface :  Fast vector & matrix operations
   LAPACKE interface :  Fast linear algebra routines
   SCALAPACK package :  Parallel linear algebra routines


----- Orbital basis set information -----
Your calculation utilizes the basis: def2-TZVP
   F. Weigend and R. Ahlrichs, Phys. Chem. Chem. Phys. 7, 3297 (2005).

================================================================================
                                        WARNINGS
                       Please study these warnings very carefully!
================================================================================


WARNING: The frozen-core approximation for MP2-gradient calculations is turned on by default.

INFO   : the flag for use of LIBINT has been found!

================================================================================
                                       INPUT FILE
================================================================================
NAME = 12mecn.remya.etal.2.mol0,2,3-orca.engrad-mp2.def2tzvp.frozencore.inp
|  1> # 12mecn.remya.etal.2.mol0,2,3
|  2> ! MP2 def2-TZVP EnGrad TightSCF
|  3> 
|  4> %pal
|  5>     nprocs 6
|  6> end
|  7> 
|  8> %maxcore 8000
|  9> 
| 10> %scf
| 11>     ConvForced true
| 12> end
| 13> 
| 14> *xyz 0 1
| 15> C  -0.869520000  -3.929380000   1.700199000
| 16> H  -0.057420000  -3.268850000   2.015352000
| 17> H  -0.697530000  -4.930670000   2.101524000
| 18> H  -1.821490000  -3.546590000   2.077146000
| 19> C  -0.916080000  -3.969960000   0.256749000
| 20> N  -0.955390000  -3.995980000  -0.909290000
| 21> C  -4.219070000  -3.477410000  -1.501740000
| 22> H  -3.251530000  -3.803540000  -1.893830000
| 23> H  -4.452920000  -2.481700000  -1.890840000
| 24> H  -4.992170000  -4.178130000  -1.824640000
| 25> C  -4.154550000  -3.418790000  -0.058340000
| 26> N  -4.091140000  -3.354840000   1.104432000
| 27> C  -5.181310000   2.853865000  -1.626100000
| 28> H  -5.488260000   3.811434000  -2.053310000
| 29> H  -5.857590000   2.068112000  -1.968630000
| 30> H  -4.170750000   2.611402000  -1.966640000
| 31> C  -5.187260000   2.919160000  -0.181450000
| 32> N  -5.181700000   2.970641000   0.983640000
| 33> *
| 34> 
| 35>                          ****END OF INPUT****
================================================================================

                     *******************************
                     * Energy+Gradient Calculation *
                     *******************************

---------------------------------
CARTESIAN COORDINATES (ANGSTROEM)
---------------------------------
  C     -0.869520   -3.929380    1.700199
  H     -0.057420   -3.268850    2.015352
  H     -0.697530   -4.930670    2.101524
  H     -1.821490   -3.546590    2.077146
  C     -0.916080   -3.969960    0.256749
  N     -0.955390   -3.995980   -0.909290
  C     -4.219070   -3.477410   -1.501740
  H     -3.251530   -3.803540   -1.893830
  H     -4.452920   -2.481700   -1.890840
  H     -4.992170   -4.178130   -1.824640
  C     -4.154550   -3.418790   -0.058340
  N     -4.091140   -3.354840    1.104432
  C     -5.181310    2.853865   -1.626100
  H     -5.488260    3.811434   -2.053310
  H     -5.857590    2.068112   -1.968630
  H     -4.170750    2.611402   -1.966640
  C     -5.187260    2.919160   -0.181450
  N     -5.181700    2.970641    0.983640

----------------------------
CARTESIAN COORDINATES (A.U.)
----------------------------
  NO LB      ZA    FRAG     MASS         X           Y           Z
   0 C     6.0000    0    12.011   -1.643155   -7.425452    3.212910
   1 H     1.0000    0     1.008   -0.108508   -6.177231    3.808463
   2 H     1.0000    0     1.008   -1.318141   -9.317616    3.971305
   3 H     1.0000    0     1.008   -3.442117   -6.702084    3.925237
   4 C     6.0000    0    12.011   -1.731140   -7.502137    0.485185
   5 N     7.0000    0    14.007   -1.805425   -7.551308   -1.718309
   6 C     6.0000    0    12.011   -7.972887   -6.571353   -2.837877
   7 H     1.0000    0     1.008   -6.144501   -7.187649   -3.578820
   8 H     1.0000    0     1.008   -8.414799   -4.689733   -3.573170
   9 H     1.0000    0     1.008   -9.433834   -7.895521   -3.448070
  10 C     6.0000    0    12.011   -7.850962   -6.460577   -0.110247
  11 N     7.0000    0    14.007   -7.731134   -6.339729    2.087074
  12 C     6.0000    0    12.011   -9.791257    5.393023   -3.072884
  13 H     1.0000    0     1.008  -10.371308    7.202566   -3.880194
  14 H     1.0000    0     1.008  -11.069241    3.908165   -3.720172
  15 H     1.0000    0     1.008   -7.881575    4.934835   -3.716411
  16 C     6.0000    0    12.011   -9.802501    5.516413   -0.342891
  17 N     7.0000    0    14.007   -9.791994    5.613698    1.858810

--------------------------------
INTERNAL COORDINATES (ANGSTROEM)
--------------------------------
 C      0   0   0     0.000000000000     0.00000000     0.00000000
 H      1   0   0     1.093218964485     0.00000000     0.00000000
 H      1   2   0     1.092347920685   109.32735472     0.00000000
 H      1   2   3     1.093098397130   109.63009885   119.86690662
 C      1   2   3     1.444770733542   109.20363402   239.27834980
 N      5   1   2     1.166991544966   179.65780255   294.97577729
 C      6   5   1     3.357308295316   101.86598865   293.44785499
 H      7   6   5     1.093722540958    32.56772883   195.21065514
 H      7   6   5     1.094313957053   114.26914035   106.78736280
 H      7   6   5     1.092225497963   129.87810657   254.42040630
 C      7   6   5     1.446029977144    77.68667392     1.16069710
 N     11   7   6     1.166254326716   179.00625359    65.23450688
 C      9   7   6     5.391557579116   155.76303900   285.38295006
 H     13   9   7     1.092549804980   152.38801767   187.69816460
 H     13   9   7     1.091828382260    49.91541967   235.86360897
 H     13   9   7     1.093612048017    68.92838779    95.89836173
 C     13   9   7     1.446137082722    95.41048311   347.64443542
 N     17  13   9     1.166240076083   179.48782841    75.73891023

---------------------------
INTERNAL COORDINATES (A.U.)
---------------------------
 C      0   0   0     0.000000000000     0.00000000     0.00000000
 H      1   0   0     2.065884447285     0.00000000     0.00000000
 H      1   2   0     2.064238413053   109.32735472     0.00000000
 H      1   2   3     2.065656608005   109.63009885   119.86690662
 C      1   2   3     2.730221012699   109.20363402   239.27834980
 N      5   1   2     2.205294420586   179.65780255   294.97577729
 C      6   5   1     6.344393225290   101.86598865   293.44785499
 H      7   6   5     2.066836068907    32.56772883   195.21065514
 H      7   6   5     2.067953683357   114.26914035   106.78736280
 H      7   6   5     2.064007067635   129.87810657   254.42040630
 C      7   6   5     2.732600638243    77.68667392     1.16069710
 N     11   7   6     2.203901279994   179.00625359    65.23450688
 C      9   7   6    10.188567259797   155.76303900   285.38295006
 H     13   9   7     2.064619919081   152.38801767   187.69816460
 H     13   9   7     2.063256627714    49.91541967   235.86360897
 H     13   9   7     2.066627267510    68.92838779    95.89836173
 C     13   9   7     2.732803038453    95.41048311   347.64443542
 N     17  13   9     2.203874350199   179.48782841    75.73891023

---------------------
BASIS SET INFORMATION
---------------------
There are 3 groups of distinct atoms

 Group   1 Type C   : 11s6p2d1f contracted to 5s3p2d1f pattern {62111/411/11/1}
 Group   2 Type H   : 5s1p contracted to 3s1p pattern {311/1}
 Group   3 Type N   : 11s6p2d1f contracted to 5s3p2d1f pattern {62111/411/11/1}

Atom   0C    basis set group =>   1
Atom   1H    basis set group =>   2
Atom   2H    basis set group =>   2
Atom   3H    basis set group =>   2
Atom   4C    basis set group =>   1
Atom   5N    basis set group =>   3
Atom   6C    basis set group =>   1
Atom   7H    basis set group =>   2
Atom   8H    basis set group =>   2
Atom   9H    basis set group =>   2
Atom  10C    basis set group =>   1
Atom  11N    basis set group =>   3
Atom  12C    basis set group =>   1
Atom  13H    basis set group =>   2
Atom  14H    basis set group =>   2
Atom  15H    basis set group =>   2
Atom  16C    basis set group =>   1
Atom  17N    basis set group =>   3


           ************************************************************
           *        Program running with 6 parallel MPI-processes     *
           *              working on a common directory               *
           ************************************************************
------------------------------------------------------------------------------
                           ORCA GTO INTEGRAL CALCULATION
------------------------------------------------------------------------------

                         BASIS SET STATISTICS AND STARTUP INFO

 # of primitive gaussian shells          ...  234
 # of primitive gaussian functions       ...  486
 # of contracted shells                  ...  135
 # of contracted basis functions         ...  333
 Highest angular momentum                ...    3
 Maximum contraction depth               ...    6
 Integral package used                   ... LIBINT
 Integral threshhold            Thresh   ...  2.500e-11
 Primitive cut-off              TCut     ...  2.500e-12


------------------------------ INTEGRAL EVALUATION ----------------------------


 * One electron integrals 
 Pre-screening matrix                    ... done
 Shell pair data                         ... done (   0.002 sec)



           ************************************************************
           *        Program running with 6 parallel MPI-processes     *
           *              working on a common directory               *
           ************************************************************
-------------------------------------------------------------------------------
                                 ORCA SCF
-------------------------------------------------------------------------------

------------
SCF SETTINGS
------------
Hamiltonian:
 Ab initio Hamiltonian  Method          .... Hartree-Fock(GTOs)


General Settings:
 Integral files         IntName         .... 12mecn.remya.etal.2.mol0,2,3-orca.engrad-mp2.def2tzvp.frozencore
 Hartree-Fock type      HFTyp           .... RHF
 Total Charge           Charge          ....    0
 Multiplicity           Mult            ....    1
 Number of Electrons    NEL             ....   66
 Basis Dimension        Dim             ....  333
 Nuclear Repulsion      ENuc            ....    314.6104995818 Eh

Convergence Acceleration:
 DIIS                   CNVDIIS         .... on
   Start iteration      DIISMaxIt       ....    12
   Startup error        DIISStart       ....  0.200000
   # of expansion vecs  DIISMaxEq       ....     5
   Bias factor          DIISBfac        ....   1.050
   Max. coefficient     DIISMaxC        ....  10.000
 Newton-Raphson         CNVNR           .... off
 SOSCF                  CNVSOSCF        .... on
   Start iteration      SOSCFMaxIt      ....   150
   Startup grad/error   SOSCFStart      ....  0.003300
 Level Shifting         CNVShift        .... on
   Level shift para.    LevelShift      ....    0.2500
   Turn off err/grad.   ShiftErr        ....    0.0010
 Zerner damping         CNVZerner       .... off
 Static damping         CNVDamp         .... on
   Fraction old density DampFac         ....    0.7000
   Max. Damping (<1)    DampMax         ....    0.9800
   Min. Damping (>=0)   DampMin         ....    0.0000
   Turn off err/grad.   DampErr         ....    0.1000
 Fernandez-Rico         CNVRico         .... off

SCF Procedure:
 Maximum # iterations   MaxIter         ....   125
 SCF integral mode      SCFMode         .... Direct
   Integral package                     .... LIBINT
 Reset frequency        DirectResetFreq ....    20
 Integral Threshold     Thresh          ....  2.500e-11 Eh
 Primitive CutOff       TCut            ....  2.500e-12 Eh

Convergence Tolerance:
 Convergence Check Mode ConvCheckMode   .... Total+1el-Energy
 Convergence forced     ConvForced      .... 1
 Energy Change          TolE            ....  1.000e-08 Eh
 1-El. energy change                    ....  1.000e-05 Eh
 Orbital Gradient       TolG            ....  1.000e-05
 Orbital Rotation angle TolX            ....  1.000e-05
 DIIS Error             TolErr          ....  5.000e-07


Diagonalization of the overlap matrix:
Smallest eigenvalue                        ... 1.491e-04
Time for diagonalization                   ...    0.247 sec
Threshold for overlap eigenvalues          ... 1.000e-08
Number of eigenvalues below threshold      ... 0
Time for construction of square roots      ...    0.009 sec
Total time needed                          ...    0.257 sec

-------------------
DFT GRID GENERATION
-------------------

General Integration Accuracy     IntAcc      ...  4.340
Radial Grid Type                 RadialGrid  ... Gauss-Chebyshev
Angular Grid (max. acc.)         AngularGrid ... Lebedev-110
Angular grid pruning method      GridPruning ... 3 (G Style)
Weight generation scheme         WeightScheme... Becke
Basis function cutoff            BFCut       ...    1.0000e-11
Integration weight cutoff        WCut        ...    1.0000e-14
Grids for H and He will be reduced by one unit

# of grid points (after initial pruning)     ...  22188 (   0.0 sec)
# of grid points (after weights+screening)   ...  20980 (   0.0 sec)
nearest neighbour list constructed           ...    0.0 sec
Grid point re-assignment to atoms done       ...    0.0 sec
Grid point division into batches done        ...    0.0 sec
Reduced shell lists constructed in    0.0 sec

Total number of grid points                  ...    20980
Total number of batches                      ...      335
Average number of points per batch           ...       62
Average number of grid points per atom       ...     1166
Average number of shells per batch           ...    57.84 (42.85%)
Average number of basis functions per batch  ...   139.14 (41.78%)
Average number of large shells per batch     ...    42.23 (73.01%)
Average number of large basis fcns per batch ...    99.84 (71.76%)
Maximum spatial batch extension              ...  14.29, 15.68, 18.49 au
Average spatial batch extension              ...   0.67,  0.73,  0.78 au

Time for grid setup =    0.085 sec

------------------------------
INITIAL GUESS: MODEL POTENTIAL
------------------------------
Loading Hartree-Fock densities                     ... done
Calculating cut-offs                               ... done
Setting up the integral package                    ... done
Initializing the effective Hamiltonian             ... done
Starting the Coulomb interaction                   ... done (   0.0 sec)
Reading the grid                                   ... done
Mapping shells                                     ... done
Starting the XC term evaluation                    ... done (   0.0 sec)
Transforming the Hamiltonian                       ... done (   0.0 sec)
Diagonalizing the Hamiltonian                      ... done (   0.0 sec)
Back transforming the eigenvectors                 ... done (   0.0 sec)
Now organizing SCF variables                       ... done
                      ------------------
                      INITIAL GUESS DONE (   0.3 sec)
                      ------------------
--------------
SCF ITERATIONS
--------------
ITER       Energy         Delta-E        Max-DP      RMS-DP      [F,P]     Damp
               ***  Starting incremental Fock matrix formation  ***
  0   -395.4434456143   0.000000000000 0.03791357  0.00084374  0.2829458 0.7000
  1   -395.6166106967  -0.173165082392 0.02714338  0.00066528  0.1878857 0.7000
                               ***Turning on DIIS***
  2   -395.7183471020  -0.101736405305 0.01615568  0.00044100  0.1421430 0.7000
  3   -396.6748899640  -0.956542862046 0.01057326  0.00029101  0.1056241 0.7000
  4   -396.6200797503   0.054810213689 0.02863529  0.00071161  0.0744058 0.0000
  5   -395.9560299370   0.664049813293 0.00626332  0.00011399  0.0061940 0.0000
                      *** Initiating the SOSCF procedure ***
                           *** Shutting down DIIS ***
                      *** Re-Reading the Fockian *** 
                      *** Removing any level shift *** 
ITER      Energy       Delta-E        Grad      Rot      Max-DP    RMS-DP
  6   -395.93762321   0.0184067246  0.001279  0.001279  0.004355  0.000071
               *** Restarting incremental Fock matrix formation ***
  7   -395.92822977   0.0093934448  0.000488  0.000776  0.002952  0.000049
  8   -395.92824915  -0.0000193806  0.000317  0.000553  0.002532  0.000042
  9   -395.92825371  -0.0000045640  0.000126  0.000152  0.000779  0.000012
 10   -395.92825437  -0.0000006611  0.000025  0.000042  0.000090  0.000001
 11   -395.92825440  -0.0000000263  0.000018  0.000049  0.000052  0.000001
 12   -395.92825441  -0.0000000127  0.000006  0.000011  0.000037  0.000001
 13   -395.92825441  -0.0000000021  0.000004  0.000007  0.000014  0.000000
                  ***Gradient check signals convergence***
              ***Rediagonalizing the Fockian in SOSCF/NRSCF***

               *****************************************************
               *                     SUCCESS                       *
               *           SCF CONVERGED AFTER  14 CYCLES          *
               *****************************************************


----------------
TOTAL SCF ENERGY
----------------

Total Energy       :         -395.92825442 Eh          -10773.75553 eV

Components:
Nuclear Repulsion  :          314.61049958 Eh            8560.98693 eV
Electronic Energy  :         -710.53875400 Eh          -19334.74246 eV
One Electron Energy:        -1158.23131200 Eh          -31517.07630 eV
Two Electron Energy:          447.69255801 Eh           12182.33384 eV

Virial components:
Potential Energy   :         -791.08784363 Eh          -21526.59462 eV
Kinetic Energy     :          395.15958921 Eh           10752.83909 eV
Virial Ratio       :            2.00194520


---------------
SCF CONVERGENCE
---------------

  Last Energy change         ...   -1.7956e-09  Tolerance :   1.0000e-08
  Last MAX-Density change    ...    3.2685e-06  Tolerance :   1.0000e-07
  Last RMS-Density change    ...    5.3626e-08  Tolerance :   5.0000e-09
  Last Orbital Gradient      ...    1.4459e-06  Tolerance :   1.0000e-05
  Last Orbital Rotation      ...    4.3674e-06  Tolerance :   1.0000e-05

             **** THE GBW FILE WAS UPDATED (12mecn.remya.etal.2.mol0,2,3-orca.engrad-mp2.def2tzvp.frozencore.gbw) ****
             **** DENSITY FILE WAS UPDATED (12mecn.remya.etal.2.mol0,2,3-orca.engrad-mp2.def2tzvp.frozencore.scfp) ****
             **** ENERGY FILE WAS UPDATED (12mecn.remya.etal.2.mol0,2,3-orca.engrad-mp2.def2tzvp.frozencore.en.tmp) ****
             **** THE GBW FILE WAS UPDATED (12mecn.remya.etal.2.mol0,2,3-orca.engrad-mp2.def2tzvp.frozencore.gbw) ****
             **** DENSITY FILE WAS UPDATED (12mecn.remya.etal.2.mol0,2,3-orca.engrad-mp2.def2tzvp.frozencore.scfp) ****
----------------
ORBITAL ENERGIES
----------------

  NO   OCC          E(Eh)            E(eV) 
   0   2.0000     -15.573301      -423.7711 
   1   2.0000     -15.571798      -423.7302 
   2   2.0000     -15.571094      -423.7110 
   3   2.0000     -11.285987      -307.1073 
   4   2.0000     -11.283337      -307.0352 
   5   2.0000     -11.283236      -307.0324 
   6   2.0000     -11.280009      -306.9446 
   7   2.0000     -11.274170      -306.7858 
   8   2.0000     -11.270544      -306.6871 
   9   2.0000      -1.218545       -33.1583 
  10   2.0000      -1.214737       -33.0547 
  11   2.0000      -1.214210       -33.0403 
  12   2.0000      -1.044577       -28.4244 
  13   2.0000      -1.037360       -28.2280 
  14   2.0000      -1.033893       -28.1337 
  15   2.0000      -0.701920       -19.1002 
  16   2.0000      -0.696152       -18.9433 
  17   2.0000      -0.690987       -18.8027 
  18   2.0000      -0.633508       -17.2386 
  19   2.0000      -0.631591       -17.1865 
  20   2.0000      -0.631243       -17.1770 
  21   2.0000      -0.624359       -16.9897 
  22   2.0000      -0.621208       -16.9039 
  23   2.0000      -0.614925       -16.7330 
  24   2.0000      -0.559473       -15.2240 
  25   2.0000      -0.556152       -15.1337 
  26   2.0000      -0.555856       -15.1256 
  27   2.0000      -0.460475       -12.5302 
  28   2.0000      -0.459863       -12.5135 
  29   2.0000      -0.458093       -12.4654 
  30   2.0000      -0.457626       -12.4526 
  31   2.0000      -0.457046       -12.4369 
  32   2.0000      -0.455826       -12.4037 
  33   0.0000       0.108669         2.9570 
  34   0.0000       0.130751         3.5579 
  35   0.0000       0.142875         3.8878 
  36   0.0000       0.167801         4.5661 
  37   0.0000       0.169809         4.6207 
  38   0.0000       0.170740         4.6461 
  39   0.0000       0.173508         4.7214 
  40   0.0000       0.178623         4.8606 
  41   0.0000       0.195708         5.3255 
  42   0.0000       0.199180         5.4200 
  43   0.0000       0.209617         5.7040 
  44   0.0000       0.215416         5.8618 
  45   0.0000       0.217597         5.9211 
  46   0.0000       0.224784         6.1167 
  47   0.0000       0.228772         6.2252 
  48   0.0000       0.234434         6.3793 
  49   0.0000       0.256101         6.9689 
  50   0.0000       0.264203         7.1893 
  51   0.0000       0.271362         7.3841 
  52   0.0000       0.281505         7.6601 
  53   0.0000       0.311797         8.4844 
  54   0.0000       0.319260         8.6875 
  55   0.0000       0.321316         8.7434 
  56   0.0000       0.325164         8.8482 
  57   0.0000       0.329759         8.9732 
  58   0.0000       0.332368         9.0442 
  59   0.0000       0.349237         9.5032 
  60   0.0000       0.379231        10.3194 
  61   0.0000       0.381585        10.3834 
  62   0.0000       0.389683        10.6038 
  63   0.0000       0.401755        10.9323 
  64   0.0000       0.408740        11.1224 
  65   0.0000       0.420432        11.4405 
  66   0.0000       0.453390        12.3374 
  67   0.0000       0.469602        12.7785 
  68   0.0000       0.479034        13.0352 
  69   0.0000       0.493873        13.4390 
  70   0.0000       0.497093        13.5266 
  71   0.0000       0.526872        14.3369 
  72   0.0000       0.530165        14.4265 
  73   0.0000       0.553962        15.0741 
  74   0.0000       0.559757        15.2318 
  75   0.0000       0.586967        15.9722 
  76   0.0000       0.594828        16.1861 
  77   0.0000       0.597258        16.2522 
  78   0.0000       0.602107        16.3842 
  79   0.0000       0.604455        16.4481 
  80   0.0000       0.609722        16.5914 
  81   0.0000       0.617721        16.8091 
  82   0.0000       0.637958        17.3597 
  83   0.0000       0.657673        17.8962 
  84   0.0000       0.659737        17.9524 
  85   0.0000       0.660494        17.9730 
  86   0.0000       0.669183        18.2094 
  87   0.0000       0.675670        18.3859 
  88   0.0000       0.696757        18.9597 
  89   0.0000       0.711749        19.3677 
  90   0.0000       0.731342        19.9008 
  91   0.0000       0.743602        20.2344 
  92   0.0000       0.754266        20.5246 
  93   0.0000       0.788439        21.4545 
  94   0.0000       0.799895        21.7662 
  95   0.0000       0.807751        21.9800 
  96   0.0000       0.812514        22.1096 
  97   0.0000       0.813912        22.1477 
  98   0.0000       0.823633        22.4122 
  99   0.0000       0.852258        23.1911 
 100   0.0000       0.858363        23.3572 
 101   0.0000       0.915353        24.9080 
 102   0.0000       0.917092        24.9554 
 103   0.0000       0.919144        25.0112 
 104   0.0000       0.927820        25.2473 
 105   0.0000       0.934562        25.4307 
 106   0.0000       0.967030        26.3142 
 107   0.0000       1.030257        28.0347 
 108   0.0000       1.035019        28.1643 
 109   0.0000       1.060424        28.8556 
 110   0.0000       1.094650        29.7869 
 111   0.0000       1.123214        30.5642 
 112   0.0000       1.125243        30.6194 
 113   0.0000       1.132840        30.8261 
 114   0.0000       1.142481        31.0885 
 115   0.0000       1.149274        31.2733 
 116   0.0000       1.178682        32.0736 
 117   0.0000       1.321833        35.9689 
 118   0.0000       1.335950        36.3531 
 119   0.0000       1.338230        36.4151 
 120   0.0000       1.387773        37.7632 
 121   0.0000       1.417985        38.5853 
 122   0.0000       1.419921        38.6380 
 123   0.0000       1.422861        38.7180 
 124   0.0000       1.427920        38.8557 
 125   0.0000       1.441701        39.2307 
 126   0.0000       1.448924        39.4272 
 127   0.0000       1.458529        39.6886 
 128   0.0000       1.468396        39.9571 
 129   0.0000       1.469921        39.9986 
 130   0.0000       1.471727        40.0477 
 131   0.0000       1.475108        40.1397 
 132   0.0000       1.491226        40.5783 
 133   0.0000       1.495554        40.6961 
 134   0.0000       1.509648        41.0796 
 135   0.0000       1.518993        41.3339 
 136   0.0000       1.529587        41.6222 
 137   0.0000       1.564531        42.5731 
 138   0.0000       1.690264        45.9944 
 139   0.0000       1.698287        46.2127 
 140   0.0000       1.699999        46.2593 
 141   0.0000       1.721375        46.8410 
 142   0.0000       1.734334        47.1936 
 143   0.0000       1.736651        47.2567 
 144   0.0000       1.747680        47.5568 
 145   0.0000       1.762299        47.9546 
 146   0.0000       1.762557        47.9616 
 147   0.0000       1.766697        48.0743 
 148   0.0000       1.786283        48.6072 
 149   0.0000       1.787350        48.6363 
 150   0.0000       1.796418        48.8830 
 151   0.0000       1.801460        49.0202 
 152   0.0000       1.821089        49.5544 
 153   0.0000       1.821892        49.5762 
 154   0.0000       1.833583        49.8943 
 155   0.0000       1.866337        50.7856 
 156   0.0000       1.934230        52.6331 
 157   0.0000       1.935667        52.6722 
 158   0.0000       1.938659        52.7536 
 159   0.0000       1.944170        52.9035 
 160   0.0000       1.970380        53.6168 
 161   0.0000       1.975637        53.7598 
 162   0.0000       1.978353        53.8337 
 163   0.0000       2.014211        54.8095 
 164   0.0000       2.033707        55.3400 
 165   0.0000       2.219395        60.3928 
 166   0.0000       2.225641        60.5628 
 167   0.0000       2.232629        60.7529 
 168   0.0000       2.236996        60.8718 
 169   0.0000       2.247814        61.1661 
 170   0.0000       2.254871        61.3582 
 171   0.0000       2.259744        61.4908 
 172   0.0000       2.271406        61.8081 
 173   0.0000       2.302493        62.6540 
 174   0.0000       2.343224        63.7624 
 175   0.0000       2.363823        64.3229 
 176   0.0000       2.368279        64.4441 
 177   0.0000       2.540771        69.1379 
 178   0.0000       2.549187        69.3669 
 179   0.0000       2.552059        69.4451 
 180   0.0000       2.563146        69.7467 
 181   0.0000       2.571324        69.9693 
 182   0.0000       2.579949        70.2040 
 183   0.0000       2.586532        70.3831 
 184   0.0000       2.595928        70.6388 
 185   0.0000       2.618789        71.2609 
 186   0.0000       2.620952        71.3197 
 187   0.0000       2.624088        71.4051 
 188   0.0000       2.628766        71.5324 
 189   0.0000       2.642067        71.8943 
 190   0.0000       2.648274        72.0632 
 191   0.0000       2.676618        72.8345 
 192   0.0000       2.702524        73.5394 
 193   0.0000       2.710420        73.7543 
 194   0.0000       2.739206        74.5376 
 195   0.0000       2.743452        74.6531 
 196   0.0000       2.746395        74.7332 
 197   0.0000       2.754094        74.9427 
 198   0.0000       2.760767        75.1243 
 199   0.0000       2.761760        75.1513 
 200   0.0000       2.815265        76.6072 
 201   0.0000       2.910440        79.1971 
 202   0.0000       2.913159        79.2711 
 203   0.0000       2.913217        79.2727 
 204   0.0000       2.913927        79.2920 
 205   0.0000       2.915397        79.3320 
 206   0.0000       2.922624        79.5287 
 207   0.0000       2.944681        80.1288 
 208   0.0000       2.950315        80.2821 
 209   0.0000       2.956510        80.4507 
 210   0.0000       2.956979        80.4635 
 211   0.0000       2.969218        80.7965 
 212   0.0000       3.000582        81.6500 
 213   0.0000       3.025977        82.3410 
 214   0.0000       3.034355        82.5690 
 215   0.0000       3.051811        83.0440 
 216   0.0000       3.087294        84.0096 
 217   0.0000       3.090980        84.1098 
 218   0.0000       3.092997        84.1647 
 219   0.0000       3.098266        84.3081 
 220   0.0000       3.106452        84.5309 
 221   0.0000       3.151200        85.7485 
 222   0.0000       3.217328        87.5480 
 223   0.0000       3.231489        87.9333 
 224   0.0000       3.236173        88.0607 
 225   0.0000       3.243790        88.2680 
 226   0.0000       3.246668        88.3463 
 227   0.0000       3.257875        88.6513 
 228   0.0000       3.265967        88.8715 
 229   0.0000       3.270479        88.9943 
 230   0.0000       3.308265        90.0225 
 231   0.0000       3.327615        90.5490 
 232   0.0000       3.329186        90.5918 
 233   0.0000       3.335010        90.7502 
 234   0.0000       3.347490        91.0898 
 235   0.0000       3.364857        91.5624 
 236   0.0000       3.403711        92.6197 
 237   0.0000       3.438891        93.5770 
 238   0.0000       3.442891        93.6858 
 239   0.0000       3.445637        93.7606 
 240   0.0000       3.451057        93.9080 
 241   0.0000       3.462810        94.2279 
 242   0.0000       3.484625        94.8215 
 243   0.0000       3.486030        94.8597 
 244   0.0000       3.547015        96.5192 
 245   0.0000       3.549740        96.5933 
 246   0.0000       3.633755        98.8795 
 247   0.0000       3.647384        99.2504 
 248   0.0000       3.658281        99.5469 
 249   0.0000       3.663825        99.6977 
 250   0.0000       3.670088        99.8682 
 251   0.0000       3.670783        99.8871 
 252   0.0000       3.796086       103.2968 
 253   0.0000       3.799526       103.3904 
 254   0.0000       3.802572       103.4732 
 255   0.0000       3.807881       103.6177 
 256   0.0000       3.809660       103.6661 
 257   0.0000       3.861628       105.0802 
 258   0.0000       3.923440       106.7622 
 259   0.0000       3.938162       107.1628 
 260   0.0000       3.945949       107.3747 
 261   0.0000       3.948123       107.4339 
 262   0.0000       3.956130       107.6518 
 263   0.0000       3.959747       107.7502 
 264   0.0000       3.962664       107.8296 
 265   0.0000       3.969836       108.0247 
 266   0.0000       3.982894       108.3800 
 267   0.0000       4.247764       115.5875 
 268   0.0000       4.249550       115.6361 
 269   0.0000       4.252702       115.7219 
 270   0.0000       4.259604       115.9097 
 271   0.0000       4.263130       116.0057 
 272   0.0000       4.300368       117.0190 
 273   0.0000       4.339884       118.0943 
 274   0.0000       4.342075       118.1539 
 275   0.0000       4.343298       118.1871 
 276   0.0000       4.347015       118.2883 
 277   0.0000       4.347105       118.2908 
 278   0.0000       4.353027       118.4519 
 279   0.0000       4.558603       124.0459 
 280   0.0000       4.578564       124.5891 
 281   0.0000       4.585004       124.7643 
 282   0.0000       4.740895       129.0063 
 283   0.0000       4.749224       129.2329 
 284   0.0000       4.752519       129.3226 
 285   0.0000       4.760360       129.5360 
 286   0.0000       4.761709       129.5727 
 287   0.0000       4.791963       130.3959 
 288   0.0000       4.834048       131.5411 
 289   0.0000       4.857087       132.1681 
 290   0.0000       4.862444       132.3138 
 291   0.0000       4.960332       134.9775 
 292   0.0000       4.962068       135.0247 
 293   0.0000       4.963125       135.0535 
 294   0.0000       4.968556       135.2013 
 295   0.0000       4.980635       135.5300 
 296   0.0000       5.009239       136.3083 
 297   0.0000       5.062736       137.7641 
 298   0.0000       5.068662       137.9253 
 299   0.0000       5.069590       137.9506 
 300   0.0000       5.076201       138.1304 
 301   0.0000       5.077462       138.1648 
 302   0.0000       5.098881       138.7476 
 303   0.0000       5.199283       141.4797 
 304   0.0000       5.210725       141.7910 
 305   0.0000       5.221488       142.0839 
 306   0.0000       5.556860       151.2099 
 307   0.0000       5.557751       151.2341 
 308   0.0000       5.557871       151.2374 
 309   0.0000       5.559652       151.2858 
 310   0.0000       5.587647       152.0476 
 311   0.0000       5.590338       152.1208 
 312   0.0000       6.021987       163.8666 
 313   0.0000       6.023247       163.9009 
 314   0.0000       6.027235       164.0094 
 315   0.0000       6.080470       165.4580 
 316   0.0000       6.087106       165.6386 
 317   0.0000       6.087739       165.6558 
 318   0.0000       6.087888       165.6599 
 319   0.0000       6.096447       165.8928 
 320   0.0000       6.172101       167.9514 
 321   0.0000       6.466782       175.9701 
 322   0.0000       6.470016       176.0581 
 323   0.0000       6.486201       176.4985 
 324   0.0000      23.471138       638.6821 
 325   0.0000      23.487067       639.1156 
 326   0.0000      23.495560       639.3467 
 327   0.0000      24.379931       663.4116 
 328   0.0000      24.382877       663.4918 
 329   0.0000      24.399232       663.9369 
 330   0.0000      33.390164       908.5925 
 331   0.0000      33.430927       909.7018 
 332   0.0000      33.468337       910.7197 

                    ********************************
                    * MULLIKEN POPULATION ANALYSIS *
                    ********************************

-----------------------
MULLIKEN ATOMIC CHARGES
-----------------------
   0 C :   -0.177259
   1 H :    0.150042
   2 H :    0.148855
   3 H :    0.200178
   4 C :   -0.054319
   5 N :   -0.267417
   6 C :   -0.178544
   7 H :    0.199000
   8 H :    0.142138
   9 H :    0.150510
  10 C :   -0.054847
  11 N :   -0.258329
  12 C :   -0.168305
  13 H :    0.156909
  14 H :    0.153170
  15 H :    0.156150
  16 C :   -0.106487
  17 N :   -0.191445
Sum of atomic charges:   -0.0000000

--------------------------------
MULLIKEN REDUCED ORBITAL CHARGES
--------------------------------
  0 C s       :     3.156096  s :     3.156096
      pz      :     0.777300  p :     2.956896
      px      :     1.103841
      py      :     1.075754
      dz2     :     0.017849  d :     0.060799
      dxz     :     0.010683
      dyz     :     0.010424
      dx2y2   :     0.010040
      dxy     :     0.011803
      f0      :     0.001734  f :     0.003468
      f+1     :     0.000198
      f-1     :     0.000188
      f+2     :     0.000071
      f-2     :     0.000055
      f+3     :     0.000250
      f-3     :     0.000972
  1 H s       :     0.827637  s :     0.827637
      pz      :     0.004525  p :     0.022322
      px      :     0.009905
      py      :     0.007892
  2 H s       :     0.828694  s :     0.828694
      pz      :     0.005188  p :     0.022451
      px      :     0.004067
      py      :     0.013195
  3 H s       :     0.776468  s :     0.776468
      pz      :     0.004791  p :     0.023354
      px      :     0.013520
      py      :     0.005043
  4 C s       :     3.247335  s :     3.247335
      pz      :     0.958925  p :     2.673311
      px      :     0.847740
      py      :     0.866646
      dz2     :     0.025073  d :     0.116296
      dxz     :     0.045750
      dyz     :     0.044467
      dx2y2   :     0.000366
      dxy     :     0.000639
      f0      :     0.004084  f :     0.017377
      f+1     :     0.006635
      f-1     :     0.006538
      f+2     :     0.000038
      f-2     :     0.000077
      f+3     :     0.000003
      f-3     :     0.000002
  5 N s       :     3.738085  s :     3.738085
      pz      :     1.278418  p :     3.473106
      px      :     1.104549
      py      :     1.090139
      dz2     :     0.011162  d :     0.053287
      dxz     :     0.020962
      dyz     :     0.021073
      dx2y2   :     0.000079
      dxy     :     0.000010
      f0      :     0.000625  f :     0.002940
      f+1     :     0.001142
      f-1     :     0.001160
      f+2     :     0.000006
      f-2     :     0.000005
      f+3     :     0.000001
      f-3     :     0.000000
  6 C s       :     3.155173  s :     3.155173
      pz      :     0.782269  p :     2.958488
      px      :     1.107188
      py      :     1.069030
      dz2     :     0.017700  d :     0.061402
      dxz     :     0.011429
      dyz     :     0.010492
      dx2y2   :     0.009974
      dxy     :     0.011806
      f0      :     0.001737  f :     0.003482
      f+1     :     0.000205
      f-1     :     0.000190
      f+2     :     0.000057
      f-2     :     0.000082
      f+3     :     0.000433
      f-3     :     0.000777
  7 H s       :     0.777765  s :     0.777765
      pz      :     0.004872  p :     0.023234
      px      :     0.013722
      py      :     0.004640
  8 H s       :     0.835543  s :     0.835543
      pz      :     0.005057  p :     0.022319
      px      :     0.004287
      py      :     0.012976
  9 H s       :     0.827165  s :     0.827165
      pz      :     0.004559  p :     0.022325
      px      :     0.009348
      py      :     0.008418
 10 C s       :     3.245189  s :     3.245189
      pz      :     0.955444  p :     2.676437
      px      :     0.850801
      py      :     0.870192
      dz2     :     0.025297  d :     0.115826
      dxz     :     0.044958
      dyz     :     0.044270
      dx2y2   :     0.000385
      dxy     :     0.000916
      f0      :     0.004170  f :     0.017395
      f+1     :     0.006544
      f-1     :     0.006449
      f+2     :     0.000090
      f-2     :     0.000137
      f+3     :     0.000004
      f-3     :     0.000002
 11 N s       :     3.742621  s :     3.742621
      pz      :     1.274667  p :     3.459326
      px      :     1.099071
      py      :     1.085587
      dz2     :     0.011288  d :     0.053442
      dxz     :     0.020924
      dyz     :     0.020978
      dx2y2   :     0.000167
      dxy     :     0.000086
      f0      :     0.000638  f :     0.002940
      f+1     :     0.001125
      f-1     :     0.001140
      f+2     :     0.000019
      f-2     :     0.000017
      f+3     :     0.000001
      f-3     :     0.000000
 12 C s       :     3.148336  s :     3.148336
      pz      :     0.796412  p :     2.954181
      px      :     1.078387
      py      :     1.079381
      dz2     :     0.017669  d :     0.062311
      dxz     :     0.010888
      dyz     :     0.012393
      dx2y2   :     0.010378
      dxy     :     0.010983
      f0      :     0.001716  f :     0.003477
      f+1     :     0.000202
      f-1     :     0.000220
      f+2     :     0.000067
      f-2     :     0.000074
      f+3     :     0.000775
      f-3     :     0.000423
 13 H s       :     0.820695  s :     0.820695
      pz      :     0.005353  p :     0.022396
      px      :     0.004595
      py      :     0.012447
 14 H s       :     0.824429  s :     0.824429
      pz      :     0.004696  p :     0.022400
      px      :     0.008083
      py      :     0.009622
 15 H s       :     0.821475  s :     0.821475
      pz      :     0.004679  p :     0.022376
      px      :     0.013427
      py      :     0.004269
 16 C s       :     3.232878  s :     3.232878
      pz      :     0.966118  p :     2.742652
      px      :     0.886933
      py      :     0.889600
      dz2     :     0.026871  d :     0.113615
      dxz     :     0.043234
      dyz     :     0.042800
      dx2y2   :     0.000224
      dxy     :     0.000486
      f0      :     0.004144  f :     0.017343
      f+1     :     0.006548
      f-1     :     0.006527
      f+2     :     0.000053
      f-2     :     0.000071
      f+3     :     0.000000
      f-3     :     0.000000
 17 N s       :     3.717700  s :     3.717700
      pz      :     1.285391  p :     3.415636
      px      :     1.066726
      py      :     1.063519
      dz2     :     0.011706  d :     0.055140
      dxz     :     0.021696
      dyz     :     0.021659
      dx2y2   :     0.000041
      dxy     :     0.000037
      f0      :     0.000626  f :     0.002969
      f+1     :     0.001168
      f-1     :     0.001163
      f+2     :     0.000006
      f-2     :     0.000006
      f+3     :     0.000000
      f-3     :     0.000000


                     *******************************
                     * LOEWDIN POPULATION ANALYSIS *
                     *******************************

----------------------
LOEWDIN ATOMIC CHARGES
----------------------
   0 C :   -0.242943
   1 H :    0.142825
   2 H :    0.143043
   3 H :    0.151784
   4 C :   -0.182196
   5 N :   -0.013202
   6 C :   -0.244260
   7 H :    0.151056
   8 H :    0.142127
   9 H :    0.141011
  10 C :   -0.183139
  11 N :   -0.006105
  12 C :   -0.245755
  13 H :    0.143201
  14 H :    0.142179
  15 H :    0.144486
  16 C :   -0.199432
  17 N :    0.015320

-------------------------------
LOEWDIN REDUCED ORBITAL CHARGES
-------------------------------
  0 C s       :     2.813482  s :     2.813482
      pz      :     1.019880  p :     3.147604
      px      :     1.069237
      py      :     1.058487
      dz2     :     0.079528  d :     0.256723
      dxz     :     0.056651
      dyz     :     0.059986
      dx2y2   :     0.027330
      dxy     :     0.033227
      f0      :     0.007590  f :     0.025134
      f+1     :     0.005037
      f-1     :     0.004885
      f+2     :     0.002403
      f-2     :     0.001951
      f+3     :     0.000680
      f-3     :     0.002589
  1 H s       :     0.796520  s :     0.796520
      pz      :     0.011987  p :     0.060655
      px      :     0.026800
      py      :     0.021868
  2 H s       :     0.796086  s :     0.796086
      pz      :     0.013257  p :     0.060871
      px      :     0.013266
      py      :     0.034348
  3 H s       :     0.783762  s :     0.783762
      pz      :     0.012777  p :     0.064453
      px      :     0.036130
      py      :     0.015546
  4 C s       :     2.841015  s :     2.841015
      pz      :     1.195176  p :     2.822520
      px      :     0.809432
      py      :     0.817912
      dz2     :     0.154330  d :     0.459087
      dxz     :     0.153055
      dyz     :     0.149989
      dx2y2   :     0.000575
      dxy     :     0.001137
      f0      :     0.022863  f :     0.059574
      f+1     :     0.018477
      f-1     :     0.017951
      f+2     :     0.000085
      f-2     :     0.000187
      f+3     :     0.000007
      f-3     :     0.000005
  5 N s       :     3.307981  s :     3.307981
      pz      :     1.494954  p :     3.583220
      px      :     1.046800
      py      :     1.041466
      dz2     :     0.045478  d :     0.107909
      dxz     :     0.030978
      dyz     :     0.031254
      dx2y2   :     0.000168
      dxy     :     0.000033
      f0      :     0.006232  f :     0.014092
      f+1     :     0.003884
      f-1     :     0.003939
      f+2     :     0.000019
      f-2     :     0.000016
      f+3     :     0.000001
      f-3     :     0.000000
  6 C s       :     2.813711  s :     2.813711
      pz      :     1.020839  p :     3.147917
      px      :     1.070755
      py      :     1.056323
      dz2     :     0.078640  d :     0.257542
      dxz     :     0.058567
      dyz     :     0.059698
      dx2y2   :     0.026841
      dxy     :     0.033795
      f0      :     0.007508  f :     0.025091
      f+1     :     0.004909
      f-1     :     0.004956
      f+2     :     0.002452
      f-2     :     0.002017
      f+3     :     0.001172
      f-3     :     0.002076
  7 H s       :     0.784768  s :     0.784768
      pz      :     0.012980  p :     0.064176
      px      :     0.036691
      py      :     0.014505
  8 H s       :     0.797555  s :     0.797555
      pz      :     0.012981  p :     0.060317
      px      :     0.013715
      py      :     0.033621
  9 H s       :     0.798128  s :     0.798128
      pz      :     0.012062  p :     0.060861
      px      :     0.025648
      py      :     0.023151
 10 C s       :     2.840324  s :     2.840324
      pz      :     1.192636  p :     2.826738
      px      :     0.813028
      py      :     0.821074
      dz2     :     0.154289  d :     0.456543
      dxz     :     0.150983
      dyz     :     0.148703
      dx2y2   :     0.000732
      dxy     :     0.001835
      f0      :     0.022812  f :     0.059535
      f+1     :     0.018298
      f-1     :     0.017813
      f+2     :     0.000249
      f-2     :     0.000351
      f+3     :     0.000007
      f-3     :     0.000005
 11 N s       :     3.307639  s :     3.307639
      pz      :     1.492901  p :     3.575536
      px      :     1.043355
      py      :     1.039279
      dz2     :     0.045362  d :     0.108737
      dxz     :     0.031330
      dyz     :     0.031564
      dx2y2   :     0.000333
      dxy     :     0.000149
      f0      :     0.006192  f :     0.014193
      f+1     :     0.003908
      f-1     :     0.003968
      f+2     :     0.000064
      f-2     :     0.000059
      f+3     :     0.000002
      f-3     :     0.000000
 12 C s       :     2.813773  s :     2.813773
      pz      :     1.024966  p :     3.144006
      px      :     1.059732
      py      :     1.059307
      dz2     :     0.077101  d :     0.262638
      dxz     :     0.059139
      dyz     :     0.065035
      dx2y2   :     0.029381
      dxy     :     0.031981
      f0      :     0.007318  f :     0.025339
      f+1     :     0.005311
      f-1     :     0.004903
      f+2     :     0.002364
      f-2     :     0.002184
      f+3     :     0.002103
      f-3     :     0.001155
 13 H s       :     0.795890  s :     0.795890
      pz      :     0.013699  p :     0.060910
      px      :     0.014383
      py      :     0.032827
 14 H s       :     0.796902  s :     0.796902
      pz      :     0.012396  p :     0.060918
      px      :     0.022554
      py      :     0.025968
 15 H s       :     0.794808  s :     0.794808
      pz      :     0.012344  p :     0.060706
      px      :     0.034831
      py      :     0.013531
 16 C s       :     2.838696  s :     2.838696
      pz      :     1.191074  p :     2.854683
      px      :     0.830627
      py      :     0.832982
      dz2     :     0.154305  d :     0.447311
      dxz     :     0.146360
      dyz     :     0.145453
      dx2y2   :     0.000328
      dxy     :     0.000864
      f0      :     0.023058  f :     0.058743
      f+1     :     0.017672
      f-1     :     0.017727
      f+2     :     0.000121
      f-2     :     0.000164
      f+3     :     0.000001
      f-3     :     0.000001
 17 N s       :     3.314350  s :     3.314350
      pz      :     1.494721  p :     3.544124
      px      :     1.025663
      py      :     1.023740
      dz2     :     0.045873  d :     0.111777
      dxz     :     0.032776
      dyz     :     0.033002
      dx2y2   :     0.000067
      dxy     :     0.000060
      f0      :     0.006231  f :     0.014428
      f+1     :     0.004056
      f-1     :     0.004099
      f+2     :     0.000021
      f-2     :     0.000019
      f+3     :     0.000000
      f-3     :     0.000000


                      *****************************
                      * MAYER POPULATION ANALYSIS *
                      *****************************

  NA   - Mulliken gross atomic population
  ZA   - Total nuclear charge
  QA   - Mulliken gross atomic charge
  VA   - Mayer's total valence
  BVA  - Mayer's bonded valence
  FA   - Mayer's free valence

  ATOM       NA         ZA         QA         VA         BVA        FA
  0 C      6.1773     6.0000    -0.1773     3.7834     3.7834    -0.0000
  1 H      0.8500     1.0000     0.1500     0.9621     0.9621    -0.0000
  2 H      0.8511     1.0000     0.1489     0.9643     0.9643    -0.0000
  3 H      0.7998     1.0000     0.2002     0.9602     0.9602    -0.0000
  4 C      6.0543     6.0000    -0.0543     3.8727     3.8727    -0.0000
  5 N      7.2674     7.0000    -0.2674     2.9894     2.9894    -0.0000
  6 C      6.1785     6.0000    -0.1785     3.7887     3.7887    -0.0000
  7 H      0.8010     1.0000     0.1990     0.9608     0.9608    -0.0000
  8 H      0.8579     1.0000     0.1421     0.9646     0.9646    -0.0000
  9 H      0.8495     1.0000     0.1505     0.9620     0.9620    -0.0000
 10 C      6.0548     6.0000    -0.0548     3.8676     3.8676    -0.0000
 11 N      7.2583     7.0000    -0.2583     2.9848     2.9848     0.0000
 12 C      6.1683     6.0000    -0.1683     3.8097     3.8097    -0.0000
 13 H      0.8431     1.0000     0.1569     0.9620     0.9620     0.0000
 14 H      0.8468     1.0000     0.1532     0.9620     0.9620     0.0000
 15 H      0.8439     1.0000     0.1561     0.9614     0.9614     0.0000
 16 C      6.1065     6.0000    -0.1065     3.9202     3.9202    -0.0000
 17 N      7.1914     7.0000    -0.1914     3.0362     3.0362     0.0000

  Mayer bond orders larger than 0.100000
B(  0-C ,  1-H ) :   0.9635 B(  0-C ,  2-H ) :   0.9613 B(  0-C ,  3-H ) :   0.9491 
B(  0-C ,  4-C ) :   0.9246 B(  4-C ,  5-N ) :   2.9542 B(  6-C ,  7-H ) :   0.9497 
B(  6-C ,  8-H ) :   0.9634 B(  6-C ,  9-H ) :   0.9641 B(  6-C , 10-C ) :   0.9260 
B( 10-C , 11-N ) :   2.9497 B( 12-C , 13-H ) :   0.9625 B( 12-C , 14-H ) :   0.9644 
B( 12-C , 15-H ) :   0.9640 B( 12-C , 16-C ) :   0.9293 B( 16-C , 17-N ) :   3.0108 


-------
TIMINGS
-------

Total SCF time: 0 days 0 hours 0 min 35 sec 

Total time                  ....      35.338 sec
Sum of individual times     ....      34.801 sec  ( 98.5%)

Fock matrix formation       ....      34.209 sec  ( 96.8%)
Diagonalization             ....       0.137 sec  (  0.4%)
Density matrix formation    ....       0.019 sec  (  0.1%)
Population analysis         ....       0.032 sec  (  0.1%)
Initial guess               ....       0.173 sec  (  0.5%)
Orbital Transformation      ....       0.000 sec  (  0.0%)
Orbital Orthonormalization  ....       0.000 sec  (  0.0%)
DIIS solution               ....       0.050 sec  (  0.1%)
SOSCF solution              ....       0.096 sec  (  0.3%)


           ************************************************************
           *        Program running with 6 parallel MPI-processes     *
           *              working on a common directory               *
           ************************************************************

------------------------------------------------------------------------------
                                ORCA  MP2 
------------------------------------------------------------------------------

Freezing NCore=18 chemical core electrons
MP2 will be done in the AO integral direct mode
The Q1-step will be done using symmetric double matrices
Dimension of the basis                    ...  333
Memory devoted for MP2                    ... 8000 MB   
Memory needed for all in one shot         ...  566 MB
Number of MOs that can be treated together...   55      
MP2 density construction                  ... relaxed
The MP2 gradient is requested => amplitudes will be stored on disk
Total number of MOs              ...   24
Number of MOs treated per batch  ...    4 
Number of batches necessary      ...    1 
OPERATORS   0/  0 PASS   0
-----------------------------------------------
 MP2 CORRELATION ENERGY   :     -1.530660509 Eh
-----------------------------------------------


---------------------
MP2 DENSITY FORMATION
---------------------

Completing the external part of the density      ... done
Storing the unrelaxed density                    ... done

Calculating G(D)                                 ... done
Completing the Lagrangian                        ... done
Solving the Z-vector equations                   ... 

------------------------------------------------------------------------------
                           ORCA CP-SCF CALCULATION
------------------------------------------------------------------------------

Input orbitals are from        ... 12mecn.remya.etal.2.mol0,2,3-orca.engrad-mp2.def2tzvp.frozencore.gbw
Input Perturbation             ... 12mecn.remya.etal.2.mol0,2,3-orca.engrad-mp2.def2tzvp.frozencore.pin.tmp
Wavefunction output            ... 12mecn.remya.etal.2.mol0,2,3-orca.engrad-mp2.def2tzvp.frozencore.pout.tmp
Perturbation mode              ... Real perturbation (singlet)
Solver                         ... POPLE
Max. number of iterations      ... 128
Convergence tolerance          ... 1.000e-08
Integral handling              ... Direct
Number of perturbations        ... 1
Number of operators            ... 1
Orbital ranges used for CP-SCF:
 Operator 0:  Orbitals   0... 32  to  33...332
Variables per vector in CP-SCF ... 9900
Number of vectors sought       ... 1
     CP-SCF ITERATION   0: 
     CP-SCF ITERATION   1:      0.001519971569
     CP-SCF ITERATION   2:      0.000267240771
     CP-SCF ITERATION   3:      0.000010166715
     CP-SCF ITERATION   4:      0.000002477111
     CP-SCF ITERATION   5:      0.000001147614
     CP-SCF ITERATION   6:      0.000000137896
     CP-SCF ITERATION   7:      0.000000014477
     CP-SCF ITERATION   8:      0.000000001056
                                                 ... done
Finalizing the relaxed density                   ... done
Transforming P to the AO basis                   ... done
Storing the relaxed density                      ... done

------------------------------------
ENERGY WEIGHTED DENSITY FINALIZATION
------------------------------------

Gathering the parts of the W-matrix              ...                                                      done
Forming the Z-density                            ... done
Transforming Z to the AO basis                   ... done
Calculating G(Z)                                 ... done
Finalizing the W-matrix                          ...                                                      done
Transforming W to the AO basis and storing       ... done

                *********************************************
                * UNRELAXED MP2 DENSITY POPULATION ANALYSIS *
                *********************************************

------------------------------------------------------------------------------
                           ORCA POPULATION ANALYSIS
------------------------------------------------------------------------------
Input electron density              ... 12mecn.remya.etal.2.mol0,2,3-orca.engrad-mp2.def2tzvp.frozencore.pmp2ur
BaseName (.gbw .S,...)              ... 12mecn.remya.etal.2.mol0,2,3-orca.engrad-mp2.def2tzvp.frozencore

                    ********************************
                    * MULLIKEN POPULATION ANALYSIS *
                    ********************************

-----------------------
MULLIKEN ATOMIC CHARGES
-----------------------
   0 C :   -0.189700
   1 H :    0.152728
   2 H :    0.151559
   3 H :    0.201958
   4 C :   -0.065070
   5 N :   -0.251403
   6 C :   -0.191005
   7 H :    0.200773
   8 H :    0.144852
   9 H :    0.153185
  10 C :   -0.065219
  11 N :   -0.242650
  12 C :   -0.181577
  13 H :    0.159479
  14 H :    0.155753
  15 H :    0.158718
  16 C :   -0.115039
  17 N :   -0.177343
Sum of atomic charges:   -0.0000000

--------------------------------
MULLIKEN REDUCED ORBITAL CHARGES
--------------------------------
  0 C s       :     3.154304  s :     3.154304
      pz      :     0.776223  p :     2.941445
      px      :     1.096223
      py      :     1.068998
      dz2     :     0.020337  d :     0.086612
      dxz     :     0.016845
      dyz     :     0.016498
      dx2y2   :     0.015644
      dxy     :     0.017289
      f0      :     0.002133  f :     0.007340
      f+1     :     0.000864
      f-1     :     0.000853
      f+2     :     0.000610
      f-2     :     0.000600
      f+3     :     0.000814
      f-3     :     0.001465
  1 H s       :     0.822107  s :     0.822107
      pz      :     0.005537  p :     0.025165
      px      :     0.010800
      py      :     0.008828
  2 H s       :     0.823161  s :     0.823161
      pz      :     0.006175  p :     0.025279
      px      :     0.005108
      py      :     0.013996
  3 H s       :     0.772016  s :     0.772016
      pz      :     0.005759  p :     0.026026
      px      :     0.014252
      py      :     0.006014
  4 C s       :     3.246432  s :     3.246432
      pz      :     0.949840  p :     2.666751
      px      :     0.849471
      py      :     0.867440
      dz2     :     0.027495  d :     0.131565
      dxz     :     0.047693
      dyz     :     0.046475
      dx2y2   :     0.004810
      dxy     :     0.005092
      f0      :     0.004551  f :     0.020322
      f+1     :     0.007062
      f-1     :     0.006974
      f+2     :     0.000594
      f-2     :     0.000631
      f+3     :     0.000256
      f-3     :     0.000255
  5 N s       :     3.725708  s :     3.725708
      pz      :     1.266079  p :     3.443932
      px      :     1.095739
      py      :     1.082113
      dz2     :     0.015467  d :     0.076090
      dxz     :     0.025219
      dyz     :     0.025238
      dx2y2   :     0.005124
      dxy     :     0.005043
      f0      :     0.001055  f :     0.005673
      f+1     :     0.001593
      f-1     :     0.001609
      f+2     :     0.000425
      f-2     :     0.000423
      f+3     :     0.000285
      f-3     :     0.000284
  6 C s       :     3.153392  s :     3.153392
      pz      :     0.781114  p :     2.943063
      px      :     1.099572
      py      :     1.062378
      dz2     :     0.020221  d :     0.087202
      dxz     :     0.017566
      dyz     :     0.016576
      dx2y2   :     0.015552
      dxy     :     0.017286
      f0      :     0.002136  f :     0.007348
      f+1     :     0.000871
      f-1     :     0.000853
      f+2     :     0.000598
      f-2     :     0.000626
      f+3     :     0.000977
      f-3     :     0.001287
  7 H s       :     0.773315  s :     0.773315
      pz      :     0.005839  p :     0.025912
      px      :     0.014449
      py      :     0.005624
  8 H s       :     0.829973  s :     0.829973
      pz      :     0.006055  p :     0.025176
      px      :     0.005330
      py      :     0.013791
  9 H s       :     0.821647  s :     0.821647
      pz      :     0.005570  p :     0.025168
      px      :     0.010258
      py      :     0.009340
 10 C s       :     3.244364  s :     3.244364
      pz      :     0.946320  p :     2.669359
      px      :     0.852257
      py      :     0.870781
      dz2     :     0.027708  d :     0.131155
      dxz     :     0.046935
      dyz     :     0.046302
      dx2y2   :     0.004841
      dxy     :     0.005370
      f0      :     0.004633  f :     0.020340
      f+1     :     0.006973
      f-1     :     0.006887
      f+2     :     0.000643
      f-2     :     0.000687
      f+3     :     0.000259
      f-3     :     0.000258
 11 N s       :     3.730227  s :     3.730227
      pz      :     1.262330  p :     3.430587
      px      :     1.090512
      py      :     1.077746
      dz2     :     0.015574  d :     0.076164
      dxz     :     0.025165
      dyz     :     0.025125
      dx2y2   :     0.005198
      dxy     :     0.005101
      f0      :     0.001069  f :     0.005671
      f+1     :     0.001574
      f-1     :     0.001587
      f+2     :     0.000437
      f-2     :     0.000435
      f+3     :     0.000285
      f-3     :     0.000284
 12 C s       :     3.146747  s :     3.146747
      pz      :     0.795167  p :     2.939639
      px      :     1.071713
      py      :     1.072759
      dz2     :     0.020194  d :     0.087855
      dxz     :     0.017006
      dyz     :     0.018409
      dx2y2   :     0.015839
      dxy     :     0.016407
      f0      :     0.002113  f :     0.007336
      f+1     :     0.000867
      f-1     :     0.000889
      f+2     :     0.000608
      f-2     :     0.000616
      f+3     :     0.001280
      f-3     :     0.000963
 13 H s       :     0.815313  s :     0.815313
      pz      :     0.006331  p :     0.025208
      px      :     0.005614
      py      :     0.013262
 14 H s       :     0.819015  s :     0.819015
      pz      :     0.005699  p :     0.025232
      px      :     0.009017
      py      :     0.010517
 15 H s       :     0.816080  s :     0.816080
      pz      :     0.005681  p :     0.025202
      px      :     0.014221
      py      :     0.005301
 16 C s       :     3.232353  s :     3.232353
      pz      :     0.957274  p :     2.733084
      px      :     0.886684
      py      :     0.889127
      dz2     :     0.029347  d :     0.129294
      dxz     :     0.045341
      dyz     :     0.044925
      dx2y2   :     0.004713
      dxy     :     0.004969
      f0      :     0.004607  f :     0.020308
      f+1     :     0.006989
      f-1     :     0.006969
      f+2     :     0.000606
      f-2     :     0.000624
      f+3     :     0.000256
      f-3     :     0.000256
 17 N s       :     3.704931  s :     3.704931
      pz      :     1.273115  p :     3.389725
      px      :     1.059822
      py      :     1.056788
      dz2     :     0.015880  d :     0.077020
      dxz     :     0.025701
      dyz     :     0.025656
      dx2y2   :     0.004894
      dxy     :     0.004890
      f0      :     0.001053  f :     0.005668
      f+1     :     0.001614
      f-1     :     0.001608
      f+2     :     0.000420
      f-2     :     0.000420
      f+3     :     0.000277
      f-3     :     0.000277


                     *******************************
                     * LOEWDIN POPULATION ANALYSIS *
                     *******************************

----------------------
LOEWDIN ATOMIC CHARGES
----------------------
   0 C :   -0.250929
   1 H :    0.144489
   2 H :    0.144735
   3 H :    0.153333
   4 C :   -0.188286
   5 N :   -0.004032
   6 C :   -0.252267
   7 H :    0.152604
   8 H :    0.143781
   9 H :    0.142698
  10 C :   -0.189067
  11 N :    0.002942
  12 C :   -0.253840
  13 H :    0.144890
  14 H :    0.143848
  15 H :    0.146138
  16 C :   -0.204536
  17 N :    0.023499

-------------------------------
LOEWDIN REDUCED ORBITAL CHARGES
-------------------------------
  0 C s       :     2.811699  s :     2.811699
      pz      :     1.011358  p :     3.122509
      px      :     1.060763
      py      :     1.050388
      dz2     :     0.084691  d :     0.285542
      dxz     :     0.062701
      dyz     :     0.065927
      dx2y2   :     0.033182
      dxy     :     0.039042
      f0      :     0.008707  f :     0.031178
      f+1     :     0.006110
      f-1     :     0.005945
      f+2     :     0.003080
      f-2     :     0.002620
      f+3     :     0.001347
      f-3     :     0.003368
  1 H s       :     0.790066  s :     0.790066
      pz      :     0.013368  p :     0.065445
      px      :     0.028619
      py      :     0.023458
  2 H s       :     0.789626  s :     0.789626
      pz      :     0.014693  p :     0.065639
      px      :     0.014483
      py      :     0.036463
  3 H s       :     0.777634  s :     0.777634
      pz      :     0.014179  p :     0.069033
      px      :     0.038020
      py      :     0.016834
  4 C s       :     2.837587  s :     2.837587
      pz      :     1.182578  p :     2.805623
      px      :     0.807529
      py      :     0.815515
      dz2     :     0.161595  d :     0.477876
      dxz     :     0.154275
      dyz     :     0.151360
      dx2y2   :     0.005064
      dxy     :     0.005582
      f0      :     0.024488  f :     0.067199
      f+1     :     0.020532
      f-1     :     0.020031
      f+2     :     0.000762
      f-2     :     0.000866
      f+3     :     0.000261
      f-3     :     0.000259
  5 N s       :     3.300231  s :     3.300231
      pz      :     1.478895  p :     3.546665
      px      :     1.036326
      py      :     1.031444
      dz2     :     0.052460  d :     0.138567
      dxz     :     0.037914
      dyz     :     0.038048
      dx2y2   :     0.005153
      dxy     :     0.004993
      f0      :     0.007303  f :     0.018569
      f+1     :     0.004871
      f-1     :     0.004913
      f+2     :     0.000459
      f-2     :     0.000455
      f+3     :     0.000286
      f-3     :     0.000284
  6 C s       :     2.811934  s :     2.811934
      pz      :     1.012318  p :     3.122879
      px      :     1.062284
      py      :     1.048277
      dz2     :     0.083825  d :     0.286328
      dxz     :     0.064599
      dyz     :     0.065620
      dx2y2   :     0.032688
      dxy     :     0.039596
      f0      :     0.008625  f :     0.031126
      f+1     :     0.005976
      f-1     :     0.006012
      f+2     :     0.003131
      f-2     :     0.002692
      f+3     :     0.001867
      f-3     :     0.002824
  7 H s       :     0.778633  s :     0.778633
      pz      :     0.014395  p :     0.068762
      px      :     0.038605
      py      :     0.015762
  8 H s       :     0.791085  s :     0.791085
      pz      :     0.014420  p :     0.065134
      px      :     0.014964
      py      :     0.035750
  9 H s       :     0.791656  s :     0.791656
      pz      :     0.013447  p :     0.065646
      px      :     0.027408
      py      :     0.024791
 10 C s       :     2.836919  s :     2.836919
      pz      :     1.180052  p :     2.809448
      px      :     0.810891
      py      :     0.818505
      dz2     :     0.161519  d :     0.475534
      dxz     :     0.152334
      dyz     :     0.150165
      dx2y2   :     0.005242
      dxy     :     0.006275
      f0      :     0.024443  f :     0.067166
      f+1     :     0.020341
      f-1     :     0.019880
      f+2     :     0.000933
      f-2     :     0.001042
      f+3     :     0.000265
      f-3     :     0.000262
 11 N s       :     3.299859  s :     3.299859
      pz      :     1.476846  p :     3.539236
      px      :     1.033039
      py      :     1.029351
      dz2     :     0.052329  d :     0.139295
      dxz     :     0.038223
      dyz     :     0.038321
      dx2y2   :     0.005315
      dxy     :     0.005108
      f0      :     0.007261  f :     0.018668
      f+1     :     0.004889
      f-1     :     0.004936
      f+2     :     0.000508
      f-2     :     0.000502
      f+3     :     0.000286
      f-3     :     0.000284
 12 C s       :     2.811969  s :     2.811969
      pz      :     1.016475  p :     3.119568
      px      :     1.051753
      py      :     1.051341
      dz2     :     0.082300  d :     0.290951
      dxz     :     0.064995
      dyz     :     0.070874
      dx2y2   :     0.035092
      dxy     :     0.037689
      f0      :     0.008436  f :     0.031352
      f+1     :     0.006370
      f-1     :     0.005959
      f+2     :     0.003041
      f-2     :     0.002859
      f+3     :     0.002844
      f-3     :     0.001842
 13 H s       :     0.789472  s :     0.789472
      pz      :     0.015153  p :     0.065638
      px      :     0.015649
      py      :     0.034836
 14 H s       :     0.790472  s :     0.790472
      pz      :     0.013793  p :     0.065681
      px      :     0.024159
      py      :     0.027729
 15 H s       :     0.788398  s :     0.788398
      pz      :     0.013740  p :     0.065464
      px      :     0.036951
      py      :     0.014773
 16 C s       :     2.835425  s :     2.835425
      pz      :     1.178555  p :     2.835791
      px      :     0.827524
      py      :     0.829713
      dz2     :     0.161621  d :     0.466870
      dxz     :     0.147960
      dyz     :     0.147151
      dx2y2   :     0.004811
      dxy     :     0.005328
      f0      :     0.024671  f :     0.066449
      f+1     :     0.019791
      f-1     :     0.019842
      f+2     :     0.000791
      f-2     :     0.000838
      f+3     :     0.000258
      f-3     :     0.000257
 17 N s       :     3.306516  s :     3.306516
      pz      :     1.478841  p :     3.509868
      px      :     1.016415
      py      :     1.014612
      dz2     :     0.052693  d :     0.141264
      dxz     :     0.039336
      dyz     :     0.039544
      dx2y2   :     0.004849
      dxy     :     0.004843
      f0      :     0.007301  f :     0.018852
      f+1     :     0.005022
      f-1     :     0.005064
      f+2     :     0.000457
      f-2     :     0.000455
      f+3     :     0.000277
      f-3     :     0.000277


                      *****************************
                      * MAYER POPULATION ANALYSIS *
                      *****************************

  NA   - Mulliken gross atomic population
  ZA   - Total nuclear charge
  QA   - Mulliken gross atomic charge
  VA   - Mayer's total valence
  BVA  - Mayer's bonded valence
  FA   - Mayer's free valence

  ATOM       NA         ZA         QA         VA         BVA        FA
  0 C      6.1897     6.0000    -0.1897     3.9016     3.6174     0.2842
  1 H      0.8473     1.0000     0.1527     0.9698     0.9217     0.0481
  2 H      0.8484     1.0000     0.1516     0.9719     0.9239     0.0480
  3 H      0.7980     1.0000     0.2020     0.9669     0.9200     0.0469
  4 C      6.0651     6.0000    -0.0651     3.9733     3.5387     0.4345
  5 N      7.2514     7.0000    -0.2514     3.1949     2.7025     0.4924
  6 C      6.1910     6.0000    -0.1910     3.9068     3.6223     0.2846
  7 H      0.7992     1.0000     0.2008     0.9676     0.9206     0.0471
  8 H      0.8551     1.0000     0.1449     0.9725     0.9238     0.0486
  9 H      0.8468     1.0000     0.1532     0.9697     0.9217     0.0480
 10 C      6.0652     6.0000    -0.0652     3.9683     3.5332     0.4350
 11 N      7.2426     7.0000    -0.2426     3.1894     2.6975     0.4918
 12 C      6.1816     6.0000    -0.1816     3.9274     3.6443     0.2830
 13 H      0.8405     1.0000     0.1595     0.9695     0.9221     0.0474
 14 H      0.8442     1.0000     0.1558     0.9696     0.9219     0.0477
 15 H      0.8413     1.0000     0.1587     0.9689     0.9212     0.0477
 16 C      6.1150     6.0000    -0.1150     4.0216     3.5833     0.4383
 17 N      7.1773     7.0000    -0.1773     3.2311     2.7459     0.4853

  Mayer bond orders larger than 0.100000
B(  0-C ,  1-H ) :   0.9259 B(  0-C ,  2-H ) :   0.9237 B(  0-C ,  3-H ) :   0.9118 
B(  0-C ,  4-C ) :   0.8729 B(  4-C ,  5-N ) :   2.6749 B(  6-C ,  7-H ) :   0.9124 
B(  6-C ,  8-H ) :   0.9255 B(  6-C ,  9-H ) :   0.9266 B(  6-C , 10-C ) :   0.8742 
B( 10-C , 11-N ) :   2.6700 B( 12-C , 13-H ) :   0.9252 B( 12-C , 14-H ) :   0.9270 
B( 12-C , 15-H ) :   0.9265 B( 12-C , 16-C ) :   0.8778 B( 16-C , 17-N ) :   2.7273 



                *******************************************
                * RELAXED MP2 DENSITY POPULATION ANALYSIS *
                *******************************************

------------------------------------------------------------------------------
                           ORCA POPULATION ANALYSIS
------------------------------------------------------------------------------
Input electron density              ... 12mecn.remya.etal.2.mol0,2,3-orca.engrad-mp2.def2tzvp.frozencore.pmp2re
BaseName (.gbw .S,...)              ... 12mecn.remya.etal.2.mol0,2,3-orca.engrad-mp2.def2tzvp.frozencore

                    ********************************
                    * MULLIKEN POPULATION ANALYSIS *
                    ********************************

-----------------------
MULLIKEN ATOMIC CHARGES
-----------------------
   0 C :   -0.284285
   1 H :    0.166829
   2 H :    0.166401
   3 H :    0.207306
   4 C :   -0.103010
   5 N :   -0.153237
   6 C :   -0.285987
   7 H :    0.206230
   8 H :    0.160180
   9 H :    0.167439
  10 C :   -0.100505
  11 N :   -0.147353
  12 C :   -0.282525
  13 H :    0.173036
  14 H :    0.169796
  15 H :    0.172697
  16 C :   -0.144832
  17 N :   -0.088178
Sum of atomic charges:   -0.0000000

--------------------------------
MULLIKEN REDUCED ORBITAL CHARGES
--------------------------------
  0 C s       :     3.189060  s :     3.189060
      pz      :     0.822931  p :     3.012128
      px      :     1.106484
      py      :     1.082713
      dz2     :     0.016039  d :     0.076030
      dxz     :     0.016982
      dyz     :     0.016578
      dx2y2   :     0.012618
      dxy     :     0.013813
      f0      :     0.001887  f :     0.007066
      f+1     :     0.000922
      f-1     :     0.000912
      f+2     :     0.000599
      f-2     :     0.000590
      f+3     :     0.000789
      f-3     :     0.001366
  1 H s       :     0.809091  s :     0.809091
      pz      :     0.005629  p :     0.024080
      px      :     0.010074
      py      :     0.008377
  2 H s       :     0.809435  s :     0.809435
      pz      :     0.006141  p :     0.024164
      px      :     0.005301
      py      :     0.012722
  3 H s       :     0.767841  s :     0.767841
      pz      :     0.005828  p :     0.024853
      px      :     0.013011
      py      :     0.006014
  4 C s       :     3.225959  s :     3.225959
      pz      :     0.975313  p :     2.751630
      px      :     0.884827
      py      :     0.891490
      dz2     :     0.022906  d :     0.106461
      dxz     :     0.037236
      dyz     :     0.036479
      dx2y2   :     0.004804
      dxy     :     0.005037
      f0      :     0.004389  f :     0.018960
      f+1     :     0.006447
      f-1     :     0.006402
      f+2     :     0.000589
      f-2     :     0.000622
      f+3     :     0.000256
      f-3     :     0.000255
  5 N s       :     3.675024  s :     3.675024
      pz      :     1.254287  p :     3.405709
      px      :     1.076975
      py      :     1.074447
      dz2     :     0.014379  d :     0.067298
      dxz     :     0.021410
      dyz     :     0.021328
      dx2y2   :     0.005139
      dxy     :     0.005043
[...]
      f+1     :     0.006374
      f-1     :     0.006327
      f+2     :     0.000633
      f-2     :     0.000671
      f+3     :     0.000259
      f-3     :     0.000257
 11 N s       :     3.681098  s :     3.681098
      pz      :     1.249591  p :     3.393732
      px      :     1.073360
      py      :     1.070781
      dz2     :     0.014452  d :     0.067321
      dxz     :     0.021342
      dyz     :     0.021242
      dx2y2   :     0.005198
      dxy     :     0.005086
      f0      :     0.000946  f :     0.005202
      f+1     :     0.001403
      f-1     :     0.001416
      f+2     :     0.000435
      f-2     :     0.000432
      f+3     :     0.000285
      f-3     :     0.000284
 12 C s       :     3.182950  s :     3.182950
      pz      :     0.841468  p :     3.014963
      px      :     1.085924
      py      :     1.087570
      dz2     :     0.015938  d :     0.077531
      dxz     :     0.017300
      dyz     :     0.018330
      dx2y2   :     0.012768
      dxy     :     0.013195
      f0      :     0.001878  f :     0.007082
      f+1     :     0.000929
      f-1     :     0.000948
      f+2     :     0.000596
      f-2     :     0.000605
      f+3     :     0.001204
      f-3     :     0.000921
 13 H s       :     0.802901  s :     0.802901
      pz      :     0.006270  p :     0.024063
      px      :     0.005698
      py      :     0.012095
 14 H s       :     0.806106  s :     0.806106
      pz      :     0.005754  p :     0.024098
      px      :     0.008557
      py      :     0.009787
 15 H s       :     0.803235  s :     0.803235
      pz      :     0.005750  p :     0.024068
      px      :     0.012888
      py      :     0.005430
 16 C s       :     3.211564  s :     3.211564
      pz      :     0.991893  p :     2.809660
      px      :     0.908958
      py      :     0.908809
      dz2     :     0.024528  d :     0.104641
      dxz     :     0.035422
      dyz     :     0.035100
      dx2y2   :     0.004679
      dxy     :     0.004912
      f0      :     0.004421  f :     0.018967
      f+1     :     0.006414
      f-1     :     0.006403
      f+2     :     0.000601
      f-2     :     0.000617
      f+3     :     0.000256
      f-3     :     0.000256
 17 N s       :     3.646543  s :     3.646543
      pz      :     1.263090  p :     3.368428
      px      :     1.053070
      py      :     1.052268
      dz2     :     0.014866  d :     0.068013
      dxz     :     0.021722
      dyz     :     0.021656
      dx2y2   :     0.004886
      dxy     :     0.004883
      f0      :     0.000936  f :     0.005194
      f+1     :     0.001437
      f-1     :     0.001429
      f+2     :     0.000419
      f-2     :     0.000419
      f+3     :     0.000277
      f-3     :     0.000277


                     *******************************
                     * LOEWDIN POPULATION ANALYSIS *
                     *******************************

----------------------
LOEWDIN ATOMIC CHARGES
----------------------
   0 C :   -0.281708
   1 H :    0.151651
   2 H :    0.151861
   3 H :    0.157672
   4 C :   -0.207670
   5 N :    0.027473
   6 C :   -0.283034
   7 H :    0.157004
   8 H :    0.151131
   9 H :    0.149829
  10 C :   -0.207584
  11 N :    0.033375
  12 C :   -0.284614
  13 H :    0.151594
  14 H :    0.150652
  15 H :    0.152951
  16 C :   -0.219196
  17 N :    0.048610

-------------------------------
LOEWDIN REDUCED ORBITAL CHARGES
-------------------------------
  0 C s       :     2.816763  s :     2.816763
      pz      :     1.030100  p :     3.158557
      px      :     1.068724
      py      :     1.059732
      dz2     :     0.076726  d :     0.274987
      dxz     :     0.065032
      dyz     :     0.067365
      dx2y2   :     0.030256
      dxy     :     0.035607
      f0      :     0.008151  f :     0.031401
      f+1     :     0.006604
      f-1     :     0.006354
      f+2     :     0.003070
      f-2     :     0.002609
      f+3     :     0.001326
      f-3     :     0.003286
  1 H s       :     0.782485  s :     0.782485
      pz      :     0.013933  p :     0.065863
      px      :     0.028468
      py      :     0.023462
  2 H s       :     0.782103  s :     0.782103
      pz      :     0.015164  p :     0.066037
      px      :     0.014948
      py      :     0.035925
  3 H s       :     0.773309  s :     0.773309
      pz      :     0.014678  p :     0.069018
      px      :     0.037200
      py      :     0.017141
  4 C s       :     2.841860  s :     2.841860
      pz      :     1.171580  p :     2.838786
      px      :     0.833415
      py      :     0.833791
      dz2     :     0.163698  d :     0.460188
      dxz     :     0.143809
      dyz     :     0.142202
      dx2y2   :     0.005012
      dxy     :     0.005467
      f0      :     0.025546  f :     0.066835
      f+1     :     0.019674
      f-1     :     0.019505
      f+2     :     0.000756
      f-2     :     0.000836
      f+3     :     0.000260
      f-3     :     0.000258
  5 N s       :     3.300796  s :     3.300796
      pz      :     1.466775  p :     3.517558
      px      :     1.024395
      py      :     1.026388
      dz2     :     0.052978  d :     0.135165
      dxz     :     0.036223
      dyz     :     0.035809
      dx2y2   :     0.005161
      dxy     :     0.004994
      f0      :     0.007386  f :     0.019007
      f+1     :     0.005082
      f-1     :     0.005054
      f+2     :     0.000460
      f-2     :     0.000455
      f+3     :     0.000286
      f-3     :     0.000284
  6 C s       :     2.817008  s :     2.817008
      pz      :     1.030805  p :     3.159009
      px      :     1.070300
      py      :     1.057905
      dz2     :     0.075992  d :     0.275679
      dxz     :     0.066732
      dyz     :     0.067037
      dx2y2   :     0.029805
      dxy     :     0.036113
      f0      :     0.008087  f :     0.031338
      f+1     :     0.006450
      f-1     :     0.006412
      f+2     :     0.003124
      f-2     :     0.002678
      f+3     :     0.001830
      f-3     :     0.002757
  7 H s       :     0.774251  s :     0.774251
      pz      :     0.014874  p :     0.068745
      px      :     0.037746
      py      :     0.016124
  8 H s       :     0.783289  s :     0.783289
      pz      :     0.014921  p :     0.065580
      px      :     0.015411
      py      :     0.035248
  9 H s       :     0.784118  s :     0.784118
      pz      :     0.013996  p :     0.066053
      px      :     0.027315
      py      :     0.024742
 10 C s       :     2.841355  s :     2.841355
      pz      :     1.169264  p :     2.841265
      px      :     0.835681
      py      :     0.836320
      dz2     :     0.163534  d :     0.458101
      dxz     :     0.142122
      dyz     :     0.141166
      dx2y2   :     0.005178
      dxy     :     0.006102
      f0      :     0.025460  f :     0.066862
      f+1     :     0.019554
      f-1     :     0.019394
      f+2     :     0.000926
      f-2     :     0.001002
      f+3     :     0.000264
      f-3     :     0.000262
 11 N s       :     3.300397  s :     3.300397
      pz      :     1.464507  p :     3.511389
      px      :     1.022175
      py      :     1.024708
      dz2     :     0.052847  d :     0.135744
      dxz     :     0.036430
      dyz     :     0.036053
      dx2y2   :     0.005312
      dxy     :     0.005102
      f0      :     0.007349  f :     0.019094
      f+1     :     0.005087
      f-1     :     0.005071
      f+2     :     0.000511
      f-2     :     0.000505
      f+3     :     0.000286
      f-3     :     0.000284
 12 C s       :     2.816891  s :     2.816891
      pz      :     1.034352  p :     3.156241
      px      :     1.061190
      py      :     1.060698
      dz2     :     0.074771  d :     0.279926
      dxz     :     0.066721
      dyz     :     0.072086
      dx2y2   :     0.031957
      dxy     :     0.034392
      f0      :     0.007944  f :     0.031556
      f+1     :     0.006804
      f-1     :     0.006362
      f+2     :     0.003025
      f-2     :     0.002840
      f+3     :     0.002776
      f-3     :     0.001805
 13 H s       :     0.782476  s :     0.782476
      pz      :     0.015589  p :     0.065930
      px      :     0.016038
      py      :     0.034303
 14 H s       :     0.783336  s :     0.783336
      pz      :     0.014329  p :     0.066012
      px      :     0.024159
      py      :     0.027524
 15 H s       :     0.781262  s :     0.781262
      pz      :     0.014282  p :     0.065787
      px      :     0.036309
      py      :     0.015195
 16 C s       :     2.841010  s :     2.841010
      pz      :     1.169804  p :     2.860844
      px      :     0.845241
      py      :     0.845800
      dz2     :     0.163752  d :     0.450867
      dxz     :     0.138829
      dyz     :     0.138289
      dx2y2   :     0.004760
      dxy     :     0.005238
      f0      :     0.025651  f :     0.066475
      f+1     :     0.019299
      f-1     :     0.019414
      f+2     :     0.000782
      f-2     :     0.000815
      f+3     :     0.000258
      f-3     :     0.000257
 17 N s       :     3.306650  s :     3.306650
      pz      :     1.465916  p :     3.488455
      px      :     1.011379
      py      :     1.011159
      dz2     :     0.053351  d :     0.137065
      dxz     :     0.036977
      dyz     :     0.037053
      dx2y2   :     0.004844
      dxy     :     0.004839
      f0      :     0.007399  f :     0.019220
      f+1     :     0.005165
      f-1     :     0.005189
      f+2     :     0.000458
      f-2     :     0.000456
      f+3     :     0.000277
      f-3     :     0.000277


                      *****************************
                      * MAYER POPULATION ANALYSIS *
                      *****************************

  NA   - Mulliken gross atomic population
  ZA   - Total nuclear charge
  QA   - Mulliken gross atomic charge
  VA   - Mayer's total valence
  BVA  - Mayer's bonded valence
  FA   - Mayer's free valence

  ATOM       NA         ZA         QA         VA         BVA        FA
  0 C      6.2843     6.0000    -0.2843     3.9074     3.6245     0.2829
  1 H      0.8332     1.0000     0.1668     0.9638     0.9163     0.0475
  2 H      0.8336     1.0000     0.1664     0.9655     0.9181     0.0474
  3 H      0.7927     1.0000     0.2073     0.9699     0.9236     0.0463
  4 C      6.1030     6.0000    -0.1030     4.0893     3.6655     0.4238
  5 N      7.1532     7.0000    -0.1532     3.3070     2.8276     0.4794
  6 C      6.2860     6.0000    -0.2860     3.9118     3.6286     0.2832
  7 H      0.7938     1.0000     0.2062     0.9704     0.9240     0.0464
  8 H      0.8398     1.0000     0.1602     0.9662     0.9182     0.0480
  9 H      0.8326     1.0000     0.1674     0.9637     0.9163     0.0473
 10 C      6.1005     6.0000    -0.1005     4.0818     3.6575     0.4244
 11 N      7.1474     7.0000    -0.1474     3.2995     2.8205     0.4790
 12 C      6.2825     6.0000    -0.2825     3.9312     3.6493     0.2819
 13 H      0.8270     1.0000     0.1730     0.9636     0.9168     0.0468
 14 H      0.8302     1.0000     0.1698     0.9635     0.9164     0.0471
 15 H      0.8273     1.0000     0.1727     0.9627     0.9156     0.0471
 16 C      6.1448     6.0000    -0.1448     4.1448     3.7173     0.4275
 17 N      7.0882     7.0000    -0.0882     3.3445     2.8715     0.4730

  Mayer bond orders larger than 0.100000
B(  0-C ,  1-H ) :   0.9158 B(  0-C ,  2-H ) :   0.9146 B(  0-C ,  3-H ) :   0.9007 
B(  0-C ,  4-C ) :   0.9015 B(  4-C ,  5-N ) :   2.7735 B(  6-C ,  7-H ) :   0.9013 
B(  6-C ,  8-H ) :   0.9161 B(  6-C ,  9-H ) :   0.9167 B(  6-C , 10-C ) :   0.9024 
B( 10-C , 11-N ) :   2.7662 B( 12-C , 13-H ) :   0.9160 B( 12-C , 14-H ) :   0.9177 
B( 12-C , 15-H ) :   0.9171 B( 12-C , 16-C ) :   0.9021 B( 16-C , 17-N ) :   2.8354 



----------------------------------
MP2 DERIVATIVE INTEGRAL GENERATION
----------------------------------


Input Wavefunction Amplitudes       ... 12mecn.remya.etal.2.mol0,2,3-orca.engrad-mp2.def2tzvp.frozencore.mp2tsaa.tmp
Input Correlated Electron Density   ... 12mecn.remya.etal.2.mol0,2,3-orca.engrad-mp2.def2tzvp.frozencore.pmp2re
Input Energy Weighted Density       ... 12mecn.remya.etal.2.mol0,2,3-orca.engrad-mp2.def2tzvp.frozencore.wmp2.tmp
Input SCF Electron Density          ... 12mecn.remya.etal.2.mol0,2,3-orca.engrad-mp2.def2tzvp.frozencore.scfp

One-Electron Terms    ...
                        ... One-Electron Terms done
Prescreening matrices              ... done

Batch handling in the gradient evaluation:
Memory available                      ... 8000.0 MB
Memory per occupied orbital in Q2     ...   20.3 MB
Memory per occupied orbital in Q3     ...    0.1 MB
Total memory requirement per |i>      ...   20.4 MB
Max. Number of orbitals possible      ...    391
Number of orbitals treated per batch  ...     24
Number of batches to be done          ...      1
Batch   0: i=    9 ...    32

---------------------------------------
MP2 TOTAL ENERGY:     -397.458914925 Eh
---------------------------------------

The final MP2 gradient
  0:  -0.00100353  -0.00201247  -0.00782746
  1:   0.00177616   0.00188129  -0.00071548
  2:   0.00024314  -0.00200236   0.00065139
  3:  -0.00187209   0.00110000   0.00006359
  4:   0.00000096   0.00092584   0.00323767
  5:   0.00064955   0.00010822   0.00417832
  6:   0.00012440  -0.00066568   0.00827174
  7:   0.00183439  -0.00149430  -0.00076846
  8:  -0.00083549   0.00324304   0.00023691
  9:  -0.00081937  -0.00149301  -0.00115431
 10:   0.00028499   0.00026522  -0.00063637
 11:  -0.00035536   0.00024192  -0.00552956
 12:  -0.00255933   0.00201102   0.00747344
 13:  -0.00070045   0.00244729  -0.00053913
 14:  -0.00025747  -0.00198540  -0.00008781
 15:   0.00250057  -0.00155516   0.00091204
 16:   0.00083370  -0.00073795  -0.00314060
 17:   0.00015521  -0.00027751  -0.00462592

-----------------------------------
NORM OF THE MP2 GRADIENT:  0.018794
-----------------------------------

-------------------------   --------------------
FINAL SINGLE POINT ENERGY      -397.458914925055
-------------------------   --------------------


                            ***************************************
                            *     ORCA property calculations      *
                            ***************************************

                                    ---------------------
                                    Active property flags
                                    ---------------------
   (+) Dipole Moment


------------------------------------------------------------------------------
                       ORCA ELECTRIC PROPERTIES CALCULATION
------------------------------------------------------------------------------

Dipole Moment Calculation                       ... on
Quadrupole Moment Calculation                   ... off
Polarizability Calculation                      ... off
GBWName                                         ... 12mecn.remya.etal.2.mol0,2,3-orca.engrad-mp2.def2tzvp.frozencore.gbw
Electron density file                           ... 12mecn.remya.etal.2.mol0,2,3-orca.engrad-mp2.def2tzvp.frozencore.scfp
The origin for moment calculation is the CENTER OF MASS  = (-6.457620, -2.816367 -0.090215)

-------------
DIPOLE MOMENT
-------------
                                X             Y             Z
Electronic contribution:      0.00655       0.17368       3.04960
Nuclear contribution   :     -0.03236      -0.28594      -4.65941
                        -----------------------------------------
Total Dipole Moment    :     -0.02581      -0.11226      -1.60980
                        -----------------------------------------
Magnitude (a.u.)       :      1.61392
Magnitude (Debye)      :      4.10226



--------------------
Rotational spectrum 
--------------------
 
Rotational constants in cm-1:     0.052171     0.010579     0.010141 
Rotational constants in MHz :  1564.035296   317.159426   304.011380 

 Dipole components along the rotational axes: 
x,y,z [a.u.] :    -0.043331    -1.220983    -1.054543 
x,y,z [Debye]:    -0.110140    -3.103493    -2.680434 

 

                         *** MP2 UNRELAXED DENSITY ***

------------------------------------------------------------------------------
                       ORCA ELECTRIC PROPERTIES CALCULATION
------------------------------------------------------------------------------

Dipole Moment Calculation                       ... on
Quadrupole Moment Calculation                   ... off
Polarizability Calculation                      ... off
GBWName                                         ... 12mecn.remya.etal.2.mol0,2,3-orca.engrad-mp2.def2tzvp.frozencore.gbw
Electron density file                           ... 12mecn.remya.etal.2.mol0,2,3-orca.engrad-mp2.def2tzvp.frozencore.pmp2ur
The origin for moment calculation is the CENTER OF MASS  = (-6.457620, -2.816367 -0.090215)

-------------
DIPOLE MOMENT
-------------
                                X             Y             Z
Electronic contribution:      0.00764       0.17659       3.08468
Nuclear contribution   :     -0.03236      -0.28594      -4.65941
                        -----------------------------------------
Total Dipole Moment    :     -0.02472      -0.10935      -1.57473
                        -----------------------------------------
Magnitude (a.u.)       :      1.57871
Magnitude (Debye)      :      4.01277



--------------------
Rotational spectrum 
--------------------
 
Rotational constants in cm-1:     0.052171     0.010579     0.010141 
Rotational constants in MHz :  1564.035296   317.159426   304.011380 

 Dipole components along the rotational axes: 
x,y,z [a.u.] :    -0.042569    -1.193901    -1.032045 
x,y,z [Debye]:    -0.108201    -3.034655    -2.623251 

 

                           *** MP2 RELAXED DENSITY ***

------------------------------------------------------------------------------
                       ORCA ELECTRIC PROPERTIES CALCULATION
------------------------------------------------------------------------------

Dipole Moment Calculation                       ... on
Quadrupole Moment Calculation                   ... off
Polarizability Calculation                      ... off
GBWName                                         ... 12mecn.remya.etal.2.mol0,2,3-orca.engrad-mp2.def2tzvp.frozencore.gbw
Electron density file                           ... 12mecn.remya.etal.2.mol0,2,3-orca.engrad-mp2.def2tzvp.frozencore.pmp2re
The origin for moment calculation is the CENTER OF MASS  = (-6.457620, -2.816367 -0.090215)

-------------
DIPOLE MOMENT
-------------
                                X             Y             Z
Electronic contribution:      0.01021       0.18397       3.18094
Nuclear contribution   :     -0.03236      -0.28594      -4.65941
                        -----------------------------------------
Total Dipole Moment    :     -0.02215      -0.10197      -1.47846
                        -----------------------------------------
Magnitude (a.u.)       :      1.48214
Magnitude (Debye)      :      3.76731



--------------------
Rotational spectrum 
--------------------
 
Rotational constants in cm-1:     0.052171     0.010579     0.010141 
Rotational constants in MHz :  1564.035296   317.159426   304.011380 

 Dipole components along the rotational axes: 
x,y,z [a.u.] :    -0.040119    -1.120042    -0.969867 
x,y,z [Debye]:    -0.101975    -2.846919    -2.465207 

 

Timings for individual modules:

Sum of individual times         ...      175.013 sec (=   2.917 min)
GTO integral calculation        ...        3.802 sec (=   0.063 min)   2.2 %
SCF iterations                  ...       37.557 sec (=   0.626 min)  21.5 %
MP2 module                      ...      133.654 sec (=   2.228 min)  76.4 %
                             ****ORCA TERMINATED NORMALLY****
TOTAL RUN TIME: 0 days 0 hours 2 minutes 56 seconds 57 msec
