16
Energy:   -463.00051466
O    1.02660267   2.17546915   1.51233304
H    0.84341364   2.75684743   2.25035264
H    1.90420087   2.42467670   1.22259379
O    0.46268868  -0.61633043   1.49089116
H    0.64257589  -1.04410427   2.32807811
H    0.66857324   0.30592391   1.64350286
O   -0.26862069   1.35520812  -0.85646837
H   -0.49051399   1.96658895  -1.55875655
H    0.08075107   1.90863071  -0.15797381
O    0.45971641  -1.06541601  -2.05411670
H    0.92284380  -1.42261609  -2.81184552
H    0.41448567  -0.12419305  -2.22229923
O   -1.81158715  -2.25233054  -0.16797140
H   -2.37071786  -2.52656483   0.55894005
H   -2.02926817  -2.85521612  -0.87886927
Li  -0.43259353  -0.86438732  -0.29018646
