16
Energy:   -484.58032455
O   -0.20065604  -0.53383234   1.38699762
H    0.46607425   0.08073099   1.69361542
H   -0.56119635  -0.91573336   2.18724392
O   -0.07423183   1.50477081  -0.90253700
H   -0.37670632   2.21287377  -1.47115921
H    0.64124274   1.89137999  -0.39769908
O    1.75574019   1.32453301   1.88439010
H    2.68028368   1.08327494   1.94136141
H    1.67870205   2.10952589   2.42668445
O   -2.39576635  -0.94461407  -0.95918607
H   -2.72730875  -1.62317311  -1.54729245
H   -3.18077100  -0.56333814  -0.56595814
O    0.72786109  -1.50876732  -1.50884463
H    1.35915289  -2.15413568  -1.19072170
H    0.80763975  -1.54464404  -2.46203929
Li  -0.56165707  -0.37520258  -0.51967179
