16
Energy:   -484.66920523
O    1.06973677   1.19935851  -2.63082635
H    1.77094195   1.01136928  -3.25468787
H    0.63258327   1.97282331  -2.98702976
O    0.20360456  -1.93600658   1.79793765
H    0.88905833  -2.56113584   1.56214454
H   -0.22841410  -2.32841562   2.55662525
O   -0.32433854  -0.70104242  -1.22633114
H    0.17280586  -0.07557263  -1.75346191
H   -0.71697704  -1.29522206  -1.86587584
O   -2.04453517   0.22658376   1.41799777
H   -2.25751745   0.79208540   2.16034425
H   -2.89029800   0.03175183   1.01431769
O    1.02365427   1.11857038   0.85766835
H    1.70603168   1.28844122   1.50708102
H    1.29385931   1.62051115   0.08872326
Li  -0.29435005  -0.35370981   0.71874688
