16
Energy:   -485.00270956
O   -0.29120111  -0.57843834  -2.61759361
H   -1.19167215  -0.60391718  -2.94122084
H    0.24457891  -0.79085218  -3.38182654
O   -0.64035541  -1.25388940   0.49241158
H   -0.85236833  -0.79022100   1.30253131
H   -0.90546315  -2.15873344   0.65735703
O    2.19398387  -0.35711988  -0.64383073
H    2.94319180   0.11048336  -1.01297369
H    2.58019641  -0.98579986  -0.03404946
O   -0.28393959   1.71330742  -0.21545414
H   -0.57245529   2.50775786  -0.66471915
H   -0.41837654   1.90068930   0.71354887
O   -0.94409851   0.45914805   2.68667116
H   -1.79781581   0.55387577   3.10907531
H   -0.32455707   0.38216295   3.41225613
Li   0.27249765  -0.11187023  -0.78912168
