16
Energy:   -484.97482594
O    2.40415494   0.55646862  -1.51509374
H    3.06683400   1.24090803  -1.42219057
H    2.72773129   0.00415329  -2.22676640
O    1.05753555  -0.43801834   1.31969519
H    1.24285226  -0.59970681   2.24476082
H    1.91463478  -0.26621764   0.92969868
O   -1.96960931   0.69471200   1.60484110
H   -1.84590432   1.50773392   2.09466177
H   -2.90266273   0.50050082   1.69386460
O   -0.26267043   1.04520406  -1.02118146
H    0.64359260   0.95763959  -1.31656532
H   -0.64240892   1.70309887  -1.60359450
O   -1.44860520  -1.90018545  -0.24717724
H   -1.40218603  -2.77785810   0.13199005
H   -1.84675358  -2.03127503  -1.10771500
Li  -0.69580441  -0.19663736   0.41029362
