22
Energy:   -370.84349933
Na  -0.96920833  -0.97635089  -1.47135865
O   -0.84661623   1.61992730   1.34694629
H   -0.03410112   1.74152151   1.83813453
H   -1.45891853   2.24324788   1.73782888
O   -1.37680769  -1.02773831   0.78283892
H   -1.23639495  -0.15792794   1.15693253
H   -1.61569316  -1.57502001   1.53093538
O   -0.42552169   1.24642135  -1.35353807
H   -0.51978893   1.55521625  -0.45243250
H   -0.11547418   2.01141941  -1.83818265
C   -1.32857312  -4.34214582  -5.21166102
H   -0.63285707  -5.13841663  -5.04785582
H   -1.11042088  -3.86399894  -6.14369335
H   -2.32278949  -4.73682464  -5.23738108
C   -1.21293174  -3.31624086  -4.06896855
N   -1.12683148  -2.55240798  -3.21818207
C    3.55473772   2.65827598   4.41174437
H    4.41701380   2.07456036   4.16545954
H    3.27639294   2.47211787   5.42799652
H    3.77999860   3.69697169   4.28818131
C    2.39010380   2.27137258   3.48140379
N    1.52298091   1.98330541   2.78872294
