22
Energy:   -383.34870654
Na   1.50174078   0.68632926   0.40856099
O    3.71833540   1.36824278   0.47300986
H    4.07563140   2.24416740   0.61904914
H    4.46652361   0.85030856   0.17604120
O    0.77370561  -0.68494832   2.14530376
H    1.10953488  -1.00277208   2.98341987
H    0.04103574  -1.26711336   1.94403135
O    1.33085798  -1.02393334  -1.07639791
H    1.77575700  -1.42408251  -1.82351059
H    0.58777707  -1.60156989  -0.90204593
C   -3.15758849  -3.88221296  -0.72973710
H   -3.59858080  -3.51635719  -1.63338278
H   -3.87202697  -3.82429630   0.06469503
H   -2.85747225  -4.90018079  -0.86601200
C   -1.92657272  -3.02701427  -0.37641662
N   -1.01002552  -2.39027996  -0.11335346
C   -1.83688572   4.35039941  -0.58429500
H   -1.82594654   5.11488832   0.16426176
H   -2.80200236   3.88904681  -0.60884572
H   -1.62411972   4.78333757  -1.53938362
C   -0.76980556   3.29100053  -0.25170825
N    0.02468413   2.50222992  -0.00408230
