22
Energy:   -370.73389660
Na  -0.27999472   0.74294669  -0.70353520
O   -1.20677515  -1.28999160  -1.24187831
H   -2.05418909  -1.73205583  -1.29384622
H   -0.57357480  -1.95135046  -1.52097260
O    1.81708820  -0.07809643  -1.16141193
H    2.73653767   0.18802316  -1.16639995
H    1.82912262  -0.98842172  -1.45703820
O   -1.11914201   2.80387053  -0.21206357
H   -1.42750705   3.59999009  -0.64488743
H   -1.21588240   2.98602872   0.72265111
C    2.12893638  -5.12879530  -2.87566735
H    2.13925286  -5.83878942  -2.07522866
H    3.12465290  -4.98962271  -3.24183494
H    1.50566477  -5.49151640  -3.66615138
C    1.57804513  -3.78518941  -2.36298613
N    1.16788155  -2.78481376  -1.98127165
C   -1.69446191   3.90413487   5.07675555
H   -1.40996868   3.14128671   5.77103681
H   -2.73068643   4.13674155   5.20726215
H   -1.10730894   4.78159217   5.25059218
C   -1.45759172   3.40440277   3.63948023
N   -1.28123109   3.03232951   2.56936342
