22
Energy:   -370.97905848
Na   0.34101109   0.13141217   0.59608236
O   -0.28397235  -1.07012839  -1.39719103
H   -0.60780128  -1.97088130  -1.39389441
H   -0.49592667  -0.74210083  -2.27109328
O    0.26151471  -1.10905667   2.68563801
H    0.77369311  -1.90972122   2.79895797
H   -0.31673138  -1.08414620   3.44803081
O    0.99883220   2.33688439   1.17900735
H    0.75627787   3.04826212   1.77174757
H    1.66150920   2.71922645   0.60376342
C   -4.51243562   1.69497244   0.48556834
H   -5.10226420   0.80222558   0.48791013
H   -4.65921480   2.21701137  -0.43683630
H   -4.80963557   2.32095104   1.30087323
C   -3.02452269   1.32757282   0.63634175
N   -1.91670387   1.05402711   0.74859942
C    3.53086470  -1.83870788  -2.73342753
H    2.74170633  -2.23664418  -3.33656595
H    4.23372925  -2.61364612  -2.50903669
H    4.02457819  -1.05248095  -3.26539867
C    2.94448389  -1.28222339  -1.42267105
N    2.50789672  -0.86789539  -0.44675327
