22
Energy:   -369.64770072
Na  -1.27436771   0.76013512  -0.12028897
O   -2.35426162  -1.32798119  -0.02138706
H   -3.26746770  -1.36633928  -0.30566713
H   -2.15539851  -2.21845039   0.26800872
O   -2.72286255   1.97290527   1.36861477
H   -3.37630655   2.63017120   1.12935700
H   -2.66931158   2.02403853   2.32294675
O   -1.82344588   1.15598290  -2.36132797
H   -1.52713414   1.92972355  -2.84065731
H   -2.14167578   0.56058713  -3.03990401
C    2.47114653  -3.72885260   0.01024549
H    3.36718226  -3.40645649  -0.47768986
H    2.03143338  -4.53087167  -0.54501737
H    2.70460652  -4.06538188   0.99875122
C    1.47837352  -2.55420139   0.08896194
N    0.73920888  -1.67962017   0.14756991
C    3.44171244   2.04168314   0.86710506
H    3.87032800   2.90011250   0.39351462
H    3.94968905   1.16037372   0.53521265
H    3.54182375   2.13269891   1.92851589
C    1.94963174   1.94361845   0.49875942
N    0.83870984   1.87060483   0.22450935
