22
Energy:   -383.91520655
Na   0.18178338   0.19234852  -0.10687710
O    1.23878402   1.94030824  -1.23998026
H    2.14340623   2.17144538  -1.45085018
H    0.71363355   2.62729578  -1.65046408
O   -2.09502399   2.47157495  -2.84015175
H   -2.60592284   3.27671622  -2.75671470
H   -2.08310183   2.29123977  -3.78013523
O   -1.92164902   0.46345925  -1.01348277
H   -2.04267478   1.17107061  -1.64662634
H   -2.77614052   0.03465243  -0.96656978
C    2.15347270  -4.43325376  -0.67723217
H    1.97808396  -4.77105697  -1.67724616
H    1.69689160  -5.11105348   0.01343441
H    3.20688938  -4.39304199  -0.49394168
C    1.54690320  -3.02941712  -0.49580414
N    1.09528464  -1.98419693  -0.36072271
C    0.07598486   0.31596343   4.94278399
H   -0.77611818   0.85276638   5.30425762
H    0.96910638   0.76896803   5.31963923
H    0.02427651  -0.70014218   5.27407650
C    0.09137032   0.35381306   3.40332607
N    0.10282549   0.38199382   2.25712967
