22
Energy:   -376.13457781
Na   1.17655293  -0.58972114  -0.30073848
O    2.29898440  -2.45058901  -1.33614106
H    1.87284501  -3.25998397  -1.61812841
H    3.23531213  -2.62967090  -1.42246548
O    1.52665663  -1.09102548   1.98145888
H    2.01571223  -0.60434553   2.64493389
H    0.88716539  -1.59984613   2.47984060
O    2.39517829   1.16884086  -1.19907725
H    2.24069053   2.11110433  -1.26619594
H    3.26805490   1.04168532  -1.57076225
C   -1.41511190   3.84127003   0.36019437
H   -0.63137489   4.41494460   0.80914200
H   -2.22090613   3.73255915   1.05573494
H   -1.76653470   4.34278832  -0.51723398
C   -0.87757889   2.45025597  -0.02417286
N   -0.47736113   1.41458278  -0.31035173
C   -3.83858659  -1.66245177   0.16798310
H   -4.27918553  -1.13216456  -0.65028839
H   -4.13046269  -1.20308869   1.08922845
H   -4.17197352  -2.67910540   0.15503587
C   -2.30453939  -1.62358706   0.03841184
N   -1.16237151  -1.59465052  -0.05805986
