22
Energy:   -383.75016927
Na   0.18454037  -0.57065092  -0.15734812
O    0.05841630  -0.21169135   2.09364279
H    0.07912084   0.49859769   2.73496381
H   -0.12427082  -0.99640155   2.61044755
O   -0.54033309  -2.57703058   3.35968080
H    0.13201000  -2.98965836   3.90182925
H   -1.35414411  -2.70645802   3.84670442
O   -0.66526686  -2.72645579  -0.04965409
H   -1.05339281  -3.33555855  -0.67781326
H   -0.81775035  -3.13226049   0.80375272
C   -2.96210915   2.09588200  -3.09855591
H   -3.92398787   1.63799758  -3.19871269
H   -2.50352857   2.17673738  -4.06191739
H   -3.07403303   3.07156248  -2.67379744
C   -2.07664780   1.23426992  -2.17921766
N   -1.41738157   0.59276057  -1.49472855
C    3.93462616   2.60481169  -1.39765470
H    3.88847602   2.73809848  -2.45831722
H    4.88527725   2.19240966  -1.13103482
H    3.80764607   3.55051351  -0.91348199
C    2.81557536   1.64542361  -0.95167285
N    1.98239117   0.93111557  -0.61961910
