22
Energy:   -382.27947923
Na  -0.52338524   0.43238864   1.41150899
O   -1.25329417   0.34170443   3.61381783
H   -1.61551424  -0.43495735   4.04022720
H   -1.35296127   1.03950545   4.26140726
O    1.68455694   0.53228762   0.79606027
H    2.50427563   1.01060308   0.92058916
H    1.88568633  -0.11726547   0.12236924
O   -1.26583954  -1.54612184   0.29957150
H   -2.14192494  -1.92459581   0.22565485
H   -0.69392808  -2.17788505  -0.13634635
C   -2.67676027   3.88783736  -1.53943998
H   -3.51654267   3.44778619  -2.03544469
H   -1.91628900   4.11329629  -2.25759791
H   -2.98339684   4.78855316  -1.04996663
C   -2.12128310   2.90033059  -0.49642728
N   -1.70770510   2.16508690   0.28014308
C    3.40476991  -3.23571494  -2.48464499
H    3.76953770  -4.04806252  -1.89140301
H    4.22897716  -2.64411125  -2.82462526
H    2.87080739  -3.62145993  -3.32784362
C    2.46203986  -2.36282275  -1.63557534
N    1.76013448  -1.71291485  -1.00340438
