22
Energy:   -370.73387673
Na  -1.04069074   0.14985917   0.14106187
O   -0.63553038  -1.81607219  -0.97809349
H   -0.28561176  -1.70272691  -1.86180252
H   -0.70330751  -2.76433895  -0.86661142
O   -2.06128738   0.69166772   2.10522703
H   -2.93120508   0.86880523   2.46313391
H   -1.47061822   0.78560302   2.85256762
O   -0.27332194   1.34916982  -1.66291694
H    0.00219034   0.81230619  -2.40595279
H   -0.12945211   2.25039703  -1.95157387
C    1.27691689  -1.43390336  -5.95145930
H    1.05804852  -0.63601100  -6.62996104
H    0.79785412  -2.32960940  -6.28777557
H    2.33495701  -1.58850114  -5.91209282
C    0.75862824  -1.07061887  -4.54753578
N    0.37273877  -0.80013705  -3.50225091
C    1.23375263   1.24063182   6.38944572
H    0.87419532   0.54167628   7.11544839
H    1.07521896   2.23735213   6.74485365
H    2.27953447   1.08147556   6.22848381
C    0.47427093   1.04113883   5.06468533
N   -0.09119772   0.89260723   4.07834100
