22
Energy:   -369.70141288
Na   1.63511539  -0.51839116   0.79604761
O    1.65099547  -1.56762089  -1.22788375
H    1.90507197  -2.43755600  -1.53592577
H    1.29923359  -1.13149187  -2.00395520
O    3.45717373   0.80188059   1.28964726
H    3.64980569   1.25098737   2.11270733
H    4.20421067   1.00298307   0.72597586
O    1.68736882  -2.05050476   2.57434914
H    0.96856071  -1.96209493   3.20023287
H    2.23326392  -2.75016859   2.93309824
C   -2.89002277   1.42133496   1.12647624
H   -3.42085311   1.25420845   2.04036249
H   -3.33985247   0.84827064   0.34279925
H   -2.92957645   2.46085427   0.87600831
C   -1.42167506   0.99052491   1.29955916
N   -0.32842344   0.66976724   1.42842726
C   -2.93444237   0.90249368  -3.42546320
H   -3.76265095   1.24687144  -2.84204681
H   -3.23546084   0.05674199  -4.00769257
H   -2.60690668   1.68560533  -4.07688902
C   -1.78060402   0.49700126  -2.48960371
N   -0.92151893   0.19509372  -1.79281379
