22
Energy:   -385.71437462
Na  -0.43834342   0.06776611   0.15657901
O   -0.42881345  -4.05059169   0.91796273
H   -0.18367092  -4.74849632   0.31045461
H   -0.83717837  -4.50585275   1.65431000
O   -1.98121036  -1.63651187  -0.35667834
H   -2.89647444  -1.66044415  -0.63587496
H   -1.73339559  -2.55675688  -0.26741021
O    0.84491597  -1.55554715   1.18814079
H    1.68172294  -1.62883572   1.64706859
H    0.50118796  -2.44875079   1.17170382
C    2.91813522   1.34139458  -3.43816130
H    3.15080245   2.38371857  -3.37238255
H    2.53799687   1.12168978  -4.41392957
H    3.80335613   0.76657168  -3.26248642
C    1.85632515   0.98475253  -2.38129526
N    1.06575929   0.71921632  -1.59441046
C   -1.42057364   4.65705583   2.01552856
H   -1.28604925   5.38236540   1.24046121
H   -0.67509778   4.79875405   2.76990674
H   -2.39231659   4.77333601   2.44807179
C   -1.28853251   3.24185368   1.42276553
N   -1.19022188   2.18817135   0.98142651
