22
Energy:   -382.72489674
Na  -0.27025872  -0.46744101   0.25680110
O   -1.71339899  -0.49869097  -1.52079291
H   -2.51340669   0.02678656  -1.51115517
H   -1.71374793  -0.92062007  -2.37998297
O   -1.18033829  -1.30231676   2.21368866
H   -1.80107418  -2.02346508   2.31791865
H   -1.01457889  -0.99751529   3.10579389
O   -3.97633637   1.00829730  -1.47113872
H   -4.09514610   1.86849840  -1.87384229
H   -4.86502451   0.70676270  -1.28261254
C    1.91328847   3.91887836   1.51377319
H    1.21532065   4.57183643   1.99480008
H    2.26456188   4.37451201   0.61160687
H    2.74080775   3.73746653   2.16737910
C    1.22125886   2.58443008   1.17919465
N    0.70601136   1.59087268   0.93008572
C    3.80082974  -3.18129245  -1.04020083
H    4.29313240  -2.71512450  -1.86798445
H    3.51035733  -4.17476069  -1.31139400
H    4.46784216  -3.22031152  -0.20445503
C    2.55034358  -2.36621448  -0.66134432
N    1.61929979  -1.75935189  -0.37926842
