22
Energy:   -370.84347735
Na  -1.39980708   1.27954161  -0.67865661
O    0.38898972   1.71614516   0.68507782
H    1.08892319   2.33339744   0.89797359
H    0.52494896   0.98285912   1.28510991
O    0.35010960  -0.61647588   2.15709018
H    1.08009636  -1.20026017   1.95082073
H    0.25480519  -0.67798009   3.10754594
O   -1.69827791  -0.76326408   0.31534920
H   -2.20277921  -1.57671973   0.31491015
H   -1.04741357  -0.88490517   1.00658788
C    4.54588210  -4.04505800   1.46182678
H    4.86337695  -4.16063425   0.44657345
H    4.23859541  -4.99378333   1.84963374
H    5.35663625  -3.66575320   2.04809009
C    3.36430797  -3.05917297   1.52109972
N    2.48457233  -2.32513675   1.56523112
C   -3.82796198   3.85958571  -4.26962026
H   -3.12695053   4.44436352  -4.82775827
H   -4.54835811   4.50597116  -3.81342473
H   -4.32618557   3.17740609  -4.92635712
C   -3.08299166   3.06945825  -3.17768719
N   -2.52832740   2.48117244  -2.36469339
