22
Energy:   -371.24122431
Na   0.57889086  -0.58688472   0.58703950
O   -1.37505886  -1.90643853   1.24159289
H   -2.30107484  -2.14467287   1.28598493
H   -1.02278489  -2.15208067   2.09704297
O    0.87825006  -2.23832010  -0.93537076
H    0.17573453  -2.80596335  -1.25236432
H    1.62306650  -2.43890780  -1.50215546
O    1.54176599  -1.42692315   2.55844318
H    1.71207588  -0.99328689   3.39461660
H    1.87743532  -2.31556886   2.67620038
C    2.53859936   3.38159992  -1.70117205
H    2.06027575   4.20149059  -1.20732390
H    2.11445622   3.25548946  -2.67538858
H    3.58591103   3.58139963  -1.79126890
C    2.33013059   2.09551051  -0.88012709
N    2.17491612   1.13795849  -0.26882180
C   -3.77262045   1.28691999  -0.78886944
H   -4.16913164   0.91816474  -1.71174464
H   -3.94236536   2.34135987  -0.72373641
H   -4.25766241   0.79638406   0.02905958
C   -2.25953442   1.00605127  -0.73156818
N   -1.13297310   0.79693173  -0.68890478
