22
Energy:   -382.25934752
Na   0.93404891   1.00349854  -0.93224154
O   -0.94108995   0.13503080  -1.93801118
H   -1.58684774  -0.14867757  -1.29091128
H   -1.39984868   0.07728881  -2.77612701
O   -0.25021772   2.43883997   0.47371075
H   -1.15522603   2.27709772   0.74022765
H   -0.01302981   3.25560353   0.91288160
O    2.48755449   2.10418421  -2.26474071
H    3.39846428   1.84487762  -2.40343202
H    2.38394936   2.90283050  -2.78210125
C    3.72817730  -2.13747846   1.89577495
H    4.73548261  -1.78875177   1.98865061
H    3.72760695  -3.11328225   1.45679236
H    3.27535890  -2.18179103   2.86422267
C    2.93095010  -1.17117748   1.00006785
N    2.33737822  -0.45172247   0.33317320
C   -4.68847178  -1.91378854   1.29224702
H   -5.01604156  -2.66358965   0.60275699
H   -5.50173433  -1.25552256   1.51627609
H   -4.34944541  -2.38125894   2.19304202
C   -3.53446852  -1.10923699   0.66569032
N   -2.67526065  -0.51021180   0.19919038
