22
Energy:   -384.77132237
Na   0.16095809  -0.12467812  -0.03581808
O   -0.87464314  -1.36978933  -1.77770650
H   -1.02681914  -2.29568537  -1.96689120
H   -1.19113412  -0.91070288  -2.55571996
O    0.78148029   1.46002587  -1.53987568
H    1.43431696   2.11858561  -1.77722603
H    0.26710053   1.33376312  -2.33718555
O   -0.79269869   0.96013230  -3.73826428
H   -0.62433445   0.50423763  -4.56291292
H   -1.34457431   1.70293633  -3.98302399
C   -3.14800397   1.57952367   3.36667096
H   -3.86557127   2.18760052   2.85653382
H   -2.67875832   2.15314114   4.13846795
H   -3.64052959   0.73417992   3.79992789
C   -2.08173583   1.09542940   2.36650848
N   -1.28785073   0.73499921   1.62184205
C    3.85659520  -2.39428933   2.54733687
H    4.65251333  -2.70500364   1.90323197
H    3.44554702  -3.24832185   3.04389195
H    4.23425747  -1.70632523   3.27464402
C    2.75911685  -1.70807740   1.71291824
N    1.94199433  -1.19716143   1.09165564
