22
Energy:   -370.33540849
Na   0.31300906   0.23743397  -0.15232961
O   -1.94858857  -1.37707964   3.22840745
H   -1.75981445  -0.98758020   4.08215587
H   -2.34192709  -2.22533304   3.43330458
O   -1.96291736   0.62671010   0.56527657
H   -2.69835664   1.07627610   0.14904187
H   -2.33965965   0.22362797   1.34746702
O    0.62849488  -1.37050385   1.70293940
H    1.21194439  -2.04582802   2.04899688
H   -0.12578167  -1.38006157   2.29218246
C    4.07048281   3.67475077   0.01872520
H    4.89291709   3.28798507  -0.54599981
H    4.38695829   3.86930529   1.02216474
H    3.72621425   4.58345074  -0.42920630
C    2.92679150   2.64354071   0.03199075
N    2.07526133   1.87575794   0.04186756
C   -1.46465054  -1.91970004  -4.55842245
H   -1.74806596  -1.09089260  -5.17295813
H   -2.32461884  -2.52266685  -4.35400952
H   -0.73017265  -2.50724695  -5.06854983
C   -0.87613077  -1.39911246  -3.23394781
N   -0.43795106  -1.01151135  -2.24781624
