22
Energy:   -369.71881050
Na   0.20603019   0.19001580   0.35177805
O   -0.17132184   1.08897494   2.58598682
H    0.03549440   2.01852989   2.68287077
H   -0.59618543   0.85050354   3.40991288
O   -0.28819852  -0.57676609  -2.14882622
H   -0.82374454  -1.13516390  -2.71239893
H    0.11415193   0.05270423  -2.74725172
O    2.10738555   1.61986591   0.39131981
H    2.38099143   2.39766377  -0.09489224
H    2.89795832   1.33161534   0.84754141
C    2.71729271  -4.21056651  -0.19047227
H    3.77789939  -4.13110187  -0.07342949
H    2.48871038  -4.47133147  -1.20272266
H    2.34168102  -4.96720058   0.46627719
C    2.06039847  -2.86063974   0.15272983
N    1.57131086  -1.85555790   0.40825939
C   -4.24540174   2.25169662  -0.55490596
H   -4.96282956   1.50917067  -0.27409870
H   -4.38529230   2.51190476  -1.58331320
H   -4.37565184   3.12180898   0.05405915
C   -2.82403886   1.69356138  -0.35537502
N   -1.76576958   1.27800433  -0.20681516
