13
Energy:   -822.41719793
O   -0.36314252  -0.18999600   1.76821792
H    0.02134599  -0.68234292   2.49347301
H   -1.14555298   0.21570195   2.14168130
O    2.31702610  -0.83507083  -0.48864583
H    2.95019369  -0.37826241  -1.04241176
H    2.65616854  -1.72772256  -0.42241039
O    0.07541336   1.62902217  -0.43058008
H    0.73823726   2.26963916  -0.17269216
H   -0.55850209   2.13210353  -0.94174755
O   -1.96338718  -0.56555635  -0.81219897
H   -2.46207777  -0.34152227  -1.59791411
H   -2.49433716  -1.22937345  -0.37211852
Ca   0.21728219  -0.35824335  -0.16101708
