90
Energy:   -539.07973752
O   -0.19874646   3.42248505   0.53510395
H   -0.92029085   3.07715832  -0.01129006
C    0.85073276   3.81429480  -0.33530530
H    1.65508995   4.20075920   0.29646996
H    0.54997620   4.61272215  -1.03160738
H    1.25203594   2.97376533  -0.92287938
O   -1.93925936  -0.97332237   3.92485146
H   -1.04538958  -0.63967050   4.09247161
C   -2.44157888  -1.49097091   5.14642784
H   -3.44890161  -1.86247603   4.93961858
H   -2.51522912  -0.72523559   5.93446489
H   -1.84087278  -2.32962678   5.53189620
O    2.69990086  -1.78039044   0.29768408
H    1.76333175  -1.74012294   0.54189734
C    2.80525990  -2.57146719  -0.87518882
H    3.86643279  -2.60638319  -1.13629831
H    2.25767746  -2.14173266  -1.72856976
H    2.45678942  -3.60509664  -0.72367702
O   -3.51855106   1.23251620   3.05034567
H   -3.03929715   0.44641647   3.35165313
C   -2.66119384   2.35016069   3.21869997
H   -3.21661596   3.22683264   2.87455210
H   -1.73983332   2.27325991   2.62040373
H   -2.37974310   2.51558870   4.27045869
O    3.30662471   0.88259110  -0.34198791
H    3.21599181  -0.05466278  -0.11447061
C    3.70598745   1.57355956   0.83087431
H    3.80337991   2.62753632   0.55677052
H    4.67855751   1.22984836   1.21655216
H    2.96456154   1.49880243   1.64172345
O    1.36993137  -2.98503817  -4.18117891
H    2.13923169  -2.39743366  -4.21752767
C    1.10348338  -3.42752905  -5.50244386
H    0.23428259  -4.08818560  -5.44321451
H    1.93853571  -4.00003611  -5.93568814
H    0.85751132  -2.60025667  -6.18647272
O   -0.01165027  -1.43547798   0.87847473
H   -0.88055011  -1.84151195   1.01475660
C   -0.20349164  -0.03395147   0.77145094
H    0.78495182   0.40764254   0.61828614
H   -0.63677241   0.40677584   1.68293575
H   -0.83804597   0.24425704  -0.08453864
O   -2.63285070  -2.32001963   1.53615914
H   -2.49793566  -1.95209630   2.42207880
C   -3.59554346  -1.51303410   0.87696967
H   -3.73550758  -1.94145759  -0.11919726
H   -3.26490465  -0.46951909   0.75642208
H   -4.57099701  -1.51162304   1.38811126
O   -1.01552711  -2.52350802  -2.77017741
H   -0.21491398  -2.72673862  -3.27627939
C   -1.10039912  -3.45731003  -1.70559095
H   -2.00759877  -3.21401611  -1.14587489
H   -0.24537733  -3.39317131  -1.01450391
H   -1.18520128  -4.49725325  -2.05787495
O    2.09780376   1.06295566  -2.88182388
H    2.47714919   1.14162845  -1.99394387
C    0.76318646   0.60322193  -2.74048983
H    0.35096161   0.52022106  -3.74978005
H    0.13105519   1.30152569  -2.16991184
H    0.70304455  -0.38807628  -2.26458212
O    0.55645583   0.23588945   4.32351064
H    0.75597676   1.08633474   3.90475357
C    1.61792207  -0.65413452   4.01743790
H    1.37709888  -1.60691034   4.49671613
H    2.58776286  -0.31018244   4.40971732
H    1.72426687  -0.83322828   2.93605289
O    0.95899467   2.66481857   2.96858842
H    0.59258106   2.95480054   2.12001621
C    1.05906516   3.80521421   3.80645325
H    1.47342622   3.46068163   4.75781407
H    0.08206020   4.27149156   4.00850293
H    1.73357473   4.57444819   3.39890785
O   -2.26695382   2.27996591  -0.99742097
H   -2.39166918   1.43397447  -1.45257791
C   -3.48956016   2.60869490  -0.35733912
H   -3.33141556   3.56405952   0.15035561
H   -3.78695037   1.86537772   0.39884601
H   -4.32152570   2.73338057  -1.06801778
O    3.41278379  -1.06507045  -4.15590228
H    2.97142103  -0.26084155  -3.84471413
C    4.78532381  -0.96338097  -3.81191549
H    5.26739562  -1.87722301  -4.16966498
H    4.94732551  -0.89506240  -2.72477918
H    5.28153639  -0.10531228  -4.29177853
O   -2.54514244  -0.22732198  -2.23786931
H   -2.03212488  -1.04000505  -2.35945252
C   -3.38535276  -0.07516068  -3.37075383
H   -3.95596993   0.84481708  -3.21738444
H   -4.10007618  -0.90520454  -3.48466145
H   -2.81891899   0.02696600  -4.30963628
