11
Energy:   -201.91161567
O   -1.89511356   0.43566985  -1.03820260
H   -1.14449850   1.01119527  -0.89130342
H   -1.65737679  -0.38410900  -0.60498705
O   -0.43926584  -1.74984820   0.20680958
H    0.21757967  -1.72092591  -0.48885508
H   -0.14686841  -1.09458497   0.84034386
S    1.43037747   0.95209294   0.54825590
O    2.38046976   1.93928825   1.13380697
O    0.69814499   0.25714700   1.64415085
O    0.45612619   1.66034642  -0.32884813
O    2.18676892  -0.04840990  -0.25608610
