11
Energy:   -204.09255748
O   -0.03415333  -0.15628676  -2.09141949
H   -0.75901878  -0.29663802  -1.48223688
H    0.72995735  -0.02718141  -1.52954892
O   -1.77178684  -0.31319246   0.07335699
H   -1.71134043   0.61134749   0.31378153
H   -1.05686516  -0.73284495   0.55190753
S    1.26097340   0.26421665   1.18805507
O    0.37452229   1.45138012   1.34600226
O    2.34578011   0.31514931   2.20820225
O    0.46256042  -0.98002782   1.37377642
O    1.86103079   0.27036498  -0.17576066
