13
Energy:   -311.88101844
O   -1.51192845   0.86408742  -3.10342825
H   -1.36987396   1.28008321  -3.95372225
H   -2.37300920   0.45279731  -3.17834303
O    1.34370415  -0.80367212   2.25793595
H    1.04869935  -1.38967801   2.95493030
H    2.26398678  -0.63476287   2.45987999
O   -0.45478266   1.38431228   0.90706099
H   -0.03229173   0.91726780   1.62789573
H   -0.96781025   2.07059686   1.33373183
O    0.63385853  -1.31742881  -0.29289685
H    0.64444553  -2.27331747  -0.34185226
H    0.96051493  -1.11843296   0.58455861
Na  -0.21594511   0.56246562  -1.27401224
