13
Energy:   -312.50992357
O    1.48011899  -1.00683584   1.37959663
H    2.31426401  -0.54157566   1.44258005
H    1.62838583  -1.82951836   1.84590367
O    1.28917835   1.46948662  -1.23585403
H    1.37815322   2.23562464  -0.66897851
H    1.94208379   1.60232464  -1.92309518
O   -1.00912597   0.30712327   1.59907632
H   -0.30063751  -0.15229850   2.04986185
H   -1.55771631   0.65227469   2.30345618
O   -1.98684637  -0.75601644  -1.89368472
H   -2.89597160  -0.72747853  -1.59550901
H   -2.03854805  -1.08810514  -2.78994131
Na  -0.13486505  -0.19460229  -0.48620701
