13
Energy:   -311.34866054
O   -0.66700563   1.26671781  -3.22561537
H   -0.19153156   1.87289861  -3.79368323
H   -1.40968773   0.97487964  -3.75427936
O    0.24552044   1.68353444   0.97368873
H    0.52156675   2.57619811   1.18149118
H    0.10092237   1.27251060   1.82596958
O    0.00944055  -1.49741876  -0.32877226
H    0.22108019  -1.54577638   0.60348417
H   -0.04580560  -2.41070069  -0.61001207
O    0.41081432  -1.42323919   2.37471220
H   -0.30728461  -1.71436391   2.93668387
H    1.20296867  -1.63411286   2.86893445
Na  -0.10188920   0.63474624  -1.06046727
