13
Energy:   -312.42103094
O    0.40171697   0.86662735   2.04181782
H    0.28981088   1.64625795   2.58577094
H    0.84457338   0.23790463   2.61174570
O   -2.53579257  -0.09839070  -0.06885589
H   -3.30314741   0.08735684  -0.61005480
H   -2.83765797  -0.75580252   0.55797649
O    1.38178861   1.50682921  -1.18871640
H    1.56915818   2.44274447  -1.26073803
H    2.07750090   1.08340201  -1.69163354
O    0.66099815  -2.09830800  -0.80964423
H    1.55376727  -2.43314026  -0.72548663
H    0.16356876  -2.83023842  -1.17443694
Na  -0.24414222   0.28001414  -0.28637431
