13
Energy:   -312.41063480
O    0.79099799   1.10335444   0.65906587
H    1.32478614   1.75430104   1.11466501
H    0.86930584   1.33411792  -0.26659494
O   -1.25342022  -1.79441218   2.90403870
H   -0.82552946  -2.24124900   3.63443462
H   -2.18399437  -1.80540949   3.12796427
O    0.88710017   1.65432778  -2.03847729
H    0.20849433   2.10307410  -2.54281120
H    1.71073874   1.97411249  -2.40670154
O   -0.40276332  -1.05929362  -1.33459079
H   -0.04161908  -0.45162947  -1.97999840
H   -0.82890052  -1.73885052  -1.85693296
Na  -0.30136306  -0.87985926   0.99509508
