13
Energy:   -313.77387054
O    0.35778508   0.41635281   1.96368841
H    0.00307535   0.55471265   2.84190787
H    1.26511118   0.71578461   2.02141009
O   -2.37687182   0.81208791  -0.30885751
H   -2.55745502   1.51493196  -0.93306244
H   -3.16805307   0.75803784   0.22718603
O    2.02093090   0.97988175  -0.92214477
H    2.23195005   1.89789095  -0.75196287
H    2.58300652   0.73682896  -1.65782689
O   -0.09420993  -2.34804495  -0.69455716
H    0.46091616  -2.95406304  -0.20383427
H   -0.41204184  -2.86151029  -1.43723345
Na  -0.29746377  -0.16535993  -0.18672414
