13
Energy:   -311.12714139
O    1.18552036  -2.35473841   2.28561513
H    0.83574505  -3.22577901   2.47317138
H    2.03514799  -2.33733381   2.72613962
O   -0.87453701   1.46580843  -2.31491292
H   -0.35158869   2.14800941  -2.73605271
H   -1.72446582   1.51018671  -2.75295794
O    0.13303375  -0.81646542  -1.23236650
H    0.38478060  -1.40854181  -1.94109841
H   -0.22571553  -0.04856493  -1.67718066
O   -0.42093441   1.54654530   1.36922808
H   -0.52971483   2.06985436   2.16329753
H   -0.69650598   2.12693871   0.65969609
Na   0.26692147  -0.66459951   1.03628763
