13
Energy:   -312.88373186
O   -2.00914910   1.26044075   0.87269924
H   -1.96728024   2.06930579   1.38281315
H   -2.90997101   0.95520270   0.98031642
O    1.62628369   1.20015045  -1.11947322
H    2.49701541   1.15547776  -1.51452064
H    1.22062929   1.96954944  -1.51909999
O    1.33216252  -0.83108236   1.73039333
H    1.35449972  -0.59380794   2.65744983
H    2.09165646  -1.40113077   1.61020344
O   -0.96134737  -1.69101973  -1.44479078
H   -0.34494815  -1.96637723  -2.12336436
H   -1.80216203  -2.05449771  -1.72254304
Na  -0.13627401  -0.04356658   0.21287148
