24
Energy:    -74.16050316
C    3.12981943   0.06275240  -0.29324494
H    2.57906992  -0.83903602  -0.46162788
H    4.09926821  -0.17776567   0.09044660
H    3.23329695   0.59499314  -1.21569348
C    2.37827383   0.94079260   0.72450975
N    1.81871397   1.59453345   1.48227438
C   -0.91067464  -0.40604581   2.60825046
H   -0.41647080   0.53750320   2.71012298
H   -1.03181899  -0.85129130   3.57364137
H   -1.87116553  -0.25905987   2.16019749
C   -0.06521104  -1.33478192   1.71704872
N    0.56427503  -2.02626816   1.05350851
C   -1.12856964   2.50154777  -0.37112805
H   -1.25053111   3.49150626  -0.75843643
H   -0.64018931   2.54823617   0.57976834
H   -2.08831285   2.04245350  -0.25700307
C   -0.27462458   1.67030226  -1.34652989
N    0.36117634   1.05140220  -2.07276089
C   -1.08836890  -2.14759659  -1.94719112
H   -0.09590055  -1.75462322  -1.87317297
H   -1.40738904  -2.12073869  -2.96817295
H   -1.09875103  -3.15852813  -1.59675036
C   -2.04269008  -1.29685258  -1.08864252
N   -2.75322558  -0.66343499  -0.44941406
