24
Energy:    -71.34739954
C   -1.59897713  -1.75540827  -1.97482113
H   -0.65783211  -2.21037643  -1.74645695
H   -1.97343572  -2.15302540  -2.89491921
H   -2.29462740  -1.96077277  -1.18818575
C   -1.41336530  -0.23274872  -2.11140855
N   -1.27516886   0.90094053  -2.21310410
C    0.53398172  -1.81292124   2.22702269
H    0.97541730  -2.44117125   1.48181350
H    0.30531496  -2.39554714   3.09486925
H    1.22029519  -1.03533418   2.49014108
C   -0.76002698  -1.18930805   1.67182175
N   -1.72347527  -0.72499969   1.25844942
C    2.27104527   0.80009052  -1.39487168
H    2.96283120   1.18541050  -0.67524614
H    1.35251706   1.34555562  -1.33426772
H    2.68321816   0.90361970  -2.37685656
C    2.00416334  -0.68855147  -1.10449424
N    1.80545761  -1.79691310  -0.88829503
C   -1.21156129   2.74878286   1.18639512
H   -1.10529066   3.76551806   0.87039471
H   -1.79766423   2.71269171   2.08086696
H   -1.69848736   2.18549278   0.41795099
C    0.17985056   2.14810406   1.45981429
N    1.21581993   1.70087139   1.66338729
