
                                 *****************
                                 * O   R   C   A *
                                 *****************

           --- An Ab Initio, DFT and Semiempirical electronic structure package ---

                  #######################################################
                  #                        -***-                        #
                  #          Department of theory and spectroscopy      #
                  #               Directorship: Frank Neese             #
                  #        Max Planck Institute fuer Kohlenforschung    #
                  #                Kaiser Wilhelm Platz 1               #
                  #                 D-45470 Muelheim/Ruhr               #
                  #                      Germany                        #
                  #                                                     #
                  #                  All rights reserved                #
                  #                        -***-                        #
                  #######################################################


                         Program Version 4.2.0 -  RELEASE  -


 With contributions from (in alphabetic order):
   Daniel Aravena         : Magnetic Suceptibility
   Michael Atanasov       : Ab Initio Ligand Field Theory (pilot matlab implementation)
   Alexander A. Auer      : GIAO ZORA, VPT2
   Ute Becker             : Parallelization
   Giovanni Bistoni       : ED, misc. LED, open-shell LED, HFLED
   Martin Brehm           : Molecular dynamics
   Dmytro Bykov           : SCF Hessian
   Vijay G. Chilkuri      : MRCI spin determinant printing, contributions to CSF-ICE
   Dipayan Datta          : RHF DLPNO-CCSD density
   Achintya Kumar Dutta   : EOM-CC, STEOM-CC
   Dmitry Ganyushin       : Spin-Orbit,Spin-Spin,Magnetic field MRCI
   Miquel Garcia          : C-PCM Hessian, Gaussian charge scheme
   Yang Guo               : DLPNO-NEVPT2, CIM, IAO-localization
   Andreas Hansen         : Spin unrestricted coupled pair/coupled cluster methods
   Benjamin Helmich-Paris : CASSCF linear response (MC-RPA)
   Lee Huntington         : MR-EOM, pCC
   Robert Izsak           : Overlap fitted RIJCOSX, COSX-SCS-MP3, EOM
   Christian Kollmar      : KDIIS, OOCD, Brueckner-CCSD(T), CCSD density
   Simone Kossmann        : Meta GGA functionals, TD-DFT gradient, OOMP2, MP2 Hessian
   Martin Krupicka        : AUTO-CI
   Lucas Lang             : DCDCAS
   Dagmar Lenk            : GEPOL surface, SMD
   Dimitrios Liakos       : Extrapolation schemes; Compound Job, initial MDCI parallelization
   Dimitrios Manganas     : Further ROCIS development; embedding schemes
   Dimitrios Pantazis     : SARC Basis sets
   Taras Petrenko         : DFT Hessian,TD-DFT gradient, ASA, ECA, R-Raman, ABS, FL, XAS/XES, NRVS
   Peter Pinski           : DLPNO-MP2, DLPNO-MP2 Gradient
   Christoph Reimann      : Effective Core Potentials
   Marius Retegan         : Local ZFS, SOC
   Christoph Riplinger    : Optimizer, TS searches, QM/MM, DLPNO-CCSD(T), (RO)-DLPNO pert. Triples
   Tobias Risthaus        : Range-separated hybrids, TD-DFT gradient, RPA, STAB
   Michael Roemelt        : Original ROCIS implementation
   Masaaki Saitow         : Open-shell DLPNO-CCSD energy and density
   Barbara Sandhoefer     : DKH picture change effects
   Avijit Sen             : IP-ROCIS
   Kantharuban Sivalingam : CASSCF convergence, NEVPT2, FIC-MRCI
   Bernardo de Souza      : ESD, SOC TD-DFT
   Georgi Stoychev        : AutoAux, RI-MP2 NMR
   Willem Van den Heuvel  : Paramagnetic NMR
   Boris Wezisla          : Elementary symmetry handling
   Frank Wennmohs         : Technical directorship


 We gratefully acknowledge several colleagues who have allowed us to
 interface, adapt or use parts of their codes:
   Stefan Grimme, W. Hujo, H. Kruse,             : VdW corrections, initial TS optimization,
                  C. Bannwarth                     DFT functionals, gCP, sTDA/sTD-DF
   Ed Valeev, F. Pavosevic, A. Kumar             : LibInt (2-el integral package), F12 methods
   Garnet Chan, S. Sharma, J. Yang, R. Olivares  : DMRG
   Ulf Ekstrom                                   : XCFun DFT Library
   Mihaly Kallay                                 : mrcc  (arbitrary order and MRCC methods)
   Andreas Klamt, Michael Diedenhofen            : otool_cosmo (COSMO solvation model)
   Jiri Pittner, Ondrej Demel                    : Mk-CCSD
   Frank Weinhold                                : gennbo (NPA and NBO analysis)
   Christopher J. Cramer and Donald G. Truhlar   : smd solvation model
   Lars Goerigk                                  : TD-DFT with DH, B97 family of functionals
   V. Asgeirsson, H. Jonsson                     : NEB implementation
   FAccTs GmbH                                   : IRC, NEB, NEB-TS, Multilevel, MM, QM/MM, CI optimization
   S Lehtola, MJT Oliveira, MAL Marques          : LibXC Library


 Your calculation uses the libint2 library for the computation of 2-el integrals
 For citations please refer to: http://libint.valeyev.net

 Your ORCA version has been built with support for libXC version: 4.2.3
 For citations please refer to: https://tddft.org/programs/libxc/

 This ORCA versions uses:
   CBLAS   interface :  Fast vector & matrix operations
   LAPACKE interface :  Fast linear algebra routines
   SCALAPACK package :  Parallel linear algebra routines


----- Orbital basis set information -----
Your calculation utilizes the basis: def2-TZVP
   F. Weigend and R. Ahlrichs, Phys. Chem. Chem. Phys. 7, 3297 (2005).

================================================================================
                                        WARNINGS
                       Please study these warnings very carefully!
================================================================================


WARNING: The frozen-core approximation for MP2-gradient calculations is turned on by default.

INFO   : the flag for use of LIBINT has been found!

================================================================================
                                       INPUT FILE
================================================================================
NAME = 12h2o.su.etal.mol0,2,3,5,6,8,10,11-orca.engrad-mp2.def2tzvp.frozencore.inp
|  1> # 12h2o.su.etal.mol0,2,3,5,6,8,10,11
|  2> ! MP2 def2-TZVP EnGrad TightSCF
|  3> 
|  4> %pal
|  5>     nprocs 6
|  6> end
|  7> 
|  8> %maxcore 8000
|  9> 
| 10> %scf
| 11>     ConvForced true
| 12> end
| 13> 
| 14> *xyz 0 1
| 15> O   1.794470000   0.923410000   2.768350000
| 16> H   2.338250000   1.359750000   3.430940000
| 17> H   0.879480000   1.303000000   2.865760000
| 18> O   0.923410000  -1.794470000  -2.768350000
| 19> H   1.359750000  -2.338250000  -3.430940000
| 20> H   1.303000000  -0.879480000  -2.865760000
| 21> O  -1.752130000  -0.741530000  -2.896280000
| 22> H  -2.036450000  -0.920500000  -1.984040000
| 23> H  -0.921210000  -1.242140000  -2.984230000
| 24> O   0.885520000  -1.737840000   0.052730000
| 25> H   1.284090000  -0.839590000   0.017130000
| 26> H   1.032320000  -2.090180000  -0.841890000
| 27> O   1.737840000   0.885520000  -0.052730000
| 28> H   2.090180000   1.032320000   0.841890000
| 29> H   0.839590000   1.284090000  -0.017130000
| 30> O   1.752130000   0.741530000  -2.896280000
| 31> H   2.036450000   0.920500000  -1.984040000
| 32> H   0.921210000   1.242140000  -2.984230000
| 33> O  -0.923410000   1.794470000  -2.768350000
| 34> H  -1.359750000   2.338250000  -3.430940000
| 35> H  -1.303000000   0.879480000  -2.865760000
| 36> O  -0.741530000   1.752130000   2.896280000
| 37> H  -0.920500000   2.036450000   1.984040000
| 38> H  -1.242140000   0.921210000   2.984230000
| 39> *
| 40> 
| 41>                          ****END OF INPUT****
================================================================================

                     *******************************
                     * Energy+Gradient Calculation *
                     *******************************

---------------------------------
CARTESIAN COORDINATES (ANGSTROEM)
---------------------------------
  O      1.794470    0.923410    2.768350
  H      2.338250    1.359750    3.430940
  H      0.879480    1.303000    2.865760
  O      0.923410   -1.794470   -2.768350
  H      1.359750   -2.338250   -3.430940
  H      1.303000   -0.879480   -2.865760
  O     -1.752130   -0.741530   -2.896280
  H     -2.036450   -0.920500   -1.984040
  H     -0.921210   -1.242140   -2.984230
  O      0.885520   -1.737840    0.052730
  H      1.284090   -0.839590    0.017130
  H      1.032320   -2.090180   -0.841890
  O      1.737840    0.885520   -0.052730
  H      2.090180    1.032320    0.841890
  H      0.839590    1.284090   -0.017130
  O      1.752130    0.741530   -2.896280
  H      2.036450    0.920500   -1.984040
  H      0.921210    1.242140   -2.984230
  O     -0.923410    1.794470   -2.768350
  H     -1.359750    2.338250   -3.430940
  H     -1.303000    0.879480   -2.865760
  O     -0.741530    1.752130    2.896280
  H     -0.920500    2.036450    1.984040
  H     -1.242140    0.921210    2.984230

----------------------------
CARTESIAN COORDINATES (A.U.)
----------------------------
  NO LB      ZA    FRAG     MASS         X           Y           Z
   0 O     8.0000    0    15.999    3.391057    1.744992    5.231423
   1 H     1.0000    0     1.008    4.418652    2.569555    6.483537
   2 H     1.0000    0     1.008    1.661976    2.462313    5.415502
   3 O     8.0000    0    15.999    1.744992   -3.391057   -5.231423
   4 H     1.0000    0     1.008    2.569555   -4.418652   -6.483537
   5 H     1.0000    0     1.008    2.462313   -1.661976   -5.415502
   6 O     8.0000    0    15.999   -3.311046   -1.401289   -5.473176
   7 H     1.0000    0     1.008   -3.848333   -1.739493   -3.749292
   8 H     1.0000    0     1.008   -1.740835   -2.347304   -5.639377
   9 O     8.0000    0    15.999    1.673390   -3.284042    0.099645
  10 H     1.0000    0     1.008    2.426578   -1.586595    0.032371
  11 H     1.0000    0     1.008    1.950802   -3.949868   -1.590942
  12 O     8.0000    0    15.999    3.284042    1.673390   -0.099645
  13 H     1.0000    0     1.008    3.949868    1.950802    1.590942
  14 H     1.0000    0     1.008    1.586595    2.426578   -0.032371
  15 O     8.0000    0    15.999    3.311046    1.401289   -5.473176
  16 H     1.0000    0     1.008    3.848333    1.739493   -3.749292
  17 H     1.0000    0     1.008    1.740835    2.347304   -5.639377
  18 O     8.0000    0    15.999   -1.744992    3.391057   -5.231423
  19 H     1.0000    0     1.008   -2.569555    4.418652   -6.483537
  20 H     1.0000    0     1.008   -2.462313    1.661976   -5.415502
  21 O     8.0000    0    15.999   -1.401289    3.311046    5.473176
  22 H     1.0000    0     1.008   -1.739493    3.848333    3.749292
  23 H     1.0000    0     1.008   -2.347304    1.740835    5.639377

--------------------------------
INTERNAL COORDINATES (ANGSTROEM)
--------------------------------
 O      0   0   0     0.000000000000     0.00000000     0.00000000
 H      1   0   0     0.961828878803     0.00000000     0.00000000
 H      1   2   0     0.995381322057   106.21731035     0.00000000
 O      1   2   3     6.229017908788   152.78811022   148.20682389
 H      4   1   2     0.961828878803   142.70840549    32.77530239
 H      4   1   2     0.995381322057    68.44287781   304.10042923
 O      4   1   2     2.878117964938    90.56600904   213.46992033
 H      7   4   1     0.972136791249    99.37069922   316.39996436
 H      7   4   1     0.974050112161    12.30570018   203.88443535
 O      4   1   2     2.821902722526    26.43043848   121.43990250
 H     10   4   1     0.983350632989    88.66470709   356.04997417
 H     10   4   1     0.972645187106    21.75017499   221.89319655
 O     11  10   4     1.785153773264   170.81379649    89.95043540
 H     13  11  10     0.972645187106   101.65007623   109.44492584
 H     13  11  10     0.983350632989    99.09581498     3.33484705
 O      6   4   1     1.682356278379   171.61043709   305.15113011
 H     16   6   4     0.972136791249   103.79460456    70.64587838
 H     16   6   4     0.974050112161   105.61118924   321.69395179
 O     18  16   6     1.937600461318   161.54375213    39.05245435
 H     19  18  16     0.961828878803   121.08403650   202.75419110
 H     19  18  16     0.995381322057    95.17003195   315.21089530
 O      3   1   2     1.682356278379   171.61043709   195.73896161
 H     22   3   1     0.972136791249   103.79460456   289.35412162
 H     22   3   1     0.974050112161   105.61118924    38.30604821

---------------------------
INTERNAL COORDINATES (A.U.)
---------------------------
 O      0   0   0     0.000000000000     0.00000000     0.00000000
 H      1   0   0     1.817593168635     0.00000000     0.00000000
 H      1   2   0     1.880998097508   106.21731035     0.00000000
 O      1   2   3    11.771137930900   152.78811022   148.20682389
 H      4   1   2     1.817593168635   142.70840549    32.77530239
 H      4   1   2     1.880998097508    68.44287781   304.10042923
 O      4   1   2     5.438854734852    90.56600904   213.46992033
 H      7   4   1     1.837072300170    99.37069922   316.39996436
 H      7   4   1     1.840687952699    12.30570018   203.88443535
 O      4   1   2     5.332623322141    26.43043848   121.43990250
 H     10   4   1     1.858263389967    88.66470709   356.04997417
 H     10   4   1     1.838033029106    21.75017499   221.89319655
 O     11  10   4     3.373451738406   170.81379649    89.95043540
 H     13  11  10     1.838033029106   101.65007623   109.44492584
 H     13  11  10     1.858263389967    99.09581498     3.33484705
 O      6   4   1     3.179192625819   171.61043709   305.15113011
 H     16   6   4     1.837072300170   103.79460456    70.64587838
 H     16   6   4     1.840687952699   105.61118924   321.69395179
 O     18  16   6     3.661534228851   161.54375213    39.05245435
 H     19  18  16     1.817593168635   121.08403650   202.75419110
 H     19  18  16     1.880998097508    95.17003195   315.21089530
 O      3   1   2     3.179192625819   171.61043709   195.73896161
 H     22   3   1     1.837072300170   103.79460456   289.35412162
 H     22   3   1     1.840687952699   105.61118924    38.30604821

---------------------
BASIS SET INFORMATION
---------------------
There are 2 groups of distinct atoms

 Group   1 Type O   : 11s6p2d1f contracted to 5s3p2d1f pattern {62111/411/11/1}
 Group   2 Type H   : 5s1p contracted to 3s1p pattern {311/1}

Atom   0O    basis set group =>   1
Atom   1H    basis set group =>   2
Atom   2H    basis set group =>   2
Atom   3O    basis set group =>   1
Atom   4H    basis set group =>   2
Atom   5H    basis set group =>   2
Atom   6O    basis set group =>   1
Atom   7H    basis set group =>   2
Atom   8H    basis set group =>   2
Atom   9O    basis set group =>   1
Atom  10H    basis set group =>   2
Atom  11H    basis set group =>   2
Atom  12O    basis set group =>   1
Atom  13H    basis set group =>   2
Atom  14H    basis set group =>   2
Atom  15O    basis set group =>   1
Atom  16H    basis set group =>   2
Atom  17H    basis set group =>   2
Atom  18O    basis set group =>   1
Atom  19H    basis set group =>   2
Atom  20H    basis set group =>   2
Atom  21O    basis set group =>   1
Atom  22H    basis set group =>   2
Atom  23H    basis set group =>   2


           ************************************************************
           *        Program running with 6 parallel MPI-processes     *
           *              working on a common directory               *
           ************************************************************
------------------------------------------------------------------------------
                           ORCA GTO INTEGRAL CALCULATION
------------------------------------------------------------------------------

                         BASIS SET STATISTICS AND STARTUP INFO

 # of primitive gaussian shells          ...  256
 # of primitive gaussian functions       ...  496
 # of contracted shells                  ...  152
 # of contracted basis functions         ...  344
 Highest angular momentum                ...    3
 Maximum contraction depth               ...    6
 Integral package used                   ... LIBINT
 Integral threshhold            Thresh   ...  2.500e-11
 Primitive cut-off              TCut     ...  2.500e-12


------------------------------ INTEGRAL EVALUATION ----------------------------


 * One electron integrals 
 Pre-screening matrix                    ... done
 Shell pair data                         ... done (   0.002 sec)



           ************************************************************
           *        Program running with 6 parallel MPI-processes     *
           *              working on a common directory               *
           ************************************************************
-------------------------------------------------------------------------------
                                 ORCA SCF
-------------------------------------------------------------------------------

------------
SCF SETTINGS
------------
Hamiltonian:
 Ab initio Hamiltonian  Method          .... Hartree-Fock(GTOs)


General Settings:
 Integral files         IntName         .... 12h2o.su.etal.mol0,2,3,5,6,8,10,11-orca.engrad-mp2.def2tzvp.frozencore
 Hartree-Fock type      HFTyp           .... RHF
 Total Charge           Charge          ....    0
 Multiplicity           Mult            ....    1
 Number of Electrons    NEL             ....   80
 Basis Dimension        Dim             ....  344
 Nuclear Repulsion      ENuc            ....    454.3332362230 Eh

Convergence Acceleration:
 DIIS                   CNVDIIS         .... on
   Start iteration      DIISMaxIt       ....    12
   Startup error        DIISStart       ....  0.200000
   # of expansion vecs  DIISMaxEq       ....     5
   Bias factor          DIISBfac        ....   1.050
   Max. coefficient     DIISMaxC        ....  10.000
 Newton-Raphson         CNVNR           .... off
 SOSCF                  CNVSOSCF        .... on
   Start iteration      SOSCFMaxIt      ....   150
   Startup grad/error   SOSCFStart      ....  0.003300
 Level Shifting         CNVShift        .... on
   Level shift para.    LevelShift      ....    0.2500
   Turn off err/grad.   ShiftErr        ....    0.0010
 Zerner damping         CNVZerner       .... off
 Static damping         CNVDamp         .... on
   Fraction old density DampFac         ....    0.7000
   Max. Damping (<1)    DampMax         ....    0.9800
   Min. Damping (>=0)   DampMin         ....    0.0000
   Turn off err/grad.   DampErr         ....    0.1000
 Fernandez-Rico         CNVRico         .... off

SCF Procedure:
 Maximum # iterations   MaxIter         ....   125
 SCF integral mode      SCFMode         .... Direct
   Integral package                     .... LIBINT
 Reset frequency        DirectResetFreq ....    20
 Integral Threshold     Thresh          ....  2.500e-11 Eh
 Primitive CutOff       TCut            ....  2.500e-12 Eh

Convergence Tolerance:
 Convergence Check Mode ConvCheckMode   .... Total+1el-Energy
 Convergence forced     ConvForced      .... 1
 Energy Change          TolE            ....  1.000e-08 Eh
 1-El. energy change                    ....  1.000e-05 Eh
 Orbital Gradient       TolG            ....  1.000e-05
 Orbital Rotation angle TolX            ....  1.000e-05
 DIIS Error             TolErr          ....  5.000e-07


Diagonalization of the overlap matrix:
Smallest eigenvalue                        ... 3.663e-03
Time for diagonalization                   ...    0.016 sec
Threshold for overlap eigenvalues          ... 1.000e-08
Number of eigenvalues below threshold      ... 0
Time for construction of square roots      ...    0.009 sec
Total time needed                          ...    0.025 sec

-------------------
DFT GRID GENERATION
-------------------

General Integration Accuracy     IntAcc      ...  4.340
Radial Grid Type                 RadialGrid  ... Gauss-Chebyshev
Angular Grid (max. acc.)         AngularGrid ... Lebedev-110
Angular grid pruning method      GridPruning ... 3 (G Style)
Weight generation scheme         WeightScheme... Becke
Basis function cutoff            BFCut       ...    1.0000e-11
Integration weight cutoff        WCut        ...    1.0000e-14
Grids for H and He will be reduced by one unit

# of grid points (after initial pruning)     ...  26432 (   0.0 sec)
# of grid points (after weights+screening)   ...  24658 (   0.0 sec)
nearest neighbour list constructed           ...    0.0 sec
Grid point re-assignment to atoms done       ...    0.0 sec
Grid point division into batches done        ...    0.0 sec
Reduced shell lists constructed in    0.1 sec

Total number of grid points                  ...    24658
Total number of batches                      ...      396
Average number of points per batch           ...       62
Average number of grid points per atom       ...     1027
Average number of shells per batch           ...    66.76 (43.92%)
Average number of basis functions per batch  ...   135.09 (39.27%)
Average number of large shells per batch     ...    43.70 (65.46%)
Average number of large basis fcns per batch ...    87.49 (64.77%)
Maximum spatial batch extension              ...  15.25, 20.63, 12.41 au
Average spatial batch extension              ...   0.50,  0.59,  0.51 au

Time for grid setup =    0.095 sec

------------------------------
INITIAL GUESS: MODEL POTENTIAL
------------------------------
Loading Hartree-Fock densities                     ... done
Calculating cut-offs                               ... done
Setting up the integral package                    ... done
Initializing the effective Hamiltonian             ... done
Starting the Coulomb interaction                   ... done (   0.0 sec)
Reading the grid                                   ... done
Mapping shells                                     ... done
Starting the XC term evaluation                    ... done (   0.0 sec)
Transforming the Hamiltonian                       ... done (   0.0 sec)
Diagonalizing the Hamiltonian                      ... done (   0.0 sec)
Back transforming the eigenvectors                 ... done (   0.0 sec)
Now organizing SCF variables                       ... done
                      ------------------
                      INITIAL GUESS DONE (   0.3 sec)
                      ------------------
--------------
SCF ITERATIONS
--------------
ITER       Energy         Delta-E        Max-DP      RMS-DP      [F,P]     Damp
               ***  Starting incremental Fock matrix formation  ***
  0   -607.8346495065   0.000000000000 0.04465379  0.00082843  0.3432464 0.7000
  1   -608.1000657369  -0.265416230394 0.02956108  0.00057525  0.2166061 0.7000
                               ***Turning on DIIS***
  2   -608.2415386748  -0.141472937842 0.01628715  0.00032379  0.1634076 0.7000
  3   -609.5536070700  -1.312068395204 0.00788867  0.00015055  0.1218107 0.7000
  4   -609.2901396528   0.263467417128 0.01784103  0.00034904  0.0861832 0.0000
  5   -608.5642029001   0.725936752688 0.00217450  0.00005551  0.0057252 0.0000
                      *** Initiating the SOSCF procedure ***
                           *** Shutting down DIIS ***
                      *** Re-Reading the Fockian *** 
                      *** Removing any level shift *** 
ITER      Energy       Delta-E        Grad      Rot      Max-DP    RMS-DP
  6   -608.52710794   0.0370949594  0.000739  0.000739  0.001337  0.000034
               *** Restarting incremental Fock matrix formation ***
  7   -608.51569056   0.0114173783  0.000296  0.000409  0.000636  0.000015
  8   -608.51570207  -0.0000115123  0.000106  0.000311  0.000506  0.000012
  9   -608.51570488  -0.0000028054  0.000069  0.000033  0.000087  0.000002
 10   -608.51570509  -0.0000002117  0.000016  0.000008  0.000021  0.000000
                  ***Gradient check signals convergence***
              ***Rediagonalizing the Fockian in SOSCF/NRSCF***

               *****************************************************
               *                     SUCCESS                       *
               *           SCF CONVERGED AFTER  11 CYCLES          *
               *****************************************************


----------------
TOTAL SCF ENERGY
----------------

Total Energy       :         -608.51570510 Eh          -16558.55416 eV

Components:
Nuclear Repulsion  :          454.33323622 Eh           12363.03588 eV
Electronic Energy  :        -1062.84894132 Eh          -28921.59004 eV
One Electron Energy:        -1746.22460954 Eh          -47517.18735 eV
Two Electron Energy:          683.37566822 Eh           18595.59731 eV

Virial components:
Potential Energy   :        -1216.30603156 Eh          -33097.36976 eV
Kinetic Energy     :          607.79032646 Eh           16538.81560 eV
Virial Ratio       :            2.00119347


---------------
SCF CONVERGENCE
---------------

  Last Energy change         ...   -7.4401e-09  Tolerance :   1.0000e-08
  Last MAX-Density change    ...    4.8280e-06  Tolerance :   1.0000e-07
  Last RMS-Density change    ...    1.1168e-07  Tolerance :   5.0000e-09
  Last Orbital Gradient      ...    1.7980e-06  Tolerance :   1.0000e-05
  Last Orbital Rotation      ...    2.1728e-06  Tolerance :   1.0000e-05

             **** THE GBW FILE WAS UPDATED (12h2o.su.etal.mol0,2,3,5,6,8,10,11-orca.engrad-mp2.def2tzvp.frozencore.gbw) ****
             **** DENSITY FILE WAS UPDATED (12h2o.su.etal.mol0,2,3,5,6,8,10,11-orca.engrad-mp2.def2tzvp.frozencore.scfp) ****
             **** ENERGY FILE WAS UPDATED (12h2o.su.etal.mol0,2,3,5,6,8,10,11-orca.engrad-mp2.def2tzvp.frozencore.en.tmp) ****
             **** THE GBW FILE WAS UPDATED (12h2o.su.etal.mol0,2,3,5,6,8,10,11-orca.engrad-mp2.def2tzvp.frozencore.gbw) ****
             **** DENSITY FILE WAS UPDATED (12h2o.su.etal.mol0,2,3,5,6,8,10,11-orca.engrad-mp2.def2tzvp.frozencore.scfp) ****
----------------
ORBITAL ENERGIES
----------------

  NO   OCC          E(Eh)            E(eV) 
   0   2.0000     -20.616396      -561.0007 
   1   2.0000     -20.580133      -560.0139 
   2   2.0000     -20.570611      -559.7548 
   3   2.0000     -20.555606      -559.3465 
   4   2.0000     -20.555478      -559.3430 
   5   2.0000     -20.553837      -559.2983 
   6   2.0000     -20.548718      -559.1590 
   7   2.0000     -20.495771      -557.7183 
   8   2.0000      -1.401900       -38.1476 
   9   2.0000      -1.368769       -37.2461 
  10   2.0000      -1.364176       -37.1211 
  11   2.0000      -1.348861       -36.7044 
  12   2.0000      -1.338531       -36.4233 
  13   2.0000      -1.337550       -36.3966 
  14   2.0000      -1.327289       -36.1174 
  15   2.0000      -1.280118       -34.8338 
  16   2.0000      -0.758892       -20.6505 
  17   2.0000      -0.731613       -19.9082 
  18   2.0000      -0.726207       -19.7611 
  19   2.0000      -0.724716       -19.7205 
  20   2.0000      -0.720857       -19.6155 
  21   2.0000      -0.714770       -19.4499 
  22   2.0000      -0.702996       -19.1295 
  23   2.0000      -0.664991       -18.0953 
  24   2.0000      -0.641880       -17.4664 
  25   2.0000      -0.628214       -17.0946 
  26   2.0000      -0.610589       -16.6150 
  27   2.0000      -0.592878       -16.1330 
  28   2.0000      -0.586660       -15.9638 
  29   2.0000      -0.577559       -15.7162 
  30   2.0000      -0.563838       -15.3428 
  31   2.0000      -0.544561       -14.8183 
  32   2.0000      -0.537653       -14.6303 
  33   2.0000      -0.512106       -13.9351 
  34   2.0000      -0.509337       -13.8598 
  35   2.0000      -0.505209       -13.7474 
  36   2.0000      -0.503578       -13.7030 
  37   2.0000      -0.495101       -13.4724 
  38   2.0000      -0.492043       -13.3892 
  39   2.0000      -0.446796       -12.1579 
  40   0.0000       0.080673         2.1952 
  41   0.0000       0.126512         3.4426 
  42   0.0000       0.149855         4.0777 
  43   0.0000       0.153386         4.1738 
  44   0.0000       0.159479         4.3396 
  45   0.0000       0.170324         4.6347 
  46   0.0000       0.201976         5.4960 
  47   0.0000       0.249331         6.7846 
  48   0.0000       0.259409         7.0589 
  49   0.0000       0.271461         7.3868 
  50   0.0000       0.284160         7.7324 
  51   0.0000       0.309469         8.4211 
  52   0.0000       0.320304         8.7159 
  53   0.0000       0.328866         8.9489 
  54   0.0000       0.347677         9.4608 
  55   0.0000       0.357724         9.7342 
  56   0.0000       0.419001        11.4016 
  57   0.0000       0.460583        12.5331 
  58   0.0000       0.468491        12.7483 
  59   0.0000       0.489140        13.3102 
  60   0.0000       0.507143        13.8001 
  61   0.0000       0.524523        14.2730 
  62   0.0000       0.525116        14.2891 
  63   0.0000       0.532677        14.4949 
  64   0.0000       0.543959        14.8019 
  65   0.0000       0.554240        15.0816 
  66   0.0000       0.561767        15.2865 
  67   0.0000       0.566322        15.4104 
  68   0.0000       0.568775        15.4772 
  69   0.0000       0.582655        15.8549 
  70   0.0000       0.610301        16.6071 
  71   0.0000       0.614590        16.7238 
  72   0.0000       0.617468        16.8022 
  73   0.0000       0.625934        17.0325 
  74   0.0000       0.641574        17.4581 
  75   0.0000       0.650511        17.7013 
  76   0.0000       0.663972        18.0676 
  77   0.0000       0.681892        18.5552 
  78   0.0000       0.702997        19.1295 
  79   0.0000       0.715313        19.4647 
  80   0.0000       0.726343        19.7648 
  81   0.0000       0.731400        19.9024 
  82   0.0000       0.752845        20.4859 
  83   0.0000       0.753517        20.5042 
  84   0.0000       0.766174        20.8486 
  85   0.0000       0.768809        20.9203 
  86   0.0000       0.778217        21.1764 
  87   0.0000       0.800441        21.7811 
  88   0.0000       0.818160        22.2633 
  89   0.0000       0.823511        22.4089 
  90   0.0000       0.834883        22.7183 
  91   0.0000       0.859725        23.3943 
  92   0.0000       0.877875        23.8882 
  93   0.0000       0.895881        24.3782 
  94   0.0000       0.906623        24.6705 
  95   0.0000       0.923068        25.1180 
  96   0.0000       0.963793        26.2262 
  97   0.0000       0.999661        27.2021 
  98   0.0000       1.009737        27.4763 
  99   0.0000       1.026795        27.9405 
 100   0.0000       1.046635        28.4804 
 101   0.0000       1.068897        29.0862 
 102   0.0000       1.092673        29.7332 
 103   0.0000       1.156722        31.4760 
 104   0.0000       1.336401        36.3653 
 105   0.0000       1.357071        36.9278 
 106   0.0000       1.373447        37.3734 
 107   0.0000       1.380161        37.5561 
 108   0.0000       1.402685        38.1690 
 109   0.0000       1.413160        38.4540 
 110   0.0000       1.428475        38.8708 
 111   0.0000       1.432981        38.9934 
 112   0.0000       1.446735        39.3677 
 113   0.0000       1.448863        39.4256 
 114   0.0000       1.463177        39.8151 
 115   0.0000       1.478125        40.2218 
 116   0.0000       1.481403        40.3110 
 117   0.0000       1.522322        41.4245 
 118   0.0000       1.529334        41.6153 
 119   0.0000       1.563363        42.5413 
 120   0.0000       1.566469        42.6258 
 121   0.0000       1.585453        43.1424 
 122   0.0000       1.587189        43.1896 
 123   0.0000       1.594348        43.3844 
 124   0.0000       1.614271        43.9265 
 125   0.0000       1.626050        44.2471 
 126   0.0000       1.653063        44.9821 
 127   0.0000       1.684988        45.8509 
 128   0.0000       1.765606        48.0446 
 129   0.0000       1.796940        48.8972 
 130   0.0000       1.819425        49.5091 
 131   0.0000       1.853747        50.4430 
 132   0.0000       1.874015        50.9945 
 133   0.0000       1.879633        51.1474 
 134   0.0000       1.891242        51.4633 
 135   0.0000       1.933832        52.6222 
 136   0.0000       1.939589        52.7789 
 137   0.0000       1.957409        53.2638 
 138   0.0000       1.975047        53.7438 
 139   0.0000       1.988807        54.1182 
 140   0.0000       2.009733        54.6876 
 141   0.0000       2.014142        54.8076 
 142   0.0000       2.020895        54.9913 
 143   0.0000       2.036380        55.4127 
 144   0.0000       2.061542        56.0974 
 145   0.0000       2.093617        56.9702 
 146   0.0000       2.104832        57.2754 
 147   0.0000       2.125386        57.8347 
 148   0.0000       2.150087        58.5068 
 149   0.0000       2.165351        58.9222 
 150   0.0000       2.183481        59.4155 
 151   0.0000       2.215048        60.2745 
 152   0.0000       2.221070        60.4384 
 153   0.0000       2.245522        61.1037 
 154   0.0000       2.268437        61.7273 
 155   0.0000       2.283012        62.1239 
 156   0.0000       2.302843        62.6635 
 157   0.0000       2.308139        62.8076 
 158   0.0000       2.322650        63.2025 
 159   0.0000       2.344409        63.7946 
 160   0.0000       2.353819        64.0507 
 161   0.0000       2.367055        64.4108 
 162   0.0000       2.384405        64.8830 
 163   0.0000       2.399037        65.2811 
 164   0.0000       2.400949        65.3331 
 165   0.0000       2.431065        66.1526 
 166   0.0000       2.466351        67.1128 
 167   0.0000       2.473612        67.3104 
 168   0.0000       2.486906        67.6721 
 169   0.0000       2.506969        68.2181 
 170   0.0000       2.515378        68.4469 
 171   0.0000       2.530304        68.8531 
 172   0.0000       2.543051        69.1999 
 173   0.0000       2.554530        69.5123 
 174   0.0000       2.577163        70.1282 
 175   0.0000       2.587142        70.3997 
 176   0.0000       2.602733        70.8240 
 177   0.0000       2.605134        70.8893 
 178   0.0000       2.613618        71.1202 
 179   0.0000       2.628494        71.5250 
 180   0.0000       2.641058        71.8668 
 181   0.0000       2.643128        71.9232 
 182   0.0000       2.665054        72.5198 
 183   0.0000       2.675173        72.7951 
 184   0.0000       2.690847        73.2217 
 185   0.0000       2.699907        73.4682 
 186   0.0000       2.727349        74.2149 
 187   0.0000       2.755772        74.9884 
 188   0.0000       2.761552        75.1456 
 189   0.0000       2.805214        76.3337 
 190   0.0000       2.806368        76.3652 
 191   0.0000       2.819987        76.7357 
 192   0.0000       2.879931        78.3669 
 193   0.0000       2.903181        78.9996 
 194   0.0000       2.912013        79.2399 
 195   0.0000       2.929356        79.7118 
 196   0.0000       2.947441        80.2039 
 197   0.0000       2.958045        80.4925 
 198   0.0000       2.982998        81.1715 
 199   0.0000       3.003195        81.7211 
 200   0.0000       3.016461        82.0821 
 201   0.0000       3.021845        82.2286 
 202   0.0000       3.028629        82.4132 
 203   0.0000       3.037856        82.6643 
 204   0.0000       3.064490        83.3890 
 205   0.0000       3.086047        83.9756 
 206   0.0000       3.103936        84.4624 
 207   0.0000       3.116027        84.7914 
 208   0.0000       3.130010        85.1719 
 209   0.0000       3.157750        85.9267 
 210   0.0000       3.178875        86.5016 
 211   0.0000       3.187262        86.7298 
 212   0.0000       3.221841        87.6707 
 213   0.0000       3.241264        88.1993 
 214   0.0000       3.286750        89.4370 
 215   0.0000       3.301167        89.8293 
 216   0.0000       3.323418        90.4348 
 217   0.0000       3.336742        90.7974 
 218   0.0000       3.350483        91.1713 
 219   0.0000       3.394201        92.3609 
 220   0.0000       3.470590        94.4396 
 221   0.0000       3.487603        94.9025 
 222   0.0000       3.509507        95.4985 
 223   0.0000       3.553291        96.6900 
 224   0.0000       3.983444       108.3950 
 225   0.0000       4.036775       109.8462 
 226   0.0000       4.062073       110.5346 
 227   0.0000       4.088830       111.2627 
 228   0.0000       4.093565       111.3916 
 229   0.0000       4.115612       111.9915 
 230   0.0000       4.154403       113.0471 
 231   0.0000       4.186365       113.9168 
 232   0.0000       4.256322       115.8204 
 233   0.0000       4.300898       117.0334 
 234   0.0000       4.311828       117.3308 
 235   0.0000       4.338610       118.0596 
 236   0.0000       4.366066       118.8067 
 237   0.0000       4.380438       119.1978 
 238   0.0000       4.392111       119.5154 
 239   0.0000       4.409099       119.9777 
 240   0.0000       5.492465       149.4576 
 241   0.0000       5.525130       150.3464 
 242   0.0000       5.532498       150.5469 
 243   0.0000       5.548654       150.9866 
 244   0.0000       5.549742       151.0162 
 245   0.0000       5.550937       151.0487 
 246   0.0000       5.553549       151.1197 
 247   0.0000       5.606917       152.5720 
 248   0.0000       5.629171       153.1775 
 249   0.0000       5.641580       153.5152 
 250   0.0000       5.644424       153.5926 
 251   0.0000       5.649916       153.7420 
 252   0.0000       5.664894       154.1496 
 253   0.0000       5.682361       154.6249 
 254   0.0000       5.700391       155.1155 
 255   0.0000       5.717116       155.5706 
 256   0.0000       5.779570       157.2701 
 257   0.0000       5.784991       157.4176 
 258   0.0000       5.800351       157.8356 
 259   0.0000       5.810071       158.1001 
 260   0.0000       5.817297       158.2967 
 261   0.0000       5.820157       158.3745 
 262   0.0000       5.826502       158.5472 
 263   0.0000       5.833828       158.7465 
 264   0.0000       5.841313       158.9502 
 265   0.0000       5.845335       159.0596 
 266   0.0000       5.850655       159.2044 
 267   0.0000       5.861057       159.4875 
 268   0.0000       5.866453       159.6343 
 269   0.0000       5.876470       159.9069 
 270   0.0000       5.883962       160.1108 
 271   0.0000       5.886570       160.1817 
 272   0.0000       5.888050       160.2220 
 273   0.0000       5.897249       160.4723 
 274   0.0000       5.912479       160.8867 
 275   0.0000       5.930052       161.3649 
 276   0.0000       5.931616       161.4075 
 277   0.0000       5.933704       161.4643 
 278   0.0000       5.938339       161.5904 
 279   0.0000       5.966275       162.3506 
 280   0.0000       6.432962       175.0498 
 281   0.0000       6.451371       175.5507 
 282   0.0000       6.468580       176.0190 
 283   0.0000       6.477067       176.2500 
 284   0.0000       6.480213       176.3356 
 285   0.0000       6.485554       176.4809 
 286   0.0000       6.501395       176.9120 
 287   0.0000       6.529976       177.6897 
 288   0.0000       6.662076       181.2843 
 289   0.0000       6.670994       181.5270 
 290   0.0000       6.682462       181.8390 
 291   0.0000       6.722541       182.9296 
 292   0.0000       6.727689       183.0697 
 293   0.0000       6.737884       183.3471 
 294   0.0000       6.756610       183.8567 
 295   0.0000       6.791343       184.8018 
 296   0.0000       6.822935       185.6615 
 297   0.0000       6.837705       186.0634 
 298   0.0000       6.856351       186.5708 
 299   0.0000       6.863973       186.7782 
 300   0.0000       6.876196       187.1108 
 301   0.0000       6.882241       187.2753 
 302   0.0000       6.896593       187.6658 
 303   0.0000       6.906874       187.9456 
 304   0.0000       6.916652       188.2117 
 305   0.0000       6.924391       188.4223 
 306   0.0000       6.927887       188.5174 
 307   0.0000       6.934955       188.7097 
 308   0.0000       6.938100       188.7953 
 309   0.0000       6.949844       189.1149 
 310   0.0000       6.957661       189.3276 
 311   0.0000       6.966816       189.5767 
 312   0.0000       6.978653       189.8988 
 313   0.0000       6.989823       190.2028 
 314   0.0000       7.008016       190.6978 
 315   0.0000       7.035323       191.4409 
 316   0.0000       7.044613       191.6937 
 317   0.0000       7.055649       191.9940 
 318   0.0000       7.098965       193.1727 
 319   0.0000       7.125184       193.8861 
 320   0.0000       7.368344       200.5028 
 321   0.0000       7.388456       201.0501 
 322   0.0000       7.396093       201.2579 
 323   0.0000       7.450911       202.7496 
 324   0.0000       7.455576       202.8765 
 325   0.0000       7.471606       203.3127 
 326   0.0000       7.482829       203.6181 
 327   0.0000       7.503025       204.1677 
 328   0.0000       7.504127       204.1977 
 329   0.0000       7.541004       205.2012 
 330   0.0000       7.547256       205.3713 
 331   0.0000       7.562029       205.7733 
 332   0.0000       7.578113       206.2109 
 333   0.0000       7.588675       206.4983 
 334   0.0000       7.600669       206.8247 
 335   0.0000       7.660335       208.4483 
 336   0.0000      44.880063      1221.2486 
 337   0.0000      44.966625      1223.6041 
 338   0.0000      44.978759      1223.9343 
 339   0.0000      44.995903      1224.4008 
 340   0.0000      45.009704      1224.7763 
 341   0.0000      45.024847      1225.1884 
 342   0.0000      45.066264      1226.3154 
 343   0.0000      45.151761      1228.6419 

                    ********************************
                    * MULLIKEN POPULATION ANALYSIS *
                    ********************************

-----------------------
MULLIKEN ATOMIC CHARGES
-----------------------
   0 O :   -0.761631
   1 H :    0.349527
   2 H :    0.395438
   3 O :   -0.793350
   4 H :    0.356183
   5 H :    0.414309
   6 O :   -0.745244
   7 H :    0.362914
   8 H :    0.404758
   9 O :   -0.771858
  10 H :    0.371957
  11 H :    0.374775
  12 O :   -0.759129
  13 H :    0.413712
  14 H :    0.348286
  15 O :   -0.767863
  16 H :    0.401965
  17 H :    0.390405
  18 O :   -0.783593
  19 H :    0.352261
  20 H :    0.407972
  21 O :   -0.705943
  22 H :    0.362860
  23 H :    0.381289
Sum of atomic charges:   -0.0000000

--------------------------------
MULLIKEN REDUCED ORBITAL CHARGES
--------------------------------
  0 O s       :     3.809452  s :     3.809452
      pz      :     1.707075  p :     4.927675
      px      :     1.410061
      py      :     1.810539
      dz2     :     0.003521  d :     0.023072
      dxz     :     0.004082
      dyz     :     0.005526
      dx2y2   :     0.002291
      dxy     :     0.007652
      f0      :     0.000078  f :     0.001431
      f+1     :     0.000310
      f-1     :     0.000177
      f+2     :     0.000070
      f-2     :     0.000347
      f+3     :     0.000090
      f-3     :     0.000359
  1 H s       :     0.604660  s :     0.604660
      pz      :     0.016840  p :     0.045813
      px      :     0.013947
      py      :     0.015026
  2 H s       :     0.547958  s :     0.547958
      pz      :     0.010425  p :     0.056604
      px      :     0.031898
      py      :     0.014281
  3 O s       :     3.807492  s :     3.807492
      pz      :     1.726842  p :     4.962490
      px      :     1.789434
      py      :     1.446214
      dz2     :     0.003739  d :     0.021990
      dxz     :     0.005023
      dyz     :     0.004541
      dx2y2   :     0.002175
      dxy     :     0.006513
      f0      :     0.000081  f :     0.001378
      f+1     :     0.000169
      f-1     :     0.000316
      f+2     :     0.000060
      f-2     :     0.000345
      f+3     :     0.000326
      f-3     :     0.000081
  4 H s       :     0.598467  s :     0.598467
      pz      :     0.016953  p :     0.045351
      px      :     0.014673
      py      :     0.013724
  5 H s       :     0.529834  s :     0.529834
      pz      :     0.009804  p :     0.055857
      px      :     0.013000
      py      :     0.033052
  6 O s       :     3.795061  s :     3.795061
      pz      :     1.524184  p :     4.924239
      px      :     1.607937
      py      :     1.792118
      dz2     :     0.012280  d :     0.024556
      dxz     :     0.001253
      dyz     :     0.002269
      dx2y2   :     0.002249
      dxy     :     0.006505
      f0      :     0.000251  f :     0.001387
      f+1     :     0.000389
      f-1     :     0.000155
      f+2     :     0.000052
      f-2     :     0.000056
      f+3     :     0.000046
      f-3     :     0.000439
  7 H s       :     0.593537  s :     0.593537
      pz      :     0.019283  p :     0.043548
      px      :     0.011585
      py      :     0.012680
  8 H s       :     0.546100  s :     0.546100
      pz      :     0.009273  p :     0.049142
      px      :     0.024573
      py      :     0.015296
  9 O s       :     3.805393  s :     3.805393
      pz      :     1.578378  p :     4.940861
      px      :     1.874495
      py      :     1.487989
      dz2     :     0.010966  d :     0.024205
      dxz     :     0.002464
      dyz     :     0.002854
      dx2y2   :     0.003009
      dxy     :     0.004912
      f0      :     0.000165  f :     0.001399
      f+1     :     0.000118
      f-1     :     0.000440
      f+2     :     0.000076
      f-2     :     0.000040
      f+3     :     0.000445
      f-3     :     0.000116
 10 H s       :     0.574052  s :     0.574052
      pz      :     0.010007  p :     0.053991
      px      :     0.015829
      py      :     0.028154
 11 H s       :     0.576102  s :     0.576102
      pz      :     0.024179  p :     0.049123
      px      :     0.013488
      py      :     0.011456
 12 O s       :     3.801668  s :     3.801668
      pz      :     1.621343  p :     4.932673
      px      :     1.457273
      py      :     1.854057
      dz2     :     0.010259  d :     0.023395
      dxz     :     0.002421
      dyz     :     0.002051
      dx2y2   :     0.003484
      dxy     :     0.005181
      f0      :     0.000165  f :     0.001393
      f+1     :     0.000436
      f-1     :     0.000114
      f+2     :     0.000070
      f-2     :     0.000036
      f+3     :     0.000112
      f-3     :     0.000459
 13 H s       :     0.537739  s :     0.537739
      pz      :     0.025706  p :     0.048549
      px      :     0.010743
      py      :     0.012100
 14 H s       :     0.609539  s :     0.609539
      pz      :     0.009564  p :     0.042175
      px      :     0.018306
      py      :     0.014305
 15 O s       :     3.792315  s :     3.792315
      pz      :     1.571924  p :     4.950348
      px      :     1.593558
      py      :     1.784866
      dz2     :     0.011699  d :     0.023863
      dxz     :     0.001204
      dyz     :     0.002191
      dx2y2   :     0.002269
      dxy     :     0.006500
      f0      :     0.000229  f :     0.001337
      f+1     :     0.000377
      f-1     :     0.000147
      f+2     :     0.000050
      f-2     :     0.000054
      f+3     :     0.000045
      f-3     :     0.000434
 16 H s       :     0.550321  s :     0.550321
      pz      :     0.024644  p :     0.047714
      px      :     0.011058
      py      :     0.012012
 17 H s       :     0.559940  s :     0.559940
      pz      :     0.009716  p :     0.049655
      px      :     0.024376
      py      :     0.015563
 18 O s       :     3.806038  s :     3.806038
      pz      :     1.733110  p :     4.953574
      px      :     1.784148
      py      :     1.436316
      dz2     :     0.003920  d :     0.022566
      dxz     :     0.005143
      dyz     :     0.004766
      dx2y2   :     0.002255
      dxy     :     0.006482
      f0      :     0.000088  f :     0.001415
      f+1     :     0.000175
      f-1     :     0.000331
      f+2     :     0.000061
      f-2     :     0.000355
      f+3     :     0.000326
      f-3     :     0.000081
 19 H s       :     0.602160  s :     0.602160
      pz      :     0.017082  p :     0.045579
      px      :     0.014822
      py      :     0.013674
 20 H s       :     0.535694  s :     0.535694
      pz      :     0.010355  p :     0.056334
      px      :     0.013126
      py      :     0.032853
 21 O s       :     3.800584  s :     3.800584
      pz      :     1.522697  p :     4.877881
      px      :     1.791345
      py      :     1.563839
      dz2     :     0.012607  d :     0.026027
      dxz     :     0.002499
      dyz     :     0.001267
      dx2y2   :     0.002510
      dxy     :     0.007144
      f0      :     0.000250  f :     0.001451
      f+1     :     0.000163
      f-1     :     0.000394
      f+2     :     0.000051
      f-2     :     0.000057
      f+3     :     0.000483
      f-3     :     0.000053
 22 H s       :     0.593199  s :     0.593199
      pz      :     0.019354  p :     0.043942
      px      :     0.012762
      py      :     0.011826
 23 H s       :     0.575578  s :     0.575578
      pz      :     0.010016  p :     0.043134
      px      :     0.014501
      py      :     0.018616


                     *******************************
                     * LOEWDIN POPULATION ANALYSIS *
                     *******************************

----------------------
LOEWDIN ATOMIC CHARGES
----------------------
   0 O :   -0.341709
   1 H :    0.155543
   2 H :    0.153093
   3 O :   -0.327192
   4 H :    0.156661
   5 H :    0.157148
   6 O :   -0.294168
   7 H :    0.171035
   8 H :    0.163129
   9 O :   -0.376735
  10 H :    0.144195
  11 H :    0.147555
  12 O :   -0.297085
  13 H :    0.165729
  14 H :    0.168952
  15 O :   -0.300937
  16 H :    0.160896
  17 H :    0.156695
  18 O :   -0.352520
  19 H :    0.155901
  20 H :    0.155268
  21 O :   -0.275936
  22 H :    0.171600
  23 H :    0.182883

-------------------------------
LOEWDIN REDUCED ORBITAL CHARGES
-------------------------------
  0 O s       :     3.460997  s :     3.460997
      pz      :     1.675495  p :     4.849222
      px      :     1.392798
      py      :     1.780929
      dz2     :     0.004572  d :     0.029504
      dxz     :     0.006614
      dyz     :     0.005700
      dx2y2   :     0.003278
      dxy     :     0.009341
      f0      :     0.000080  f :     0.001986
      f+1     :     0.000426
      f-1     :     0.000262
      f+2     :     0.000034
      f-2     :     0.000613
      f+3     :     0.000084
      f-3     :     0.000486
  1 H s       :     0.679751  s :     0.679751
      pz      :     0.065669  p :     0.164706
      px      :     0.045707
      py      :     0.053329
  2 H s       :     0.652380  s :     0.652380
      pz      :     0.033540  p :     0.194527
      px      :     0.113323
      py      :     0.047663
  3 O s       :     3.455271  s :     3.455271
      pz      :     1.684261  p :     4.841412
      px      :     1.748381
      py      :     1.408770
      dz2     :     0.004780  d :     0.028562
      dxz     :     0.005197
      dyz     :     0.006822
      dx2y2   :     0.003570
      dxy     :     0.008193
      f0      :     0.000088  f :     0.001947
      f+1     :     0.000256
      f-1     :     0.000428
      f+2     :     0.000032
      f-2     :     0.000611
      f+3     :     0.000449
      f-3     :     0.000083
  4 H s       :     0.677819  s :     0.677819
      pz      :     0.066259  p :     0.165520
      px      :     0.052971
      py      :     0.046290
  5 H s       :     0.643277  s :     0.643277
      pz      :     0.033213  p :     0.199575
      px      :     0.047603
      py      :     0.118759
  6 O s       :     3.451507  s :     3.451507
      pz      :     1.517448  p :     4.809744
      px      :     1.560596
      py      :     1.731700
      dz2     :     0.015980  d :     0.030840
      dxz     :     0.002088
      dyz     :     0.001816
      dx2y2   :     0.003245
      dxy     :     0.007711
      f0      :     0.000465  f :     0.002076
      f+1     :     0.000571
      f-1     :     0.000328
      f+2     :     0.000021
      f-2     :     0.000052
      f+3     :     0.000025
      f-3     :     0.000614
  7 H s       :     0.669756  s :     0.669756
      pz      :     0.080731  p :     0.159209
      px      :     0.036667
      py      :     0.041812
  8 H s       :     0.660767  s :     0.660767
      pz      :     0.029298  p :     0.176104
      px      :     0.088679
      py      :     0.058127
  9 O s       :     3.464407  s :     3.464407
      pz      :     1.567076  p :     4.881047
      px      :     1.837462
      py      :     1.476509
      dz2     :     0.013761  d :     0.029320
      dxz     :     0.001556
      dyz     :     0.003942
      dx2y2   :     0.003985
      dxy     :     0.006077
      f0      :     0.000350  f :     0.001961
      f+1     :     0.000188
      f-1     :     0.000706
      f+2     :     0.000043
      f-2     :     0.000043
      f+3     :     0.000563
      f-3     :     0.000068
 10 H s       :     0.672124  s :     0.672124
      pz      :     0.030775  p :     0.183681
      px      :     0.052592
      py      :     0.100314
 11 H s       :     0.679675  s :     0.679675
      pz      :     0.092072  p :     0.172769
      px      :     0.043400
      py      :     0.037297
 12 O s       :     3.456262  s :     3.456262
      pz      :     1.568906  p :     4.808008
      px      :     1.449541
      py      :     1.789562
      dz2     :     0.013883  d :     0.030796
      dxz     :     0.003373
      dyz     :     0.001240
      dx2y2   :     0.005436
      dxy     :     0.006864
      f0      :     0.000323  f :     0.002019
      f+1     :     0.000696
      f-1     :     0.000202
      f+2     :     0.000036
      f-2     :     0.000041
      f+3     :     0.000077
      f-3     :     0.000643
 13 H s       :     0.659518  s :     0.659518
      pz      :     0.097203  p :     0.174753
      px      :     0.035494
      py      :     0.042056
 14 H s       :     0.676606  s :     0.676606
      pz      :     0.030908  p :     0.154443
      px      :     0.074032
      py      :     0.049503
 15 O s       :     3.445631  s :     3.445631
      pz      :     1.542226  p :     4.823869
      px      :     1.554825
      py      :     1.726818
      dz2     :     0.014714  d :     0.029449
      dxz     :     0.001814
      dyz     :     0.001665
      dx2y2   :     0.003324
      dxy     :     0.007932
      f0      :     0.000416  f :     0.001988
      f+1     :     0.000537
      f-1     :     0.000317
      f+2     :     0.000019
      f-2     :     0.000049
      f+3     :     0.000025
      f-3     :     0.000626
 16 H s       :     0.666716  s :     0.666716
      pz      :     0.093759  p :     0.172388
      px      :     0.037058
      py      :     0.041571
 17 H s       :     0.666941  s :     0.666941
      pz      :     0.030879  p :     0.176364
      px      :     0.087496
      py      :     0.057989
 18 O s       :     3.460168  s :     3.460168
      pz      :     1.710964  p :     4.861935
      px      :     1.746524
      py      :     1.404447
      dz2     :     0.004236  d :     0.028463
      dxz     :     0.005259
      dyz     :     0.006931
      dx2y2   :     0.003670
      dxy     :     0.008368
      f0      :     0.000073  f :     0.001954
      f+1     :     0.000260
      f-1     :     0.000435
      f+2     :     0.000031
      f-2     :     0.000617
      f+3     :     0.000454
      f-3     :     0.000083
 19 H s       :     0.679162  s :     0.679162
      pz      :     0.065817  p :     0.164937
      px      :     0.053001
      py      :     0.046120
 20 H s       :     0.647010  s :     0.647010
      pz      :     0.033247  p :     0.197722
      px      :     0.047644
      py      :     0.116831
 21 O s       :     3.458897  s :     3.458897
      pz      :     1.515713  p :     4.781238
      px      :     1.729689
      py      :     1.535836
      dz2     :     0.016930  d :     0.033605
      dxz     :     0.002001
      dyz     :     0.002018
      dx2y2   :     0.003650
      dxy     :     0.009006
      f0      :     0.000463  f :     0.002195
      f+1     :     0.000345
      f-1     :     0.000589
      f+2     :     0.000022
      f-2     :     0.000049
      f+3     :     0.000701
      f-3     :     0.000027
 22 H s       :     0.669667  s :     0.669667
      pz      :     0.081083  p :     0.158733
      px      :     0.041895
      py      :     0.035755
 23 H s       :     0.659348  s :     0.659348
      pz      :     0.029504  p :     0.157769
      px      :     0.054875
      py      :     0.073389


                      *****************************
                      * MAYER POPULATION ANALYSIS *
                      *****************************

  NA   - Mulliken gross atomic population
  ZA   - Total nuclear charge
  QA   - Mulliken gross atomic charge
  VA   - Mayer's total valence
  BVA  - Mayer's bonded valence
  FA   - Mayer's free valence

  ATOM       NA         ZA         QA         VA         BVA        FA
  0 O      8.7616     8.0000    -0.7616     1.7055     1.7055     0.0000
  1 H      0.6505     1.0000     0.3495     0.8942     0.8942    -0.0000
  2 H      0.6046     1.0000     0.3954     0.8764     0.8764    -0.0000
  3 O      8.7933     8.0000    -0.7933     1.6718     1.6718     0.0000
  4 H      0.6438     1.0000     0.3562     0.8901     0.8901    -0.0000
  5 H      0.5857     1.0000     0.4143     0.8696     0.8696     0.0000
  6 O      8.7452     8.0000    -0.7452     1.7392     1.7392     0.0000
  7 H      0.6371     1.0000     0.3629     0.8837     0.8837    -0.0000
  8 H      0.5952     1.0000     0.4048     0.8737     0.8737     0.0000
  9 O      8.7719     8.0000    -0.7719     1.7024     1.7024     0.0000
 10 H      0.6280     1.0000     0.3720     0.8956     0.8956    -0.0000
 11 H      0.6252     1.0000     0.3748     0.8884     0.8884     0.0000
 12 O      8.7591     8.0000    -0.7591     1.7249     1.7249     0.0000
 13 H      0.5863     1.0000     0.4137     0.8660     0.8660     0.0000
 14 H      0.6517     1.0000     0.3483     0.9001     0.9001     0.0000
 15 O      8.7679     8.0000    -0.7679     1.7197     1.7197     0.0000
 16 H      0.5980     1.0000     0.4020     0.8615     0.8615    -0.0000
 17 H      0.6096     1.0000     0.3904     0.8853     0.8853    -0.0000
 18 O      8.7836     8.0000    -0.7836     1.6809     1.6809    -0.0000
 19 H      0.6477     1.0000     0.3523     0.8925     0.8925    -0.0000
 20 H      0.5920     1.0000     0.4080     0.8727     0.8727    -0.0000
 21 O      8.7059     8.0000    -0.7059     1.7785     1.7785    -0.0000
 22 H      0.6371     1.0000     0.3629     0.8836     0.8836    -0.0000
 23 H      0.6187     1.0000     0.3813     0.8682     0.8682    -0.0000

  Mayer bond orders larger than 0.100000
B(  0-O ,  1-H ) :   0.8860 B(  0-O ,  2-H ) :   0.8074 B(  3-O ,  4-H ) :   0.8798 
B(  3-O ,  5-H ) :   0.7650 B(  6-O ,  7-H ) :   0.8753 B(  6-O ,  8-H ) :   0.8165 
B(  9-O , 10-H ) :   0.8493 B(  9-O , 11-H ) :   0.8602 B( 12-O , 13-H ) :   0.8110 
B( 12-O , 14-H ) :   0.8794 B( 15-O , 16-H ) :   0.8371 B( 15-O , 17-H ) :   0.8289 
B( 18-O , 19-H ) :   0.8845 B( 18-O , 20-H ) :   0.7831 B( 21-O , 22-H ) :   0.8758 
B( 21-O , 23-H ) :   0.8623 

-------
TIMINGS
-------

Total SCF time: 0 days 0 hours 0 min 25 sec 

Total time                  ....      25.974 sec
Sum of individual times     ....      25.673 sec  ( 98.8%)

Fock matrix formation       ....      25.099 sec  ( 96.6%)
Diagonalization             ....       0.138 sec  (  0.5%)
Density matrix formation    ....       0.013 sec  (  0.1%)
Population analysis         ....       0.015 sec  (  0.1%)
Initial guess               ....       0.197 sec  (  0.8%)
Orbital Transformation      ....       0.000 sec  (  0.0%)
Orbital Orthonormalization  ....       0.000 sec  (  0.0%)
DIIS solution               ....       0.054 sec  (  0.2%)
SOSCF solution              ....       0.062 sec  (  0.2%)


           ************************************************************
           *        Program running with 6 parallel MPI-processes     *
           *              working on a common directory               *
           ************************************************************

------------------------------------------------------------------------------
                                ORCA  MP2 
------------------------------------------------------------------------------

Freezing NCore=16 chemical core electrons
MP2 will be done in the AO integral direct mode
The Q1-step will be done using symmetric double matrices
Dimension of the basis                    ...  344
Memory devoted for MP2                    ... 8000 MB   
Memory needed for all in one shot         ...  935 MB
Number of MOs that can be treated together...   50      
MP2 density construction                  ... relaxed
The MP2 gradient is requested => amplitudes will be stored on disk
Total number of MOs              ...   32
Number of MOs treated per batch  ...    6 
Number of batches necessary      ...    1 
OPERATORS   0/  0 PASS   0
-----------------------------------------------
 MP2 CORRELATION ENERGY   :     -2.074030620 Eh
-----------------------------------------------


---------------------
MP2 DENSITY FORMATION
---------------------

Completing the external part of the density      ... done
Storing the unrelaxed density                    ... done

Calculating G(D)                                 ... done
Completing the Lagrangian                        ... done
Solving the Z-vector equations                   ... 

------------------------------------------------------------------------------
                           ORCA CP-SCF CALCULATION
------------------------------------------------------------------------------

Input orbitals are from        ... 12h2o.su.etal.mol0,2,3,5,6,8,10,11-orca.engrad-mp2.def2tzvp.frozencore.gbw
Input Perturbation             ... 12h2o.su.etal.mol0,2,3,5,6,8,10,11-orca.engrad-mp2.def2tzvp.frozencore.pin.tmp
Wavefunction output            ... 12h2o.su.etal.mol0,2,3,5,6,8,10,11-orca.engrad-mp2.def2tzvp.frozencore.pout.tmp
Perturbation mode              ... Real perturbation (singlet)
Solver                         ... POPLE
Max. number of iterations      ... 128
Convergence tolerance          ... 1.000e-08
Integral handling              ... Direct
Number of perturbations        ... 1
Number of operators            ... 1
Orbital ranges used for CP-SCF:
 Operator 0:  Orbitals   0... 39  to  40...343
Variables per vector in CP-SCF ... 12160
Number of vectors sought       ... 1
     CP-SCF ITERATION   0: 
     CP-SCF ITERATION   1:      0.001034650774
     CP-SCF ITERATION   2:      0.000028261206
     CP-SCF ITERATION   3:      0.000000911771
     CP-SCF ITERATION   4:      0.000000125459
     CP-SCF ITERATION   5:      0.000000011381
     CP-SCF ITERATION   6:      0.000000000633
                                                 ... done
Finalizing the relaxed density                   ... done
Transforming P to the AO basis                   ... done
Storing the relaxed density                      ... done

------------------------------------
ENERGY WEIGHTED DENSITY FINALIZATION
------------------------------------

Gathering the parts of the W-matrix              ...                                                      done
Forming the Z-density                            ... done
Transforming Z to the AO basis                   ... done
Calculating G(Z)                                 ... done
Finalizing the W-matrix                          ...                                                      done
Transforming W to the AO basis and storing       ... done

                *********************************************
                * UNRELAXED MP2 DENSITY POPULATION ANALYSIS *
                *********************************************

------------------------------------------------------------------------------
                           ORCA POPULATION ANALYSIS
------------------------------------------------------------------------------
Input electron density              ... 12h2o.su.etal.mol0,2,3,5,6,8,10,11-orca.engrad-mp2.def2tzvp.frozencore.pmp2ur
BaseName (.gbw .S,...)              ... 12h2o.su.etal.mol0,2,3,5,6,8,10,11-orca.engrad-mp2.def2tzvp.frozencore

                    ********************************
                    * MULLIKEN POPULATION ANALYSIS *
                    ********************************

-----------------------
MULLIKEN ATOMIC CHARGES
-----------------------
   0 O :   -0.755540
   1 H :    0.347280
   2 H :    0.390984
   3 O :   -0.786614
   4 H :    0.353817
   5 H :    0.409153
   6 O :   -0.738430
   7 H :    0.360403
   8 H :    0.401121
   9 O :   -0.765628
  10 H :    0.367827
  11 H :    0.371644
  12 O :   -0.752630
  13 H :    0.410499
  14 H :    0.345302
  15 O :   -0.760461
  16 H :    0.398992
  17 H :    0.386793
  18 O :   -0.777276
  19 H :    0.349974
  20 H :    0.403185
  21 O :   -0.699732
  22 H :    0.360422
  23 H :    0.378914
Sum of atomic charges:   -0.0000000

--------------------------------
MULLIKEN REDUCED ORBITAL CHARGES
--------------------------------
  0 O s       :     3.804568  s :     3.804568
      pz      :     1.696027  p :     4.896446
      px      :     1.401365
      py      :     1.799054
      dz2     :     0.009164  d :     0.050513
      dxz     :     0.009569
      dyz     :     0.010969
      dx2y2   :     0.007816
      dxy     :     0.012996
      f0      :     0.000450  f :     0.004012
      f+1     :     0.000676
      f-1     :     0.000542
      f+2     :     0.000440
      f-2     :     0.000714
      f+3     :     0.000464
      f-3     :     0.000726
  1 H s       :     0.605265  s :     0.605265
      pz      :     0.017314  p :     0.047455
      px      :     0.014385
      py      :     0.015755
  2 H s       :     0.550747  s :     0.550747
      pz      :     0.011247  p :     0.058268
      px      :     0.031998
      py      :     0.015022
  3 O s       :     3.802491  s :     3.802491
      pz      :     1.715783  p :     4.930192
      px      :     1.777235
      py      :     1.437174
      dz2     :     0.009427  d :     0.049955
      dxz     :     0.010563
      dyz     :     0.010074
      dx2y2   :     0.007857
      dxy     :     0.012034
      f0      :     0.000455  f :     0.003976
      f+1     :     0.000537
      f-1     :     0.000685
      f+2     :     0.000432
      f-2     :     0.000713
      f+3     :     0.000696
      f-3     :     0.000458
  4 H s       :     0.599216  s :     0.599216
      pz      :     0.017434  p :     0.046967
      px      :     0.015361
      py      :     0.014172
  5 H s       :     0.533391  s :     0.533391
      pz      :     0.010601  p :     0.057456
      px      :     0.013689
      py      :     0.033166
  6 O s       :     3.789850  s :     3.789850
      pz      :     1.514991  p :     4.892605
      px      :     1.598182
      py      :     1.779431
      dz2     :     0.017421  d :     0.051989
      dxz     :     0.006714
      dyz     :     0.007866
      dx2y2   :     0.007976
      dxy     :     0.012012
      f0      :     0.000631  f :     0.003987
      f+1     :     0.000757
      f-1     :     0.000531
      f+2     :     0.000415
      f-2     :     0.000424
      f+3     :     0.000424
      f-3     :     0.000805
  7 H s       :     0.594463  s :     0.594463
      pz      :     0.019360  p :     0.045134
      px      :     0.012279
      py      :     0.013494
  8 H s       :     0.548292  s :     0.548292
      pz      :     0.010005  p :     0.050586
      px      :     0.024751
      py      :     0.015830
  9 O s       :     3.800427  s :     3.800427
      pz      :     1.568563  p :     4.909816
      px      :     1.862491
      py      :     1.478762
      dz2     :     0.016201  d :     0.051406
      dxz     :     0.008041
      dyz     :     0.008281
      dx2y2   :     0.008539
      dxy     :     0.010344
      f0      :     0.000549  f :     0.003978
      f+1     :     0.000491
      f-1     :     0.000810
      f+2     :     0.000440
      f-2     :     0.000406
      f+3     :     0.000800
      f-3     :     0.000482
 10 H s       :     0.576418  s :     0.576418
      pz      :     0.010872  p :     0.055755
      px      :     0.016565
      py      :     0.028318
 11 H s       :     0.577624  s :     0.577624
      pz      :     0.024289  p :     0.050732
      px      :     0.014354
      py      :     0.012090
 12 O s       :     3.796583  s :     3.796583
      pz      :     1.611049  p :     4.900888
      px      :     1.448469
      py      :     1.841370
      dz2     :     0.015746  d :     0.051170
      dxz     :     0.007891
      dyz     :     0.007803
      dx2y2   :     0.009063
      dxy     :     0.010668
      f0      :     0.000555  f :     0.003989
      f+1     :     0.000806
      f-1     :     0.000493
      f+2     :     0.000437
      f-2     :     0.000404
      f+3     :     0.000480
      f-3     :     0.000813
 13 H s       :     0.539568  s :     0.539568
      pz      :     0.025783  p :     0.049932
      px      :     0.011268
      py      :     0.012881
 14 H s       :     0.610890  s :     0.610890
      pz      :     0.010398  p :     0.043808
      px      :     0.018352
      py      :     0.015058
 15 O s       :     3.787111  s :     3.787111
      pz      :     1.562172  p :     4.917777
      px      :     1.583608
      py      :     1.771997
      dz2     :     0.016994  d :     0.051623
      dxz     :     0.006735
      dyz     :     0.007865
      dx2y2   :     0.008020
      dxy     :     0.012009
      f0      :     0.000615  f :     0.003951
      f+1     :     0.000749
      f-1     :     0.000527
      f+2     :     0.000415
      f-2     :     0.000423
      f+3     :     0.000423
      f-3     :     0.000799
 16 H s       :     0.551804  s :     0.551804
      pz      :     0.024698  p :     0.049204
      px      :     0.011704
      py      :     0.012802
 17 H s       :     0.562053  s :     0.562053
      pz      :     0.010483  p :     0.051154
      px      :     0.024561
      py      :     0.016110
 18 O s       :     3.801060  s :     3.801060
      pz      :     1.722460  p :     4.922094
      px      :     1.772110
      py      :     1.427524
      dz2     :     0.009446  d :     0.050122
      dxz     :     0.010609
      dyz     :     0.010186
      dx2y2   :     0.007901
      dxy     :     0.011981
      f0      :     0.000458  f :     0.003999
      f+1     :     0.000540
      f-1     :     0.000696
      f+2     :     0.000432
      f-2     :     0.000721
      f+3     :     0.000695
      f-3     :     0.000458
 19 H s       :     0.602808  s :     0.602808
      pz      :     0.017564  p :     0.047217
      px      :     0.015530
      py      :     0.014124
 20 H s       :     0.538855  s :     0.538855
      pz      :     0.011166  p :     0.057960
      px      :     0.013829
      py      :     0.032965
 21 O s       :     3.795422  s :     3.795422
      pz      :     1.513603  p :     4.847260
      px      :     1.779058
      py      :     1.554599
      dz2     :     0.017663  d :     0.053016
      dxz     :     0.008052
      dyz     :     0.006637
      dx2y2   :     0.008127
      dxy     :     0.012538
      f0      :     0.000630  f :     0.004034
      f+1     :     0.000539
      f-1     :     0.000759
      f+2     :     0.000413
      f-2     :     0.000423
      f+3     :     0.000843
      f-3     :     0.000428
 22 H s       :     0.594066  s :     0.594066
      pz      :     0.019434  p :     0.045512
      px      :     0.013584
      py      :     0.012493
 23 H s       :     0.576457  s :     0.576457
      pz      :     0.010758  p :     0.044629
      px      :     0.015104
      py      :     0.018767


                     *******************************
                     * LOEWDIN POPULATION ANALYSIS *
                     *******************************

----------------------
LOEWDIN ATOMIC CHARGES
----------------------
   0 O :   -0.338246
   1 H :    0.154279
   2 H :    0.150553
   3 O :   -0.323063
   4 H :    0.155295
   5 H :    0.154380
   6 O :   -0.290036
   7 H :    0.169553
   8 H :    0.160881
   9 O :   -0.373870
  10 H :    0.141635
  11 H :    0.145436
  12 O :   -0.292361
  13 H :    0.163661
  14 H :    0.166929
  15 O :   -0.296608
  16 H :    0.158917
  17 H :    0.154413
  18 O :   -0.349114
  19 H :    0.154626
  20 H :    0.152630
  21 O :   -0.271675
  22 H :    0.170174
  23 H :    0.181607

-------------------------------
LOEWDIN REDUCED ORBITAL CHARGES
-------------------------------
  0 O s       :     3.457327  s :     3.457327
      pz      :     1.663986  p :     4.818106
      px      :     1.384315
      py      :     1.769804
      dz2     :     0.010301  d :     0.058049
      dxz     :     0.012311
      dyz     :     0.011466
      dx2y2   :     0.008913
      dxy     :     0.015058
      f0      :     0.000464  f :     0.004764
      f+1     :     0.000841
      f-1     :     0.000647
      f+2     :     0.000411
      f-2     :     0.001024
      f+3     :     0.000472
      f-3     :     0.000906
  1 H s       :     0.677844  s :     0.677844
      pz      :     0.066898  p :     0.167877
      px      :     0.046637
      py      :     0.054342
  2 H s       :     0.652434  s :     0.652434
      pz      :     0.034378  p :     0.197013
      px      :     0.114077
      py      :     0.048558
  3 O s       :     3.451642  s :     3.451642
      pz      :     1.672738  p :     4.809001
      px      :     1.736094
      py      :     1.400169
      dz2     :     0.010600  d :     0.057676
      dxz     :     0.011089
      dyz     :     0.012574
      dx2y2   :     0.009345
      dxy     :     0.014067
      f0      :     0.000474  f :     0.004743
      f+1     :     0.000644
      f-1     :     0.000846
      f+2     :     0.000411
      f-2     :     0.001023
      f+3     :     0.000871
      f-3     :     0.000474
  4 H s       :     0.676021  s :     0.676021
      pz      :     0.067513  p :     0.168684
      px      :     0.053941
      py      :     0.047229
  5 H s       :     0.643747  s :     0.643747
      pz      :     0.034041  p :     0.201873
      px      :     0.048426
      py      :     0.119406
  6 O s       :     3.447743  s :     3.447743
      pz      :     1.508017  p :     4.778135
      px      :     1.550982
      py      :     1.719135
      dz2     :     0.021820  d :     0.059287
      dxz     :     0.007489
      dyz     :     0.007340
      dx2y2   :     0.008929
      dxy     :     0.013709
      f0      :     0.000886  f :     0.004872
      f+1     :     0.000994
      f-1     :     0.000727
      f+2     :     0.000389
      f-2     :     0.000427
      f+3     :     0.000408
      f-3     :     0.001039
  7 H s       :     0.668146  s :     0.668146
      pz      :     0.082248  p :     0.162301
      px      :     0.037448
      py      :     0.042605
  8 H s       :     0.660378  s :     0.660378
      pz      :     0.030021  p :     0.178741
      px      :     0.089740
      py      :     0.058980
  9 O s       :     3.460763  s :     3.460763
      pz      :     1.557217  p :     4.850670
      px      :     1.826042
      py      :     1.467411
      dz2     :     0.019630  d :     0.057700
      dxz     :     0.007068
      dyz     :     0.009410
      dx2y2   :     0.009719
      dxy     :     0.011873
      f0      :     0.000766  f :     0.004737
      f+1     :     0.000576
      f-1     :     0.001146
      f+2     :     0.000414
      f-2     :     0.000416
      f+3     :     0.000975
      f-3     :     0.000445
 10 H s       :     0.671724  s :     0.671724
      pz      :     0.031644  p :     0.186641
      px      :     0.053486
      py      :     0.101512
 11 H s       :     0.678772  s :     0.678772
      pz      :     0.093489  p :     0.175793
      px      :     0.044193
      py      :     0.038111
 12 O s       :     3.452467  s :     3.452467
      pz      :     1.558271  p :     4.775444
      px      :     1.440346
      py      :     1.776827
      dz2     :     0.019943  d :     0.059635
      dxz     :     0.008893
      dyz     :     0.006912
      dx2y2   :     0.011210
      dxy     :     0.012677
      f0      :     0.000744  f :     0.004814
      f+1     :     0.001135
      f-1     :     0.000597
      f+2     :     0.000410
      f-2     :     0.000416
      f+3     :     0.000456
      f-3     :     0.001055
 13 H s       :     0.659013  s :     0.659013
      pz      :     0.098339  p :     0.177326
      px      :     0.036185
      py      :     0.042802
 14 H s       :     0.675298  s :     0.675298
      pz      :     0.031775  p :     0.157772
      px      :     0.075500
      py      :     0.050497
 15 O s       :     3.441930  s :     3.441930
      pz      :     1.532490  p :     4.791623
      px      :     1.545032
      py      :     1.714101
      dz2     :     0.020682  d :     0.058255
      dxz     :     0.007302
      dyz     :     0.007268
      dx2y2   :     0.009039
      dxy     :     0.013964
      f0      :     0.000843  f :     0.004801
      f+1     :     0.000964
      f-1     :     0.000719
      f+2     :     0.000389
      f-2     :     0.000426
      f+3     :     0.000407
      f-3     :     0.001052
 16 H s       :     0.665871  s :     0.665871
      pz      :     0.095041  p :     0.175212
      px      :     0.037820
      py      :     0.042351
 17 H s       :     0.666442  s :     0.666442
      pz      :     0.031639  p :     0.179145
      px      :     0.088630
      py      :     0.058876
 18 O s       :     3.456527  s :     3.456527
      pz      :     1.700352  p :     4.830755
      px      :     1.734392
      py      :     1.396011
      dz2     :     0.009879  d :     0.057099
      dxz     :     0.011041
      dyz     :     0.012576
      dx2y2   :     0.009402
      dxy     :     0.014201
      f0      :     0.000452  f :     0.004734
      f+1     :     0.000645
      f-1     :     0.000849
      f+2     :     0.000410
      f-2     :     0.001027
      f+3     :     0.000876
      f-3     :     0.000473
 19 H s       :     0.677273  s :     0.677273
      pz      :     0.067054  p :     0.168101
      px      :     0.053983
      py      :     0.047064
 20 H s       :     0.647302  s :     0.647302
      pz      :     0.034064  p :     0.200068
      px      :     0.048487
      py      :     0.117517
 21 O s       :     3.455022  s :     3.455022
      pz      :     1.506311  p :     4.750075
      px      :     1.717329
      py      :     1.526435
      dz2     :     0.022692  d :     0.061605
      dxz     :     0.007480
      dyz     :     0.007331
      dx2y2   :     0.009234
      dxy     :     0.014869
      f0      :     0.000884  f :     0.004973
      f+1     :     0.000743
      f-1     :     0.001008
      f+2     :     0.000389
      f-2     :     0.000422
      f+3     :     0.001121
      f-3     :     0.000407
 22 H s       :     0.668019  s :     0.668019
      pz      :     0.082610  p :     0.161806
      px      :     0.042707
      py      :     0.036490
 23 H s       :     0.657740  s :     0.657740
      pz      :     0.030214  p :     0.160653
      px      :     0.055844
      py      :     0.074596


                      *****************************
                      * MAYER POPULATION ANALYSIS *
                      *****************************

  NA   - Mulliken gross atomic population
[...]
      f-1     :     0.000680
      f+2     :     0.000431
      f-2     :     0.000701
      f+3     :     0.000676
      f-3     :     0.000456
 19 H s       :     0.608717  s :     0.608717
      pz      :     0.017651  p :     0.047961
      px      :     0.016166
      py      :     0.014144
 20 H s       :     0.562687  s :     0.562687
      pz      :     0.011860  p :     0.058128
      px      :     0.014291
      py      :     0.031977
 21 O s       :     3.797884  s :     3.797884
      pz      :     1.509316  p :     4.824335
      px      :     1.764008
      py      :     1.551010
      dz2     :     0.016307  d :     0.050910
      dxz     :     0.008041
      dyz     :     0.006583
      dx2y2   :     0.008092
      dxy     :     0.011887
      f0      :     0.000611  f :     0.003957
      f+1     :     0.000529
      f-1     :     0.000737
      f+2     :     0.000413
      f-2     :     0.000421
      f+3     :     0.000818
      f-3     :     0.000428
 22 H s       :     0.599153  s :     0.599153
      pz      :     0.018681  p :     0.046139
      px      :     0.014445
      py      :     0.013013
 23 H s       :     0.582039  s :     0.582039
      pz      :     0.011377  p :     0.045145
      px      :     0.015524
      py      :     0.018245


                     *******************************
                     * LOEWDIN POPULATION ANALYSIS *
                     *******************************

----------------------
LOEWDIN ATOMIC CHARGES
----------------------
   0 O :   -0.334988
   1 H :    0.156327
   2 H :    0.143673
   3 O :   -0.315867
   4 H :    0.157049
   5 H :    0.146042
   6 O :   -0.283633
   7 H :    0.170932
   8 H :    0.155098
   9 O :   -0.373783
  10 H :    0.135567
  11 H :    0.141305
  12 O :   -0.284442
  13 H :    0.158374
  14 H :    0.167366
  15 O :   -0.288078
  16 H :    0.155509
  17 H :    0.149378
  18 O :   -0.345728
  19 H :    0.156527
  20 H :    0.144700
  21 O :   -0.266435
  22 H :    0.171815
  23 H :    0.183290

-------------------------------
LOEWDIN REDUCED ORBITAL CHARGES
-------------------------------
  0 O s       :     3.458822  s :     3.458822
      pz      :     1.658094  p :     4.813992
      px      :     1.387745
      py      :     1.768153
      dz2     :     0.010332  d :     0.057373
      dxz     :     0.011965
      dyz     :     0.011396
      dx2y2   :     0.008911
      dxy     :     0.014769
      f0      :     0.000467  f :     0.004801
      f+1     :     0.000852
      f-1     :     0.000649
      f+2     :     0.000412
      f-2     :     0.001025
      f+3     :     0.000476
      f-3     :     0.000921
  1 H s       :     0.675761  s :     0.675761
      pz      :     0.066778  p :     0.167912
      px      :     0.046170
      py      :     0.054964
  2 H s       :     0.659037  s :     0.659037
      pz      :     0.034950  p :     0.197290
      px      :     0.113175
      py      :     0.049164
  3 O s       :     3.453257  s :     3.453257
      pz      :     1.667986  p :     4.800509
      px      :     1.728428
      py      :     1.404094
      dz2     :     0.010712  d :     0.057317
      dxz     :     0.011061
      dyz     :     0.012246
      dx2y2   :     0.009404
      dxy     :     0.013894
      f0      :     0.000477  f :     0.004784
      f+1     :     0.000646
      f-1     :     0.000857
      f+2     :     0.000412
      f-2     :     0.001025
      f+3     :     0.000887
      f-3     :     0.000479
  4 H s       :     0.674279  s :     0.674279
      pz      :     0.067563  p :     0.168672
      px      :     0.054255
      py      :     0.046854
  5 H s       :     0.651915  s :     0.651915
      pz      :     0.034602  p :     0.202043
      px      :     0.048761
      py      :     0.118680
  6 O s       :     3.448422  s :     3.448422
      pz      :     1.510347  p :     4.771799
      px      :     1.553059
      py      :     1.708393
      dz2     :     0.021186  d :     0.058518
      dxz     :     0.007358
      dyz     :     0.007368
      dx2y2   :     0.009025
      dxy     :     0.013581
      f0      :     0.000885  f :     0.004894
      f+1     :     0.001002
      f-1     :     0.000728
      f+2     :     0.000391
      f-2     :     0.000427
      f+3     :     0.000410
      f-3     :     0.001050
  7 H s       :     0.666808  s :     0.666808
      pz      :     0.081358  p :     0.162260
      px      :     0.037746
      py      :     0.043156
  8 H s       :     0.665797  s :     0.665797
      pz      :     0.030369  p :     0.179105
      px      :     0.089417
      py      :     0.059319
  9 O s       :     3.461568  s :     3.461568
      pz      :     1.558173  p :     4.850522
      px      :     1.822904
      py      :     1.469445
      dz2     :     0.019202  d :     0.056924
      dxz     :     0.007130
      dyz     :     0.009215
      dx2y2   :     0.009638
      dxy     :     0.011739
      f0      :     0.000767  f :     0.004769
      f+1     :     0.000576
      f-1     :     0.001159
      f+2     :     0.000417
      f-2     :     0.000415
      f+3     :     0.000988
      f-3     :     0.000448
 10 H s       :     0.676983  s :     0.676983
      pz      :     0.032278  p :     0.187450
      px      :     0.054157
      py      :     0.101015
 11 H s       :     0.682324  s :     0.682324
      pz      :     0.092956  p :     0.176371
      px      :     0.045072
      py      :     0.038343
 12 O s       :     3.453548  s :     3.453548
      pz      :     1.556617  p :     4.767177
      px      :     1.443102
      py      :     1.767457
      dz2     :     0.019655  d :     0.058879
      dxz     :     0.008720
      dyz     :     0.006994
      dx2y2   :     0.011074
      dxy     :     0.012436
      f0      :     0.000748  f :     0.004838
      f+1     :     0.001143
      f-1     :     0.000599
      f+2     :     0.000412
      f-2     :     0.000414
      f+3     :     0.000459
      f-3     :     0.001062
 13 H s       :     0.664132  s :     0.664132
      pz      :     0.097827  p :     0.177494
      px      :     0.036129
      py      :     0.043538
 14 H s       :     0.674515  s :     0.674515
      pz      :     0.032372  p :     0.158120
      px      :     0.074560
      py      :     0.051188
 15 O s       :     3.442105  s :     3.442105
      pz      :     1.534137  p :     4.783463
      px      :     1.546400
      py      :     1.702926
      dz2     :     0.020235  d :     0.057684
      dxz     :     0.007207
      dyz     :     0.007309
      dx2y2   :     0.009122
      dxy     :     0.013810
      f0      :     0.000846  f :     0.004825
      f+1     :     0.000972
      f-1     :     0.000721
      f+2     :     0.000390
      f-2     :     0.000426
      f+3     :     0.000409
      f-3     :     0.001061
 16 H s       :     0.669081  s :     0.669081
      pz      :     0.094275  p :     0.175410
      px      :     0.038268
      py      :     0.042867
 17 H s       :     0.670918  s :     0.670918
      pz      :     0.032105  p :     0.179704
      px      :     0.088414
      py      :     0.059185
 18 O s       :     3.457829  s :     3.457829
      pz      :     1.699970  p :     4.826616
      px      :     1.726561
      py      :     1.400085
      dz2     :     0.009856  d :     0.056512
      dxz     :     0.010972
      dyz     :     0.012230
      dx2y2   :     0.009442
      dxy     :     0.014012
      f0      :     0.000455  f :     0.004772
      f+1     :     0.000646
      f-1     :     0.000861
      f+2     :     0.000410
      f-2     :     0.001029
      f+3     :     0.000892
      f-3     :     0.000478
 19 H s       :     0.675393  s :     0.675393
      pz      :     0.067018  p :     0.168080
      px      :     0.054340
      py      :     0.046721
 20 H s       :     0.654984  s :     0.654984
      pz      :     0.034657  p :     0.200316
      px      :     0.048895
      py      :     0.116763
 21 O s       :     3.456434  s :     3.456434
      pz      :     1.508568  p :     4.744443
      px      :     1.707626
      py      :     1.528248
      dz2     :     0.021967  d :     0.060569
      dxz     :     0.007519
      dyz     :     0.007192
      dx2y2   :     0.009293
      dxy     :     0.014599
      f0      :     0.000882  f :     0.004989
      f+1     :     0.000743
      f-1     :     0.001014
      f+2     :     0.000391
      f-2     :     0.000421
      f+3     :     0.001128
      f-3     :     0.000409
 22 H s       :     0.666292  s :     0.666292
      pz      :     0.081787  p :     0.161892
      px      :     0.043439
      py      :     0.036666
 23 H s       :     0.656343  s :     0.656343
      pz      :     0.030487  p :     0.160367
      px      :     0.056163
      py      :     0.073716


                      *****************************
                      * MAYER POPULATION ANALYSIS *
                      *****************************

  NA   - Mulliken gross atomic population
  ZA   - Total nuclear charge
  QA   - Mulliken gross atomic charge
  VA   - Mayer's total valence
  BVA  - Mayer's bonded valence
  FA   - Mayer's free valence

  ATOM       NA         ZA         QA         VA         BVA        FA
  0 O      8.7303     8.0000    -0.7303     2.0448     1.6571     0.3877
  1 H      0.6592     1.0000     0.3408     0.9043     0.8575     0.0468
  2 H      0.6301     1.0000     0.3699     0.9089     0.8636     0.0453
  3 O      8.7552     8.0000    -0.7552     2.0332     1.6424     0.3909
  4 H      0.6534     1.0000     0.3466     0.9011     0.8544     0.0467
  5 H      0.6175     1.0000     0.3825     0.9098     0.8652     0.0446
  6 O      8.7098     8.0000    -0.7098     2.0845     1.7015     0.3830
  7 H      0.6459     1.0000     0.3541     0.8949     0.8485     0.0464
  8 H      0.6183     1.0000     0.3817     0.9084     0.8655     0.0429
  9 O      8.7415     8.0000    -0.7415     2.0339     1.6452     0.3887
 10 H      0.6523     1.0000     0.3477     0.9309     0.8842     0.0467
 11 H      0.6434     1.0000     0.3566     0.9152     0.8699     0.0454
 12 O      8.7227     8.0000    -0.7227     2.0896     1.7021     0.3875
 13 H      0.6083     1.0000     0.3917     0.8980     0.8562     0.0418
 14 H      0.6636     1.0000     0.3364     0.9175     0.8683     0.0493
 15 O      8.7257     8.0000    -0.7257     2.0777     1.6924     0.3853
 16 H      0.6138     1.0000     0.3862     0.8843     0.8411     0.0432
 17 H      0.6319     1.0000     0.3681     0.9184     0.8741     0.0442
 18 O      8.7500     8.0000    -0.7500     2.0254     1.6361     0.3894
 19 H      0.6567     1.0000     0.3433     0.9028     0.8561     0.0467
 20 H      0.6208     1.0000     0.3792     0.9097     0.8652     0.0445
 21 O      8.6771     8.0000    -0.6771     2.1137     1.7338     0.3799
 22 H      0.6453     1.0000     0.3547     0.8942     0.8479     0.0463
 23 H      0.6272     1.0000     0.3728     0.8784     0.8337     0.0447

  Mayer bond orders larger than 0.100000
B(  0-O ,  1-H ) :   0.8487 B(  0-O ,  2-H ) :   0.7702 B(  3-O ,  4-H ) :   0.8422 
B(  3-O ,  5-H ) :   0.7274 B(  5-H , 15-O ) :   0.1220 B(  6-O ,  7-H ) :   0.8380 
B(  6-O ,  8-H ) :   0.7833 B(  6-O , 20-H ) :   0.1125 B(  9-O , 10-H ) :   0.8121 
B(  9-O , 11-H ) :   0.8266 B( 12-O , 13-H ) :   0.7802 B( 12-O , 14-H ) :   0.8394 
B( 15-O , 16-H ) :   0.8043 B( 15-O , 17-H ) :   0.7938 B( 18-O , 19-H ) :   0.8474 
B( 18-O , 20-H ) :   0.7469 B( 21-O , 22-H ) :   0.8389 B( 21-O , 23-H ) :   0.8274 



----------------------------------
MP2 DERIVATIVE INTEGRAL GENERATION
----------------------------------


Input Wavefunction Amplitudes       ... 12h2o.su.etal.mol0,2,3,5,6,8,10,11-orca.engrad-mp2.def2tzvp.frozencore.mp2tsaa.tmp
Input Correlated Electron Density   ... 12h2o.su.etal.mol0,2,3,5,6,8,10,11-orca.engrad-mp2.def2tzvp.frozencore.pmp2re
Input Energy Weighted Density       ... 12h2o.su.etal.mol0,2,3,5,6,8,10,11-orca.engrad-mp2.def2tzvp.frozencore.wmp2.tmp
Input SCF Electron Density          ... 12h2o.su.etal.mol0,2,3,5,6,8,10,11-orca.engrad-mp2.def2tzvp.frozencore.scfp

One-Electron Terms    ...
                        ... One-Electron Terms done
Prescreening matrices              ... done

Batch handling in the gradient evaluation:
Memory available                      ... 8000.0 MB
Memory per occupied orbital in Q2     ...   28.9 MB
Memory per occupied orbital in Q3     ...    0.1 MB
Total memory requirement per |i>      ...   29.0 MB
Max. Number of orbitals possible      ...    275
Number of orbitals treated per batch  ...     32
Number of batches to be done          ...      1
Batch   0: i=    8 ...    39

---------------------------------------
MP2 TOTAL ENERGY:     -610.589735719 Eh
---------------------------------------

The final MP2 gradient
  0:   0.00742598  -0.00713336   0.00443921
  1:   0.00058226  -0.00010951  -0.00077261
  2:  -0.01635196   0.00665370  -0.00383953
  3:   0.00337900  -0.00216208   0.00381143
  4:  -0.00095121  -0.00010574   0.00115199
  5:  -0.00088423   0.00293648   0.00061213
  6:   0.00425645   0.00037757  -0.00905533
  7:  -0.00221499   0.00154067   0.00745526
  8:  -0.00450309   0.00337470  -0.00116281
  9:  -0.00199472  -0.00564596   0.00243691
 10:   0.00382097   0.01470084  -0.00047796
 11:   0.00216818  -0.00392106  -0.00470436
 12:   0.01663921  -0.01404393   0.00306700
 13:  -0.00008670   0.00215566  -0.00678563
 14:  -0.01688118   0.00666543   0.00235820
 15:  -0.00019661   0.00057928  -0.00155594
 16:  -0.00075121  -0.00003657   0.00100231
 17:   0.00181008  -0.00235977   0.00007921
 18:  -0.00191054   0.00602751  -0.00105401
 19:   0.00036236   0.00040605   0.00016139
 20:  -0.00129569  -0.00835399   0.00110541
 21:   0.00931897   0.00517070   0.00994006
 22:   0.00195932  -0.00028243  -0.00746066
 23:  -0.00370067  -0.00643418  -0.00075166

-----------------------------------
NORM OF THE MP2 GRADIENT:  0.048280
-----------------------------------

-------------------------   --------------------
FINAL SINGLE POINT ENERGY      -610.589735719262
-------------------------   --------------------


                            ***************************************
                            *     ORCA property calculations      *
                            ***************************************

                                    ---------------------
                                    Active property flags
                                    ---------------------
   (+) Dipole Moment


------------------------------------------------------------------------------
                       ORCA ELECTRIC PROPERTIES CALCULATION
------------------------------------------------------------------------------

Dipole Moment Calculation                       ... on
Quadrupole Moment Calculation                   ... off
Polarizability Calculation                      ... off
GBWName                                         ... 12h2o.su.etal.mol0,2,3,5,6,8,10,11-orca.engrad-mp2.def2tzvp.frozencore.gbw
Electron density file                           ... 12h2o.su.etal.mol0,2,3,5,6,8,10,11-orca.engrad-mp2.def2tzvp.frozencore.scfp
The origin for moment calculation is the CENTER OF MASS  = ( 0.854505,  0.448657 -1.337225)

-------------
DIPOLE MOMENT
-------------
                                X             Y             Z
Electronic contribution:     -0.03065       0.09815       0.27070
Nuclear contribution   :     -0.87509       1.13252       0.05351
                        -----------------------------------------
Total Dipole Moment    :     -0.90574       1.23067       0.32421
                        -----------------------------------------
Magnitude (a.u.)       :      1.56206
Magnitude (Debye)      :      3.97043



--------------------
Rotational spectrum 
--------------------
 
Rotational constants in cm-1:     0.036422     0.016198     0.014832 
Rotational constants in MHz :  1091.910960   485.590259   444.662996 

 Dipole components along the rotational axes: 
x,y,z [a.u.] :     0.498468     1.468024    -0.190924 
x,y,z [Debye]:     1.267005     3.731421    -0.485290 

 

                         *** MP2 UNRELAXED DENSITY ***

------------------------------------------------------------------------------
                       ORCA ELECTRIC PROPERTIES CALCULATION
------------------------------------------------------------------------------

Dipole Moment Calculation                       ... on
Quadrupole Moment Calculation                   ... off
Polarizability Calculation                      ... off
GBWName                                         ... 12h2o.su.etal.mol0,2,3,5,6,8,10,11-orca.engrad-mp2.def2tzvp.frozencore.gbw
Electron density file                           ... 12h2o.su.etal.mol0,2,3,5,6,8,10,11-orca.engrad-mp2.def2tzvp.frozencore.pmp2ur
The origin for moment calculation is the CENTER OF MASS  = ( 0.854505,  0.448657 -1.337225)

-------------
DIPOLE MOMENT
-------------
                                X             Y             Z
Electronic contribution:     -0.02330       0.08912       0.27509
Nuclear contribution   :     -0.87509       1.13252       0.05351
                        -----------------------------------------
Total Dipole Moment    :     -0.89838       1.22164       0.32860
                        -----------------------------------------
Magnitude (a.u.)       :      1.55160
Magnitude (Debye)      :      3.94387



--------------------
Rotational spectrum 
--------------------
 
Rotational constants in cm-1:     0.036422     0.016198     0.014832 
Rotational constants in MHz :  1091.910960   485.590259   444.662996 

 Dipole components along the rotational axes: 
x,y,z [a.u.] :     0.501378     1.456275    -0.188043 
x,y,z [Debye]:     1.274401     3.701557    -0.477967 

 

                           *** MP2 RELAXED DENSITY ***

------------------------------------------------------------------------------
                       ORCA ELECTRIC PROPERTIES CALCULATION
------------------------------------------------------------------------------

Dipole Moment Calculation                       ... on
Quadrupole Moment Calculation                   ... off
Polarizability Calculation                      ... off
GBWName                                         ... 12h2o.su.etal.mol0,2,3,5,6,8,10,11-orca.engrad-mp2.def2tzvp.frozencore.gbw
Electron density file                           ... 12h2o.su.etal.mol0,2,3,5,6,8,10,11-orca.engrad-mp2.def2tzvp.frozencore.pmp2re
The origin for moment calculation is the CENTER OF MASS  = ( 0.854505,  0.448657 -1.337225)

-------------
DIPOLE MOMENT
-------------
                                X             Y             Z
Electronic contribution:     -0.03283       0.09131       0.30144
Nuclear contribution   :     -0.87509       1.13252       0.05351
                        -----------------------------------------
Total Dipole Moment    :     -0.90792       1.22383       0.35495
                        -----------------------------------------
Magnitude (a.u.)       :      1.56463
Magnitude (Debye)      :      3.97698



--------------------
Rotational spectrum 
--------------------
 
Rotational constants in cm-1:     0.036422     0.016198     0.014832 
Rotational constants in MHz :  1091.910960   485.590259   444.662996 

 Dipole components along the rotational axes: 
x,y,z [a.u.] :     0.525766     1.463119    -0.175853 
x,y,z [Debye]:     1.336391     3.718954    -0.446982 

 

Timings for individual modules:

Sum of individual times         ...      184.855 sec (=   3.081 min)
GTO integral calculation        ...        0.969 sec (=   0.016 min)   0.5 %
SCF iterations                  ...       26.653 sec (=   0.444 min)  14.4 %
MP2 module                      ...      157.233 sec (=   2.621 min)  85.1 %
                             ****ORCA TERMINATED NORMALLY****
TOTAL RUN TIME: 0 days 0 hours 3 minutes 5 seconds 880 msec
