13
Energy:   -567.31334074
O    0.56981066  -1.79975967   0.66518061
H    0.86721233  -2.53011573   1.20773394
H   -0.33410520  -2.02029776   0.44038981
O   -0.72729967   0.70538593  -2.02976590
H   -0.91117234   1.58189547  -2.36763231
H   -0.60991621   0.16639210  -2.81203096
O   -1.13493349   0.11843560   0.59923926
H   -1.35136630   0.21628075  -0.32802285
H   -1.83428275   0.58273647   1.05920356
O    1.40780895   0.80460118   0.94293592
H    1.51027431   1.47475631   0.26719574
H    2.02881212   1.05616387   1.62653165
H    0.51454216  -0.29657020   0.71297869
