13
Energy:   -568.54944650
O    0.16506257   0.77158334   2.19176078
H    0.34477199   1.14792512   3.05333100
H    0.38349328  -0.15572193   2.28463064
O   -0.23670695  -1.40423461   0.18916105
H    0.37588858  -2.09963209   0.42870420
H   -1.05899113  -1.65282311   0.61139835
O    0.44605419  -0.34637136  -2.24113212
H    0.52876141  -1.29998512  -2.23764603
H    0.85985868  -0.07258462  -3.05969092
O   -0.49288225   1.32003129  -0.34530813
H   -0.93144202   2.16646982  -0.43155776
H   -0.26744965   1.26003730   0.58303055
H   -0.05834698   0.20202055  -1.03151732
