13
Energy:   -594.82248804
O   -0.98956614   0.19400735  -0.60008044
H   -1.73839992   0.37563436  -1.16796375
H   -1.20846190  -0.63345722  -0.17157271
O    0.67145839   2.23693988  -0.49845584
H    1.30493194   2.64891933  -1.08600672
H    0.17361038   2.96768382  -0.13186001
O    1.48056712  -0.17748130   0.18724236
H    1.31836416  -1.08408540   0.44799328
H    2.40356363  -0.02991946   0.39348200
O   -1.08548991  -2.09822030   0.83521102
H   -1.00418668  -3.00489848   0.53931187
H   -1.70013415  -2.13908050   1.56786015
H    0.37417629   0.74356783  -0.30864131
