
                                 *****************
                                 * O   R   C   A *
                                 *****************

           --- An Ab Initio, DFT and Semiempirical electronic structure package ---

                  #######################################################
                  #                        -***-                        #
                  #          Department of theory and spectroscopy      #
                  #               Directorship: Frank Neese             #
                  #        Max Planck Institute fuer Kohlenforschung    #
                  #                Kaiser Wilhelm Platz 1               #
                  #                 D-45470 Muelheim/Ruhr               #
                  #                      Germany                        #
                  #                                                     #
                  #                  All rights reserved                #
                  #                        -***-                        #
                  #######################################################


                         Program Version 4.2.0 -  RELEASE  -


 With contributions from (in alphabetic order):
   Daniel Aravena         : Magnetic Suceptibility
   Michael Atanasov       : Ab Initio Ligand Field Theory (pilot matlab implementation)
   Alexander A. Auer      : GIAO ZORA, VPT2
   Ute Becker             : Parallelization
   Giovanni Bistoni       : ED, misc. LED, open-shell LED, HFLED
   Martin Brehm           : Molecular dynamics
   Dmytro Bykov           : SCF Hessian
   Vijay G. Chilkuri      : MRCI spin determinant printing, contributions to CSF-ICE
   Dipayan Datta          : RHF DLPNO-CCSD density
   Achintya Kumar Dutta   : EOM-CC, STEOM-CC
   Dmitry Ganyushin       : Spin-Orbit,Spin-Spin,Magnetic field MRCI
   Miquel Garcia          : C-PCM Hessian, Gaussian charge scheme
   Yang Guo               : DLPNO-NEVPT2, CIM, IAO-localization
   Andreas Hansen         : Spin unrestricted coupled pair/coupled cluster methods
   Benjamin Helmich-Paris : CASSCF linear response (MC-RPA)
   Lee Huntington         : MR-EOM, pCC
   Robert Izsak           : Overlap fitted RIJCOSX, COSX-SCS-MP3, EOM
   Christian Kollmar      : KDIIS, OOCD, Brueckner-CCSD(T), CCSD density
   Simone Kossmann        : Meta GGA functionals, TD-DFT gradient, OOMP2, MP2 Hessian
   Martin Krupicka        : AUTO-CI
   Lucas Lang             : DCDCAS
   Dagmar Lenk            : GEPOL surface, SMD
   Dimitrios Liakos       : Extrapolation schemes; Compound Job, initial MDCI parallelization
   Dimitrios Manganas     : Further ROCIS development; embedding schemes
   Dimitrios Pantazis     : SARC Basis sets
   Taras Petrenko         : DFT Hessian,TD-DFT gradient, ASA, ECA, R-Raman, ABS, FL, XAS/XES, NRVS
   Peter Pinski           : DLPNO-MP2, DLPNO-MP2 Gradient
   Christoph Reimann      : Effective Core Potentials
   Marius Retegan         : Local ZFS, SOC
   Christoph Riplinger    : Optimizer, TS searches, QM/MM, DLPNO-CCSD(T), (RO)-DLPNO pert. Triples
   Tobias Risthaus        : Range-separated hybrids, TD-DFT gradient, RPA, STAB
   Michael Roemelt        : Original ROCIS implementation
   Masaaki Saitow         : Open-shell DLPNO-CCSD energy and density
   Barbara Sandhoefer     : DKH picture change effects
   Avijit Sen             : IP-ROCIS
   Kantharuban Sivalingam : CASSCF convergence, NEVPT2, FIC-MRCI
   Bernardo de Souza      : ESD, SOC TD-DFT
   Georgi Stoychev        : AutoAux, RI-MP2 NMR
   Willem Van den Heuvel  : Paramagnetic NMR
   Boris Wezisla          : Elementary symmetry handling
   Frank Wennmohs         : Technical directorship


 We gratefully acknowledge several colleagues who have allowed us to
 interface, adapt or use parts of their codes:
   Stefan Grimme, W. Hujo, H. Kruse,             : VdW corrections, initial TS optimization,
                  C. Bannwarth                     DFT functionals, gCP, sTDA/sTD-DF
   Ed Valeev, F. Pavosevic, A. Kumar             : LibInt (2-el integral package), F12 methods
   Garnet Chan, S. Sharma, J. Yang, R. Olivares  : DMRG
   Ulf Ekstrom                                   : XCFun DFT Library
   Mihaly Kallay                                 : mrcc  (arbitrary order and MRCC methods)
   Andreas Klamt, Michael Diedenhofen            : otool_cosmo (COSMO solvation model)
   Jiri Pittner, Ondrej Demel                    : Mk-CCSD
   Frank Weinhold                                : gennbo (NPA and NBO analysis)
   Christopher J. Cramer and Donald G. Truhlar   : smd solvation model
   Lars Goerigk                                  : TD-DFT with DH, B97 family of functionals
   V. Asgeirsson, H. Jonsson                     : NEB implementation
   FAccTs GmbH                                   : IRC, NEB, NEB-TS, Multilevel, MM, QM/MM, CI optimization
   S Lehtola, MJT Oliveira, MAL Marques          : LibXC Library


 Your calculation uses the libint2 library for the computation of 2-el integrals
 For citations please refer to: http://libint.valeyev.net

 Your ORCA version has been built with support for libXC version: 4.2.3
 For citations please refer to: https://tddft.org/programs/libxc/

 This ORCA versions uses:
   CBLAS   interface :  Fast vector & matrix operations
   LAPACKE interface :  Fast linear algebra routines
   SCALAPACK package :  Parallel linear algebra routines


----- Orbital basis set information -----
Your calculation utilizes the basis: def2-TZVP
   F. Weigend and R. Ahlrichs, Phys. Chem. Chem. Phys. 7, 3297 (2005).

================================================================================
                                        WARNINGS
                       Please study these warnings very carefully!
================================================================================


WARNING: The frozen-core approximation for MP2-gradient calculations is turned on by default.

INFO   : the flag for use of LIBINT has been found!

================================================================================
                                       INPUT FILE
================================================================================
NAME = 12mecn.remya.etal.2.mol4,5,7-orca.engrad-mp2.def2tzvp.frozencore.inp
|  1> # 12mecn.remya.etal.2.mol4,5,7
|  2> ! MP2 def2-TZVP EnGrad TightSCF
|  3> 
|  4> %pal
|  5>     nprocs 6
|  6> end
|  7> 
|  8> %maxcore 8000
|  9> 
| 10> %scf
| 11>     ConvForced true
| 12> end
| 13> 
| 14> *xyz 0 1
| 15> C  -1.509690000  -0.693960000  -1.610140000
| 16> H  -1.327010000  -1.692700000  -2.017370000
| 17> H  -0.742170000  -0.000650000  -1.964400000
| 18> H  -2.491920000  -0.334310000  -1.929350000
| 19> C  -1.473570000  -0.748120000  -0.167200000
| 20> N  -1.447490000  -0.793720000   0.998938000
| 21> C  -1.955700000   2.515080000   1.698463000
| 22> H  -2.923830000   2.883163000   2.049269000
| 23> H  -1.154850000   3.171830000   2.050990000
| 24> H  -1.790380000   1.506115000   2.087896000
| 25> C  -1.948230000   2.482156000   0.253672000
| 26> N  -1.937550000   2.462523000  -0.913150000
| 27> C   1.502241000   0.651296000   1.710523000
| 28> H   1.309219000   1.637164000   2.143202000
| 29> H   2.493408000   0.297996000   2.009069000
| 30> H   0.746597000  -0.059850000   2.055508000
| 31> C   1.447974000   0.738517000   0.269805000
| 32> N   1.405612000   0.808047000  -0.894380000
| 33> *
| 34> 
| 35>                          ****END OF INPUT****
================================================================================

                     *******************************
                     * Energy+Gradient Calculation *
                     *******************************

---------------------------------
CARTESIAN COORDINATES (ANGSTROEM)
---------------------------------
  C     -1.509690   -0.693960   -1.610140
  H     -1.327010   -1.692700   -2.017370
  H     -0.742170   -0.000650   -1.964400
  H     -2.491920   -0.334310   -1.929350
  C     -1.473570   -0.748120   -0.167200
  N     -1.447490   -0.793720    0.998938
  C     -1.955700    2.515080    1.698463
  H     -2.923830    2.883163    2.049269
  H     -1.154850    3.171830    2.050990
  H     -1.790380    1.506115    2.087896
  C     -1.948230    2.482156    0.253672
  N     -1.937550    2.462523   -0.913150
  C      1.502241    0.651296    1.710523
  H      1.309219    1.637164    2.143202
  H      2.493408    0.297996    2.009069
  H      0.746597   -0.059850    2.055508
  C      1.447974    0.738517    0.269805
  N      1.405612    0.808047   -0.894380

----------------------------
CARTESIAN COORDINATES (A.U.)
----------------------------
  NO LB      ZA    FRAG     MASS         X           Y           Z
   0 C     6.0000    0    12.011   -2.852901   -1.311394   -3.042724
   1 H     1.0000    0     1.008   -2.507685   -3.198739   -3.812277
   2 H     1.0000    0     1.008   -1.402498   -0.001228   -3.712178
   3 H     1.0000    0     1.008   -4.709046   -0.631754   -3.645943
   4 C     6.0000    0    12.011   -2.784644   -1.413742   -0.315962
   5 N     7.0000    0    14.007   -2.735360   -1.499913    1.887719
   6 C     6.0000    0    12.011   -3.695737    4.752812    3.209630
   7 H     1.0000    0     1.008   -5.525238    5.448388    3.872557
   8 H     1.0000    0     1.008   -2.182350    5.993890    3.875809
   9 H     1.0000    0     1.008   -3.383328    2.846145    3.945552
  10 C     6.0000    0    12.011   -3.681621    4.690595    0.479371
  11 N     7.0000    0    14.007   -3.661439    4.653494   -1.725603
  12 C     6.0000    0    12.011    2.838824    1.230771    3.232420
  13 H     1.0000    0     1.008    2.474065    3.093792    4.050065
  14 H     1.0000    0     1.008    4.711858    0.563131    3.796590
  15 H     1.0000    0     1.008    1.410864   -0.113100    3.884347
  16 C     6.0000    0    12.011    2.736274    1.395595    0.509858
  17 N     7.0000    0    14.007    2.656222    1.526988   -1.690133

--------------------------------
INTERNAL COORDINATES (ANGSTROEM)
--------------------------------
 C      0   0   0     0.000000000000     0.00000000     0.00000000
 H      1   0   0     1.093933198555     0.00000000     0.00000000
 H      1   2   0     1.093282147526   109.94454854     0.00000000
 H      1   2   3     1.093626499085   109.97255479   120.16233711
 C      1   2   3     1.444407769157   109.47980118   239.95736056
 N      5   1   2     1.167320590688   179.82285150   289.71491216
 C      6   5   1     3.419907903691    99.39402089   248.44521242
 H      7   6   5     1.093538129845   121.52307374   103.91225115
 H      7   6   5     1.094055104064   122.54200677   254.16099055
 H      7   6   5     1.094074556470    32.65924560   180.05469095
 C      7   6   5     1.445185394459    76.86189675   358.96481163
 N     11   7   6     1.167036030623   179.58931694   222.46268287
 C      6   5   1     3.360853675012   102.37599048   176.20143007
 H     13   6   5     1.093802689222   108.44532641   108.12217721
 H     13   6   5     1.093783628514   135.58124102   257.11437053
 H     13   6   5     1.093499491667    34.98317750   206.60063568
 C     13   6   5     1.444375562537    77.39648930     1.52261537
 N     17  13   6     1.167028566132   179.91347457   239.46838652

---------------------------
INTERNAL COORDINATES (A.U.)
---------------------------
 C      0   0   0     0.000000000000     0.00000000     0.00000000
 H      1   0   0     2.067234154073     0.00000000     0.00000000
 H      1   2   0     2.066003845930   109.94454854     0.00000000
 H      1   2   3     2.066654576069   109.97255479   120.16233711
 C      1   2   3     2.729535109414   109.47980118   239.95736056
 N      5   1   2     2.205916226887   179.82285150   289.71491216
 C      6   5   1     6.462689341208    99.39402089   248.44521242
 H      7   6   5     2.066487582408   121.52307374   103.91225115
 H      7   6   5     2.067464522100   122.54200677   254.16099055
 H      7   6   5     2.067501281819    32.65924560   180.05469095
 C      7   6   5     2.731004608270    76.86189675   358.96481163
 N     11   7   6     2.205378486297   179.58931694   222.46268287
 C      6   5   1     6.351093021956   102.37599048   176.20143007
 H     13   6   5     2.066987527176   108.44532641   108.12217721
 H     13   6   5     2.066951507658   135.58124102   257.11437053
 H     13   6   5     2.066414566834    34.98317750   206.60063568
 C     13   6   5     2.729474247723    77.39648930     1.52261537
 N     17  13   6     2.205364380453   179.91347457   239.46838652

---------------------
BASIS SET INFORMATION
---------------------
There are 3 groups of distinct atoms

 Group   1 Type C   : 11s6p2d1f contracted to 5s3p2d1f pattern {62111/411/11/1}
 Group   2 Type H   : 5s1p contracted to 3s1p pattern {311/1}
 Group   3 Type N   : 11s6p2d1f contracted to 5s3p2d1f pattern {62111/411/11/1}

Atom   0C    basis set group =>   1
Atom   1H    basis set group =>   2
Atom   2H    basis set group =>   2
Atom   3H    basis set group =>   2
Atom   4C    basis set group =>   1
Atom   5N    basis set group =>   3
Atom   6C    basis set group =>   1
Atom   7H    basis set group =>   2
Atom   8H    basis set group =>   2
Atom   9H    basis set group =>   2
Atom  10C    basis set group =>   1
Atom  11N    basis set group =>   3
Atom  12C    basis set group =>   1
Atom  13H    basis set group =>   2
Atom  14H    basis set group =>   2
Atom  15H    basis set group =>   2
Atom  16C    basis set group =>   1
Atom  17N    basis set group =>   3


           ************************************************************
           *        Program running with 6 parallel MPI-processes     *
           *              working on a common directory               *
           ************************************************************
------------------------------------------------------------------------------
                           ORCA GTO INTEGRAL CALCULATION
------------------------------------------------------------------------------

                         BASIS SET STATISTICS AND STARTUP INFO

 # of primitive gaussian shells          ...  234
 # of primitive gaussian functions       ...  486
 # of contracted shells                  ...  135
 # of contracted basis functions         ...  333
 Highest angular momentum                ...    3
 Maximum contraction depth               ...    6
 Integral package used                   ... LIBINT
 Integral threshhold            Thresh   ...  2.500e-11
 Primitive cut-off              TCut     ...  2.500e-12


------------------------------ INTEGRAL EVALUATION ----------------------------


 * One electron integrals 
 Pre-screening matrix                    ... done
 Shell pair data                         ... done (   0.002 sec)



           ************************************************************
           *        Program running with 6 parallel MPI-processes     *
           *              working on a common directory               *
           ************************************************************
-------------------------------------------------------------------------------
                                 ORCA SCF
-------------------------------------------------------------------------------

------------
SCF SETTINGS
------------
Hamiltonian:
 Ab initio Hamiltonian  Method          .... Hartree-Fock(GTOs)


General Settings:
 Integral files         IntName         .... 12mecn.remya.etal.2.mol4,5,7-orca.engrad-mp2.def2tzvp.frozencore
 Hartree-Fock type      HFTyp           .... RHF
 Total Charge           Charge          ....    0
 Multiplicity           Mult            ....    1
 Number of Electrons    NEL             ....   66
 Basis Dimension        Dim             ....  333
 Nuclear Repulsion      ENuc            ....    376.2458208082 Eh

Convergence Acceleration:
 DIIS                   CNVDIIS         .... on
   Start iteration      DIISMaxIt       ....    12
   Startup error        DIISStart       ....  0.200000
   # of expansion vecs  DIISMaxEq       ....     5
   Bias factor          DIISBfac        ....   1.050
   Max. coefficient     DIISMaxC        ....  10.000
 Newton-Raphson         CNVNR           .... off
 SOSCF                  CNVSOSCF        .... on
   Start iteration      SOSCFMaxIt      ....   150
   Startup grad/error   SOSCFStart      ....  0.003300
 Level Shifting         CNVShift        .... on
   Level shift para.    LevelShift      ....    0.2500
   Turn off err/grad.   ShiftErr        ....    0.0010
 Zerner damping         CNVZerner       .... off
 Static damping         CNVDamp         .... on
   Fraction old density DampFac         ....    0.7000
   Max. Damping (<1)    DampMax         ....    0.9800
   Min. Damping (>=0)   DampMin         ....    0.0000
   Turn off err/grad.   DampErr         ....    0.1000
 Fernandez-Rico         CNVRico         .... off

SCF Procedure:
 Maximum # iterations   MaxIter         ....   125
 SCF integral mode      SCFMode         .... Direct
   Integral package                     .... LIBINT
 Reset frequency        DirectResetFreq ....    20
 Integral Threshold     Thresh          ....  2.500e-11 Eh
 Primitive CutOff       TCut            ....  2.500e-12 Eh

Convergence Tolerance:
 Convergence Check Mode ConvCheckMode   .... Total+1el-Energy
 Convergence forced     ConvForced      .... 1
 Energy Change          TolE            ....  1.000e-08 Eh
 1-El. energy change                    ....  1.000e-05 Eh
 Orbital Gradient       TolG            ....  1.000e-05
 Orbital Rotation angle TolX            ....  1.000e-05
 DIIS Error             TolErr          ....  5.000e-07


Diagonalization of the overlap matrix:
Smallest eigenvalue                        ... 1.423e-04
Time for diagonalization                   ...    0.016 sec
Threshold for overlap eigenvalues          ... 1.000e-08
Number of eigenvalues below threshold      ... 0
Time for construction of square roots      ...    0.008 sec
Total time needed                          ...    0.025 sec

-------------------
DFT GRID GENERATION
-------------------

General Integration Accuracy     IntAcc      ...  4.340
Radial Grid Type                 RadialGrid  ... Gauss-Chebyshev
Angular Grid (max. acc.)         AngularGrid ... Lebedev-110
Angular grid pruning method      GridPruning ... 3 (G Style)
Weight generation scheme         WeightScheme... Becke
Basis function cutoff            BFCut       ...    1.0000e-11
Integration weight cutoff        WCut        ...    1.0000e-14
Grids for H and He will be reduced by one unit

# of grid points (after initial pruning)     ...  22188 (   0.0 sec)
# of grid points (after weights+screening)   ...  20564 (   0.0 sec)
nearest neighbour list constructed           ...    0.0 sec
Grid point re-assignment to atoms done       ...    0.0 sec
Grid point division into batches done        ...    0.0 sec
Reduced shell lists constructed in    0.0 sec

Total number of grid points                  ...    20564
Total number of batches                      ...      331
Average number of points per batch           ...       62
Average number of grid points per atom       ...     1142
Average number of shells per batch           ...    74.77 (55.39%)
Average number of basis functions per batch  ...   183.23 (55.02%)
Average number of large shells per batch     ...    55.12 (73.72%)
Average number of large basis fcns per batch ...   131.05 (71.52%)
Maximum spatial batch extension              ...  19.64, 16.44, 17.73 au
Average spatial batch extension              ...   0.72,  0.72,  0.74 au

Time for grid setup =    0.072 sec

------------------------------
INITIAL GUESS: MODEL POTENTIAL
------------------------------
Loading Hartree-Fock densities                     ... done
Calculating cut-offs                               ... done
Setting up the integral package                    ... done
Initializing the effective Hamiltonian             ... done
Starting the Coulomb interaction                   ... done (   0.0 sec)
Reading the grid                                   ... done
Mapping shells                                     ... done
Starting the XC term evaluation                    ... done (   0.1 sec)
Transforming the Hamiltonian                       ... done (   0.0 sec)
Diagonalizing the Hamiltonian                      ... done (   0.0 sec)
Back transforming the eigenvectors                 ... done (   0.0 sec)
Now organizing SCF variables                       ... done
                      ------------------
                      INITIAL GUESS DONE (   0.3 sec)
                      ------------------
--------------
SCF ITERATIONS
--------------
ITER       Energy         Delta-E        Max-DP      RMS-DP      [F,P]     Damp
               ***  Starting incremental Fock matrix formation  ***
  0   -395.4535958979   0.000000000000 0.03717257  0.00085595  0.2753283 0.7000
  1   -395.6224509556  -0.168855057767 0.02662030  0.00067617  0.1879131 0.7000
                               ***Turning on DIIS***
  2   -395.7219145779  -0.099463622239 0.01589350  0.00045767  0.1419517 0.7000
  3   -396.6886579404  -0.966743362528 0.01151286  0.00031125  0.1053889 0.7000
  4   -396.6305301264   0.058127814006 0.03066268  0.00076392  0.0742689 0.0000
  5   -395.9555180499   0.675012076466 0.00543421  0.00011092  0.0061303 0.0000
                      *** Initiating the SOSCF procedure ***
                           *** Shutting down DIIS ***
                      *** Re-Reading the Fockian *** 
                      *** Removing any level shift *** 
ITER      Energy       Delta-E        Grad      Rot      Max-DP    RMS-DP
  6   -395.93673129   0.0187867558  0.001109  0.001109  0.003725  0.000067
               *** Restarting incremental Fock matrix formation ***
  7   -395.92760929   0.0091220058  0.000521  0.000812  0.002470  0.000046
  8   -395.92762857  -0.0000192772  0.000245  0.000479  0.002133  0.000039
  9   -395.92763341  -0.0000048490  0.000114  0.000133  0.000665  0.000011
 10   -395.92763405  -0.0000006350  0.000019  0.000030  0.000101  0.000002
 11   -395.92763409  -0.0000000374  0.000014  0.000038  0.000039  0.000001
 12   -395.92763411  -0.0000000225  0.000006  0.000015  0.000039  0.000001
                  ***Gradient check signals convergence***
              ***Rediagonalizing the Fockian in SOSCF/NRSCF***

               *****************************************************
               *                     SUCCESS                       *
               *           SCF CONVERGED AFTER  13 CYCLES          *
               *****************************************************


----------------
TOTAL SCF ENERGY
----------------

Total Energy       :         -395.92763411 Eh          -10773.73865 eV

Components:
Nuclear Repulsion  :          376.24582081 Eh           10238.16928 eV
Electronic Energy  :         -772.17345492 Eh          -21011.90793 eV
One Electron Energy:        -1281.67043164 Eh          -34876.02551 eV
Two Electron Energy:          509.49697672 Eh           13864.11757 eV

Virial components:
Potential Energy   :         -791.10998384 Eh          -21527.19708 eV
Kinetic Energy     :          395.18234972 Eh           10753.45843 eV
Virial Ratio       :            2.00188593


---------------
SCF CONVERGENCE
---------------

  Last Energy change         ...   -3.9657e-09  Tolerance :   1.0000e-08
  Last MAX-Density change    ...    1.5199e-05  Tolerance :   1.0000e-07
  Last RMS-Density change    ...    2.6856e-07  Tolerance :   5.0000e-09
  Last Orbital Gradient      ...    2.2135e-06  Tolerance :   1.0000e-05
  Last Orbital Rotation      ...    6.1091e-06  Tolerance :   1.0000e-05

             **** THE GBW FILE WAS UPDATED (12mecn.remya.etal.2.mol4,5,7-orca.engrad-mp2.def2tzvp.frozencore.gbw) ****
             **** DENSITY FILE WAS UPDATED (12mecn.remya.etal.2.mol4,5,7-orca.engrad-mp2.def2tzvp.frozencore.scfp) ****
             **** ENERGY FILE WAS UPDATED (12mecn.remya.etal.2.mol4,5,7-orca.engrad-mp2.def2tzvp.frozencore.en.tmp) ****
             **** THE GBW FILE WAS UPDATED (12mecn.remya.etal.2.mol4,5,7-orca.engrad-mp2.def2tzvp.frozencore.gbw) ****
             **** DENSITY FILE WAS UPDATED (12mecn.remya.etal.2.mol4,5,7-orca.engrad-mp2.def2tzvp.frozencore.scfp) ****
----------------
ORBITAL ENERGIES
----------------

  NO   OCC          E(Eh)            E(eV) 
   0   2.0000     -15.570192      -423.6865 
   1   2.0000     -15.569910      -423.6788 
   2   2.0000     -15.568587      -423.6428 
   3   2.0000     -11.284751      -307.0737 
   4   2.0000     -11.280040      -306.9455 
   5   2.0000     -11.279422      -306.9287 
   6   2.0000     -11.277577      -306.8785 
   7   2.0000     -11.277222      -306.8688 
   8   2.0000     -11.261354      -306.4370 
   9   2.0000      -1.218328       -33.1524 
  10   2.0000      -1.212969       -33.0066 
  11   2.0000      -1.212013       -32.9805 
  12   2.0000      -1.040512       -28.3138 
  13   2.0000      -1.037854       -28.2414 
  14   2.0000      -1.027155       -27.9503 
  15   2.0000      -0.697044       -18.9675 
  16   2.0000      -0.693691       -18.8763 
  17   2.0000      -0.684556       -18.6277 
  18   2.0000      -0.635815       -17.3014 
  19   2.0000      -0.632219       -17.2036 
  20   2.0000      -0.626832       -17.0570 
  21   2.0000      -0.622358       -16.9352 
  22   2.0000      -0.612251       -16.6602 
  23   2.0000      -0.609520       -16.5859 
  24   2.0000      -0.559142       -15.2150 
  25   2.0000      -0.554206       -15.0807 
  26   2.0000      -0.554149       -15.0792 
  27   2.0000      -0.464367       -12.6361 
  28   2.0000      -0.459994       -12.5171 
  29   2.0000      -0.458566       -12.4782 
  30   2.0000      -0.454076       -12.3560 
  31   2.0000      -0.452610       -12.3161 
  32   2.0000      -0.448898       -12.2151 
  33   0.0000       0.112017         3.0481 
  34   0.0000       0.148618         4.0441 
  35   0.0000       0.154165         4.1950 
  36   0.0000       0.159647         4.3442 
  37   0.0000       0.166757         4.5377 
  38   0.0000       0.178603         4.8600 
  39   0.0000       0.184865         5.0304 
  40   0.0000       0.192453         5.2369 
  41   0.0000       0.194127         5.2825 
  42   0.0000       0.204724         5.5708 
  43   0.0000       0.211136         5.7453 
  44   0.0000       0.218316         5.9407 
  45   0.0000       0.222288         6.0488 
  46   0.0000       0.242890         6.6094 
  47   0.0000       0.250374         6.8130 
  48   0.0000       0.256269         6.9734 
  49   0.0000       0.266493         7.2516 
  50   0.0000       0.282874         7.6974 
  51   0.0000       0.290168         7.8959 
  52   0.0000       0.301401         8.2015 
  53   0.0000       0.309552         8.4233 
  54   0.0000       0.319735         8.7004 
  55   0.0000       0.331741         9.0271 
  56   0.0000       0.340590         9.2679 
  57   0.0000       0.346604         9.4316 
  58   0.0000       0.376497        10.2450 
  59   0.0000       0.381794        10.3891 
  60   0.0000       0.399285        10.8651 
  61   0.0000       0.416514        11.3339 
  62   0.0000       0.455375        12.3914 
  63   0.0000       0.457220        12.4416 
  64   0.0000       0.464634        12.6433 
  65   0.0000       0.475146        12.9294 
  66   0.0000       0.491497        13.3743 
  67   0.0000       0.500885        13.6298 
  68   0.0000       0.513404        13.9704 
  69   0.0000       0.531412        14.4605 
  70   0.0000       0.537369        14.6225 
  71   0.0000       0.547261        14.8917 
  72   0.0000       0.553762        15.0686 
  73   0.0000       0.562168        15.2974 
  74   0.0000       0.571222        15.5437 
  75   0.0000       0.597425        16.2568 
  76   0.0000       0.601191        16.3592 
  77   0.0000       0.610717        16.6184 
  78   0.0000       0.627941        17.0871 
  79   0.0000       0.630902        17.1677 
  80   0.0000       0.634151        17.2561 
  81   0.0000       0.645520        17.5655 
  82   0.0000       0.652145        17.7458 
  83   0.0000       0.668750        18.1976 
  84   0.0000       0.683061        18.5870 
  85   0.0000       0.703439        19.1415 
  86   0.0000       0.717021        19.5111 
  87   0.0000       0.726031        19.7563 
  88   0.0000       0.739077        20.1113 
  89   0.0000       0.749481        20.3944 
  90   0.0000       0.760846        20.7037 
  91   0.0000       0.790600        21.5133 
  92   0.0000       0.797203        21.6930 
  93   0.0000       0.809895        22.0384 
  94   0.0000       0.824520        22.4363 
  95   0.0000       0.834474        22.7072 
  96   0.0000       0.850483        23.1428 
  97   0.0000       0.889715        24.2104 
  98   0.0000       0.902558        24.5599 
  99   0.0000       0.908952        24.7339 
 100   0.0000       0.924795        25.1650 
 101   0.0000       0.933025        25.3889 
 102   0.0000       0.951443        25.8901 
 103   0.0000       0.963173        26.2093 
 104   0.0000       0.978755        26.6333 
 105   0.0000       0.990317        26.9479 
 106   0.0000       1.031835        28.0777 
 107   0.0000       1.056913        28.7601 
 108   0.0000       1.075559        29.2674 
 109   0.0000       1.088792        29.6275 
 110   0.0000       1.114212        30.3193 
 111   0.0000       1.142295        31.0834 
 112   0.0000       1.157645        31.5011 
 113   0.0000       1.175332        31.9824 
 114   0.0000       1.186182        32.2776 
 115   0.0000       1.194129        32.4939 
 116   0.0000       1.229770        33.4637 
 117   0.0000       1.335105        36.3300 
 118   0.0000       1.336643        36.3719 
 119   0.0000       1.344439        36.5840 
 120   0.0000       1.387964        37.7684 
 121   0.0000       1.412737        38.4425 
 122   0.0000       1.421387        38.6779 
 123   0.0000       1.447223        39.3809 
 124   0.0000       1.449796        39.4510 
 125   0.0000       1.455284        39.6003 
 126   0.0000       1.459314        39.7100 
 127   0.0000       1.474055        40.1111 
 128   0.0000       1.483780        40.3757 
 129   0.0000       1.488846        40.5135 
 130   0.0000       1.491018        40.5727 
 131   0.0000       1.503364        40.9086 
 132   0.0000       1.522426        41.4273 
 133   0.0000       1.526602        41.5410 
 134   0.0000       1.532804        41.7097 
 135   0.0000       1.548938        42.1488 
 136   0.0000       1.603658        43.6377 
 137   0.0000       1.616292        43.9815 
 138   0.0000       1.724087        46.9148 
 139   0.0000       1.725860        46.9630 
 140   0.0000       1.735494        47.2252 
 141   0.0000       1.748055        47.5670 
 142   0.0000       1.754616        47.7455 
 143   0.0000       1.763603        47.9901 
 144   0.0000       1.774655        48.2908 
 145   0.0000       1.786867        48.6231 
 146   0.0000       1.797048        48.9002 
 147   0.0000       1.808129        49.2017 
 148   0.0000       1.816847        49.4389 
 149   0.0000       1.821109        49.5549 
 150   0.0000       1.847120        50.2627 
 151   0.0000       1.850848        50.3641 
 152   0.0000       1.859263        50.5931 
 153   0.0000       1.883291        51.2470 
 154   0.0000       1.928121        52.4668 
 155   0.0000       1.937176        52.7132 
 156   0.0000       1.948234        53.0141 
 157   0.0000       1.965232        53.4767 
 158   0.0000       1.968206        53.5576 
 159   0.0000       1.986268        54.0491 
 160   0.0000       1.991958        54.2039 
 161   0.0000       2.016523        54.8724 
 162   0.0000       2.022990        55.0483 
 163   0.0000       2.044751        55.6405 
 164   0.0000       2.061520        56.0968 
 165   0.0000       2.218812        60.3769 
 166   0.0000       2.238020        60.8996 
 167   0.0000       2.243816        61.0573 
 168   0.0000       2.251472        61.2657 
 169   0.0000       2.273447        61.8636 
 170   0.0000       2.278192        61.9927 
 171   0.0000       2.285878        62.2019 
 172   0.0000       2.304820        62.7173 
 173   0.0000       2.344653        63.8013 
 174   0.0000       2.402545        65.3766 
 175   0.0000       2.434955        66.2585 
 176   0.0000       2.448812        66.6356 
 177   0.0000       2.550958        69.4151 
 178   0.0000       2.557608        69.5961 
 179   0.0000       2.580899        70.2298 
 180   0.0000       2.582791        70.2813 
 181   0.0000       2.592819        70.5542 
 182   0.0000       2.602351        70.8136 
 183   0.0000       2.619124        71.2700 
 184   0.0000       2.628308        71.5199 
 185   0.0000       2.630831        71.5885 
 186   0.0000       2.645584        71.9900 
 187   0.0000       2.653197        72.1972 
 188   0.0000       2.669935        72.6526 
 189   0.0000       2.677995        72.8719 
 190   0.0000       2.697064        73.3908 
 191   0.0000       2.700154        73.4749 
 192   0.0000       2.722949        74.0952 
 193   0.0000       2.745220        74.7012 
 194   0.0000       2.755217        74.9733 
 195   0.0000       2.757028        75.0225 
 196   0.0000       2.774228        75.4906 
 197   0.0000       2.780709        75.6669 
 198   0.0000       2.789614        75.9093 
 199   0.0000       2.825702        76.8913 
 200   0.0000       2.861838        77.8746 
 201   0.0000       2.913725        79.2865 
 202   0.0000       2.917015        79.3760 
 203   0.0000       2.917077        79.3777 
 204   0.0000       2.918747        79.4231 
 205   0.0000       2.918951        79.4287 
 206   0.0000       2.929016        79.7026 
 207   0.0000       2.946672        80.1830 
 208   0.0000       2.957131        80.4676 
 209   0.0000       2.962451        80.6124 
 210   0.0000       2.968568        80.7788 
 211   0.0000       3.005312        81.7787 
 212   0.0000       3.007232        81.8309 
 213   0.0000       3.040235        82.7290 
 214   0.0000       3.055893        83.1551 
 215   0.0000       3.058420        83.2238 
 216   0.0000       3.097915        84.2986 
 217   0.0000       3.100145        84.3592 
 218   0.0000       3.108963        84.5992 
 219   0.0000       3.120909        84.9243 
 220   0.0000       3.127549        85.1049 
 221   0.0000       3.154496        85.8382 
 222   0.0000       3.218770        87.5872 
 223   0.0000       3.226183        87.7889 
 224   0.0000       3.247962        88.3815 
 225   0.0000       3.262573        88.7791 
 226   0.0000       3.268221        88.9328 
 227   0.0000       3.275852        89.1405 
 228   0.0000       3.310729        90.0895 
 229   0.0000       3.318548        90.3023 
 230   0.0000       3.327497        90.5458 
 231   0.0000       3.334177        90.7276 
 232   0.0000       3.363311        91.5203 
 233   0.0000       3.370035        91.7033 
 234   0.0000       3.393268        92.3355 
 235   0.0000       3.420970        93.0893 
 236   0.0000       3.445304        93.7515 
 237   0.0000       3.455115        94.0185 
 238   0.0000       3.463625        94.2500 
 239   0.0000       3.477342        94.6233 
 240   0.0000       3.488906        94.9380 
 241   0.0000       3.496508        95.1448 
 242   0.0000       3.546018        96.4920 
 243   0.0000       3.552735        96.6748 
 244   0.0000       3.584998        97.5528 
 245   0.0000       3.604618        98.0866 
 246   0.0000       3.655160        99.4620 
 247   0.0000       3.666739        99.7770 
 248   0.0000       3.672272        99.9276 
 249   0.0000       3.680880       100.1618 
 250   0.0000       3.684152       100.2509 
 251   0.0000       3.697929       100.6258 
 252   0.0000       3.804608       103.5286 
 253   0.0000       3.807391       103.6044 
 254   0.0000       3.815723       103.8311 
 255   0.0000       3.819964       103.9465 
 256   0.0000       3.834453       104.3408 
 257   0.0000       3.862389       105.1010 
 258   0.0000       3.939643       107.2031 
 259   0.0000       3.946438       107.3880 
 260   0.0000       3.951377       107.5224 
 261   0.0000       3.960714       107.7765 
 262   0.0000       3.968461       107.9873 
 263   0.0000       3.969442       108.0140 
 264   0.0000       3.979972       108.3006 
 265   0.0000       4.000565       108.8609 
 266   0.0000       4.018417       109.3467 
 267   0.0000       4.245023       115.5129 
 268   0.0000       4.252769       115.7237 
 269   0.0000       4.254944       115.7829 
 270   0.0000       4.271733       116.2398 
 271   0.0000       4.298762       116.9753 
 272   0.0000       4.310418       117.2924 
 273   0.0000       4.342622       118.1688 
 274   0.0000       4.344928       118.2315 
 275   0.0000       4.348072       118.3170 
 276   0.0000       4.349415       118.3536 
 277   0.0000       4.354427       118.4900 
 278   0.0000       4.358060       118.5888 
 279   0.0000       4.583100       124.7125 
 280   0.0000       4.588983       124.8726 
 281   0.0000       4.600106       125.1752 
 282   0.0000       4.741356       129.0189 
 283   0.0000       4.758653       129.4895 
 284   0.0000       4.772648       129.8704 
 285   0.0000       4.785228       130.2127 
 286   0.0000       4.792997       130.4241 
 287   0.0000       4.809486       130.8728 
 288   0.0000       4.853649       132.0745 
 289   0.0000       4.877078       132.7120 
 290   0.0000       4.882819       132.8683 
 291   0.0000       4.968876       135.2100 
 292   0.0000       4.972185       135.3000 
 293   0.0000       4.981236       135.5463 
 294   0.0000       4.989022       135.7582 
 295   0.0000       5.012330       136.3924 
 296   0.0000       5.020012       136.6015 
 297   0.0000       5.064722       137.8181 
 298   0.0000       5.076292       138.1329 
 299   0.0000       5.081296       138.2691 
 300   0.0000       5.087324       138.4331 
 301   0.0000       5.113843       139.1548 
 302   0.0000       5.125211       139.4641 
 303   0.0000       5.214013       141.8805 
 304   0.0000       5.240171       142.5923 
 305   0.0000       5.254103       142.9714 
 306   0.0000       5.559670       151.2863 
 307   0.0000       5.573882       151.6730 
 308   0.0000       5.578244       151.7917 
 309   0.0000       5.589239       152.0909 
 310   0.0000       5.610787       152.6773 
 311   0.0000       5.620279       152.9356 
 312   0.0000       6.024583       163.9372 
 313   0.0000       6.029567       164.0729 
 314   0.0000       6.038182       164.3073 
 315   0.0000       6.083189       165.5320 
 316   0.0000       6.090373       165.7275 
 317   0.0000       6.107715       166.1994 
 318   0.0000       6.117565       166.4674 
 319   0.0000       6.163954       167.7297 
 320   0.0000       6.194400       168.5582 
 321   0.0000       6.472854       176.1353 
 322   0.0000       6.481964       176.3832 
 323   0.0000       6.492844       176.6793 
 324   0.0000      23.487241       639.1203 
 325   0.0000      23.532037       640.3393 
 326   0.0000      23.536428       640.4588 
 327   0.0000      24.381119       663.4440 
 328   0.0000      24.416681       664.4117 
 329   0.0000      24.421345       664.5386 
 330   0.0000      33.469099       910.7405 
 331   0.0000      33.500900       911.6058 
 332   0.0000      33.510640       911.8709 

                    ********************************
                    * MULLIKEN POPULATION ANALYSIS *
                    ********************************

-----------------------
MULLIKEN ATOMIC CHARGES
-----------------------
   0 C :   -0.155659
   1 H :    0.150534
   2 H :    0.204711
   3 H :    0.153696
   4 C :   -0.036631
   5 N :   -0.316604
   6 C :   -0.191797
   7 H :    0.161024
   8 H :    0.144973
   9 H :    0.190676
  10 C :   -0.079888
  11 N :   -0.224676
  12 C :   -0.185374
  13 H :    0.138643
  14 H :    0.160792
  15 H :    0.194679
  16 C :   -0.073100
  17 N :   -0.235997
Sum of atomic charges:   -0.0000000

--------------------------------
MULLIKEN REDUCED ORBITAL CHARGES
--------------------------------
  0 C s       :     3.138936  s :     3.138936
      pz      :     0.762723  p :     2.952913
      px      :     1.106352
      py      :     1.083839
      dz2     :     0.017281  d :     0.060354
      dxz     :     0.009414
      dyz     :     0.010472
      dx2y2   :     0.012274
      dxy     :     0.010912
      f0      :     0.001730  f :     0.003456
      f+1     :     0.000189
      f-1     :     0.000183
      f+2     :     0.000054
      f-2     :     0.000064
      f+3     :     0.000355
      f-3     :     0.000881
  1 H s       :     0.827226  s :     0.827226
      pz      :     0.005209  p :     0.022240
      px      :     0.004047
      py      :     0.012984
  2 H s       :     0.771869  s :     0.771869
      pz      :     0.004581  p :     0.023420
      px      :     0.009984
      py      :     0.008855
  3 H s       :     0.823752  s :     0.823752
      pz      :     0.004517  p :     0.022552
      px      :     0.012853
      py      :     0.005182
  4 C s       :     3.268728  s :     3.268728
      pz      :     0.960135  p :     2.634047
      px      :     0.836103
      py      :     0.837809
      dz2     :     0.021831  d :     0.116469
      dxz     :     0.046417
      dyz     :     0.046841
      dx2y2   :     0.000669
      dxy     :     0.000711
      f0      :     0.004024  f :     0.017387
      f+1     :     0.006587
      f-1     :     0.006639
      f+2     :     0.000058
      f-2     :     0.000069
      f+3     :     0.000002
      f-3     :     0.000008
  5 N s       :     3.751114  s :     3.751114
      pz      :     1.269878  p :     3.510465
      px      :     1.118195
      py      :     1.122391
      dz2     :     0.010677  d :     0.052105
      dxz     :     0.020540
      dyz     :     0.020595
      dx2y2   :     0.000177
      dxy     :     0.000115
      f0      :     0.000621  f :     0.002921
      f+1     :     0.001144
      f-1     :     0.001141
      f+2     :     0.000007
      f-2     :     0.000006
      f+3     :     0.000000
      f-3     :     0.000002
  6 C s       :     3.157648  s :     3.157648
      pz      :     0.784951  p :     2.967910
      px      :     1.084325
      py      :     1.098634
      dz2     :     0.017916  d :     0.062755
      dxz     :     0.010740
      dyz     :     0.012018
      dx2y2   :     0.010605
      dxy     :     0.011477
      f0      :     0.001730  f :     0.003485
      f+1     :     0.000197
      f-1     :     0.000214
      f+2     :     0.000076
      f-2     :     0.000057
      f+3     :     0.000265
      f-3     :     0.000946
  7 H s       :     0.816584  s :     0.816584
      pz      :     0.004721  p :     0.022392
      px      :     0.012677
      py      :     0.004994
  8 H s       :     0.832844  s :     0.832844
      pz      :     0.004745  p :     0.022183
      px      :     0.009653
      py      :     0.007785
  9 H s       :     0.786343  s :     0.786343
      pz      :     0.004827  p :     0.022981
      px      :     0.003825
      py      :     0.014329
 10 C s       :     3.248016  s :     3.248016
      pz      :     0.953968  p :     2.698283
      px      :     0.879881
      py      :     0.864434
      dz2     :     0.026761  d :     0.116169
      dxz     :     0.043264
      dyz     :     0.045308
      dx2y2   :     0.000404
      dxy     :     0.000431
      f0      :     0.004093  f :     0.017420
      f+1     :     0.006574
      f-1     :     0.006676
      f+2     :     0.000026
      f-2     :     0.000046
      f+3     :     0.000001
      f-3     :     0.000004
 11 N s       :     3.730374  s :     3.730374
      pz      :     1.280818  p :     3.437126
      px      :     1.071682
      py      :     1.084626
      dz2     :     0.011406  d :     0.054235
      dxz     :     0.021363
      dyz     :     0.021397
      dx2y2   :     0.000046
      dxy     :     0.000023
      f0      :     0.000618  f :     0.002941
      f+1     :     0.001166
      f-1     :     0.001154
      f+2     :     0.000001
      f-2     :     0.000001
      f+3     :     0.000000
      f-3     :     0.000001
 12 C s       :     3.156590  s :     3.156590
      pz      :     0.782192  p :     2.963011
      px      :     1.102009
      py      :     1.078809
      dz2     :     0.017931  d :     0.062299
      dxz     :     0.010154
      dyz     :     0.011942
      dx2y2   :     0.010902
      dxy     :     0.011369
      f0      :     0.001677  f :     0.003474
      f+1     :     0.000217
      f-1     :     0.000228
      f+2     :     0.000072
      f-2     :     0.000059
      f+3     :     0.000399
      f-3     :     0.000823
 13 H s       :     0.839096  s :     0.839096
      pz      :     0.005429  p :     0.022261
      px      :     0.004054
      py      :     0.012777
 14 H s       :     0.816900  s :     0.816900
      pz      :     0.004366  p :     0.022308
      px      :     0.013026
      py      :     0.004916
 15 H s       :     0.782266  s :     0.782266
      pz      :     0.004505  p :     0.023056
      px      :     0.009814
      py      :     0.008737
 16 C s       :     3.247920  s :     3.247920
      pz      :     0.954144  p :     2.692786
      px      :     0.863174
      py      :     0.875469
      dz2     :     0.025651  d :     0.114949
      dxz     :     0.043638
      dyz     :     0.044397
      dx2y2   :     0.000461
      dxy     :     0.000802
      f0      :     0.004147  f :     0.017444
      f+1     :     0.006544
      f-1     :     0.006528
      f+2     :     0.000099
      f-2     :     0.000121
      f+3     :     0.000001
      f-3     :     0.000005
 17 N s       :     3.739037  s :     3.739037
      pz      :     1.275690  p :     3.440100
      px      :     1.086324
      py      :     1.078086
      dz2     :     0.011406  d :     0.053919
      dxz     :     0.021106
      dyz     :     0.021069
      dx2y2   :     0.000156
      dxy     :     0.000181
      f0      :     0.000633  f :     0.002941
      f+1     :     0.001140
      f-1     :     0.001137
      f+2     :     0.000015
      f-2     :     0.000015
      f+3     :     0.000000
      f-3     :     0.000001


                     *******************************
                     * LOEWDIN POPULATION ANALYSIS *
                     *******************************

----------------------
LOEWDIN ATOMIC CHARGES
----------------------
   0 C :   -0.243106
   1 H :    0.141571
   2 H :    0.154762
   3 H :    0.146977
   4 C :   -0.173186
   5 N :   -0.030654
   6 C :   -0.248150
   7 H :    0.144250
   8 H :    0.140160
   9 H :    0.147600
  10 C :   -0.192001
  11 N :    0.011448
  12 C :   -0.247754
  13 H :    0.139340
  14 H :    0.143768
  15 H :    0.149797
  16 C :   -0.191465
  17 N :    0.006642

-------------------------------
LOEWDIN REDUCED ORBITAL CHARGES
-------------------------------
  0 C s       :     2.814328  s :     2.814328
      pz      :     1.016138  p :     3.148952
      px      :     1.069361
      py      :     1.063452
      dz2     :     0.080777  d :     0.254813
      dxz     :     0.053010
      dyz     :     0.058909
      dx2y2   :     0.032688
      dxy     :     0.029428
      f0      :     0.007783  f :     0.025014
      f+1     :     0.005071
      f-1     :     0.004623
      f+2     :     0.002247
      f-2     :     0.001979
      f+3     :     0.000949
      f-3     :     0.002363
  1 H s       :     0.798102  s :     0.798102
      pz      :     0.013263  p :     0.060326
      px      :     0.013317
      py      :     0.033746
  2 H s       :     0.780910  s :     0.780910
      pz      :     0.012280  p :     0.064328
      px      :     0.027480
      py      :     0.024569
  3 H s       :     0.792036  s :     0.792036
      pz      :     0.011913  p :     0.060987
      px      :     0.033697
      py      :     0.015377
  4 C s       :     2.843383  s :     2.843383
      pz      :     1.198212  p :     2.802476
      px      :     0.802079
      py      :     0.802184
      dz2     :     0.154858  d :     0.467140
      dxz     :     0.154959
      dyz     :     0.154768
      dx2y2   :     0.001258
      dxy     :     0.001297
      f0      :     0.022708  f :     0.060187
      f+1     :     0.018471
      f-1     :     0.018701
      f+2     :     0.000128
      f-2     :     0.000159
      f+3     :     0.000005
      f-3     :     0.000017
  5 N s       :     3.302639  s :     3.302639
      pz      :     1.494958  p :     3.608699
      px      :     1.056229
      py      :     1.057512
      dz2     :     0.045201  d :     0.105434
      dxz     :     0.029936
      dyz     :     0.029950
      dx2y2   :     0.000227
      dxy     :     0.000120
      f0      :     0.006228  f :     0.013883
      f+1     :     0.003798
      f-1     :     0.003812
      f+2     :     0.000023
      f-2     :     0.000020
      f+3     :     0.000001
      f-3     :     0.000002
  6 C s       :     2.813135  s :     2.813135
      pz      :     1.025157  p :     3.149534
      px      :     1.057038
      py      :     1.067339
      dz2     :     0.078389  d :     0.260155
      dxz     :     0.059622
      dyz     :     0.061163
      dx2y2   :     0.028480
      dxy     :     0.032500
      f0      :     0.007490  f :     0.025326
      f+1     :     0.005272
      f-1     :     0.004930
      f+2     :     0.002257
      f-2     :     0.002104
      f+3     :     0.000714
      f-3     :     0.002560
  7 H s       :     0.795127  s :     0.795127
      pz      :     0.012452  p :     0.060622
      px      :     0.032792
      py      :     0.015379
  8 H s       :     0.799563  s :     0.799563
      pz      :     0.012444  p :     0.060277
      px      :     0.025951
      py      :     0.021881
  9 H s       :     0.788976  s :     0.788976
      pz      :     0.012895  p :     0.063424
      px      :     0.012594
      py      :     0.037935
 10 C s       :     2.839331  s :     2.839331
      pz      :     1.193283  p :     2.838841
      px      :     0.826970
      py      :     0.818588
      dz2     :     0.155507  d :     0.454568
      dxz     :     0.147452
      dyz     :     0.150291
      dx2y2   :     0.000664
      dxy     :     0.000653
      f0      :     0.023018  f :     0.059262
      f+1     :     0.017775
      f-1     :     0.018309
      f+2     :     0.000046
      f-2     :     0.000102
      f+3     :     0.000003
      f-3     :     0.000009
 11 N s       :     3.308162  s :     3.308162
      pz      :     1.494796  p :     3.555932
      px      :     1.029104
      py      :     1.032032
      dz2     :     0.045772  d :     0.110189
      dxz     :     0.032368
      dyz     :     0.031949
      dx2y2   :     0.000065
      dxy     :     0.000035
      f0      :     0.006240  f :     0.014269
      f+1     :     0.004049
      f-1     :     0.003970
      f+2     :     0.000005
      f-2     :     0.000004
      f+3     :     0.000000
      f-3     :     0.000001
 12 C s       :     2.813124  s :     2.813124
      pz      :     1.024848  p :     3.149143
      px      :     1.065730
      py      :     1.058564
      dz2     :     0.078534  d :     0.260092
      dxz     :     0.055237
      dyz     :     0.064685
      dx2y2   :     0.030260
      dxy     :     0.031377
      f0      :     0.007459  f :     0.025395
      f+1     :     0.005488
      f-1     :     0.004789
      f+2     :     0.002356
      f-2     :     0.001994
      f+3     :     0.001075
      f-3     :     0.002235
 13 H s       :     0.800440  s :     0.800440
      pz      :     0.013728  p :     0.060220
      px      :     0.013216
      py      :     0.033275
 14 H s       :     0.795709  s :     0.795709
      pz      :     0.011785  p :     0.060523
      px      :     0.033741
      py      :     0.014997
 15 H s       :     0.786526  s :     0.786526
      pz      :     0.012241  p :     0.063676
      px      :     0.026980
      py      :     0.024455
 16 C s       :     2.839100  s :     2.839100
      pz      :     1.192058  p :     2.836970
      px      :     0.819780
      py      :     0.825132
      dz2     :     0.155267  d :     0.456042
      dxz     :     0.149055
      dyz     :     0.149036
      dx2y2   :     0.000942
      dxy     :     0.001742
      f0      :     0.022850  f :     0.059353
      f+1     :     0.018002
      f-1     :     0.017941
      f+2     :     0.000244
      f-2     :     0.000302
      f+3     :     0.000003
      f-3     :     0.000012
 17 N s       :     3.307825  s :     3.307825
      pz      :     1.492814  p :     3.561379
      px      :     1.035419
      py      :     1.033145
      dz2     :     0.045518  d :     0.109905
      dxz     :     0.031863
      dyz     :     0.032040
      dx2y2   :     0.000247
      dxy     :     0.000237
      f0      :     0.006181  f :     0.014250
      f+1     :     0.003958
      f-1     :     0.004010
      f+2     :     0.000049
      f-2     :     0.000050
      f+3     :     0.000000
      f-3     :     0.000002


                      *****************************
                      * MAYER POPULATION ANALYSIS *
                      *****************************

  NA   - Mulliken gross atomic population
  ZA   - Total nuclear charge
  QA   - Mulliken gross atomic charge
  VA   - Mayer's total valence
  BVA  - Mayer's bonded valence
  FA   - Mayer's free valence

  ATOM       NA         ZA         QA         VA         BVA        FA
  0 C      6.1557     6.0000    -0.1557     3.7797     3.7797    -0.0000
  1 H      0.8495     1.0000     0.1505     0.9585     0.9585    -0.0000
  2 H      0.7953     1.0000     0.2047     0.9606     0.9606    -0.0000
  3 H      0.8463     1.0000     0.1537     0.9688     0.9688    -0.0000
  4 C      6.0366     6.0000    -0.0366     3.8623     3.8623    -0.0000
  5 N      7.3166     7.0000    -0.3166     2.9472     2.9472     0.0000
  6 C      6.1918     6.0000    -0.1918     3.7897     3.7897    -0.0000
  7 H      0.8390     1.0000     0.1610     0.9617     0.9617    -0.0000
  8 H      0.8550     1.0000     0.1450     0.9630     0.9630    -0.0000
  9 H      0.8093     1.0000     0.1907     0.9598     0.9598     0.0000
 10 C      6.0799     6.0000    -0.0799     3.8750     3.8750    -0.0000
 11 N      7.2247     7.0000    -0.2247     3.0059     3.0059     0.0000
 12 C      6.1854     6.0000    -0.1854     3.7912     3.7912    -0.0000
 13 H      0.8614     1.0000     0.1386     0.9638     0.9638    -0.0000
 14 H      0.8392     1.0000     0.1608     0.9603     0.9603    -0.0000
 15 H      0.8053     1.0000     0.1947     0.9611     0.9611    -0.0000
 16 C      6.0731     6.0000    -0.0731     3.8600     3.8600     0.0000
 17 N      7.2360     7.0000    -0.2360     2.9917     2.9917    -0.0000

  Mayer bond orders larger than 0.100000
B(  0-C ,  1-H ) :   0.9547 B(  0-C ,  2-H ) :   0.9469 B(  0-C ,  3-H ) :   0.9606 
B(  0-C ,  4-C ) :   0.9339 B(  4-C ,  5-N ) :   2.9082 B(  6-C ,  7-H ) :   0.9558 
B(  6-C ,  8-H ) :   0.9717 B(  6-C ,  9-H ) :   0.9560 B(  6-C , 10-C ) :   0.9183 
B( 10-C , 11-N ) :   2.9745 B( 12-C , 13-H ) :   0.9667 B( 12-C , 14-H ) :   0.9590 
B( 12-C , 15-H ) :   0.9570 B( 12-C , 16-C ) :   0.9185 B( 16-C , 17-N ) :   2.9592 


-------
TIMINGS
-------

Total SCF time: 0 days 0 hours 0 min 58 sec 

Total time                  ....      58.843 sec
Sum of individual times     ....      58.554 sec  ( 99.5%)

Fock matrix formation       ....      57.977 sec  ( 98.5%)
Diagonalization             ....       0.138 sec  (  0.2%)
Density matrix formation    ....       0.019 sec  (  0.0%)
Population analysis         ....       0.013 sec  (  0.0%)
Initial guess               ....       0.201 sec  (  0.3%)
Orbital Transformation      ....       0.000 sec  (  0.0%)
Orbital Orthonormalization  ....       0.000 sec  (  0.0%)
DIIS solution               ....       0.051 sec  (  0.1%)
SOSCF solution              ....       0.084 sec  (  0.1%)


           ************************************************************
           *        Program running with 6 parallel MPI-processes     *
           *              working on a common directory               *
           ************************************************************

------------------------------------------------------------------------------
                                ORCA  MP2 
------------------------------------------------------------------------------

Freezing NCore=18 chemical core electrons
MP2 will be done in the AO integral direct mode
The Q1-step will be done using symmetric double matrices
Dimension of the basis                    ...  333
Memory devoted for MP2                    ... 8000 MB   
Memory needed for all in one shot         ...  566 MB
Number of MOs that can be treated together...   55      
MP2 density construction                  ... relaxed
The MP2 gradient is requested => amplitudes will be stored on disk
Total number of MOs              ...   24
Number of MOs treated per batch  ...    4 
Number of batches necessary      ...    1 
OPERATORS   0/  0 PASS   0
-----------------------------------------------
 MP2 CORRELATION ENERGY   :     -1.538973849 Eh
-----------------------------------------------


---------------------
MP2 DENSITY FORMATION
---------------------

Completing the external part of the density      ... done
Storing the unrelaxed density                    ... done

Calculating G(D)                                 ... done
Completing the Lagrangian                        ... done
Solving the Z-vector equations                   ... 

------------------------------------------------------------------------------
                           ORCA CP-SCF CALCULATION
------------------------------------------------------------------------------

Input orbitals are from        ... 12mecn.remya.etal.2.mol4,5,7-orca.engrad-mp2.def2tzvp.frozencore.gbw
Input Perturbation             ... 12mecn.remya.etal.2.mol4,5,7-orca.engrad-mp2.def2tzvp.frozencore.pin.tmp
Wavefunction output            ... 12mecn.remya.etal.2.mol4,5,7-orca.engrad-mp2.def2tzvp.frozencore.pout.tmp
Perturbation mode              ... Real perturbation (singlet)
Solver                         ... POPLE
Max. number of iterations      ... 128
Convergence tolerance          ... 1.000e-08
Integral handling              ... Direct
Number of perturbations        ... 1
Number of operators            ... 1
Orbital ranges used for CP-SCF:
 Operator 0:  Orbitals   0... 32  to  33...332
Variables per vector in CP-SCF ... 9900
Number of vectors sought       ... 1
     CP-SCF ITERATION   0: 
     CP-SCF ITERATION   1:      0.001689307116
     CP-SCF ITERATION   2:      0.000262624108
     CP-SCF ITERATION   3:      0.000012407174
     CP-SCF ITERATION   4:      0.000004620221
     CP-SCF ITERATION   5:      0.000001453983
     CP-SCF ITERATION   6:      0.000000187080
     CP-SCF ITERATION   7:      0.000000017064
     CP-SCF ITERATION   8:      0.000000000749
                                                 ... done
Finalizing the relaxed density                   ... done
Transforming P to the AO basis                   ... done
Storing the relaxed density                      ... done

------------------------------------
ENERGY WEIGHTED DENSITY FINALIZATION
------------------------------------

Gathering the parts of the W-matrix              ...                                                      done
Forming the Z-density                            ... done
Transforming Z to the AO basis                   ... done
Calculating G(Z)                                 ... done
Finalizing the W-matrix                          ...                                                      done
Transforming W to the AO basis and storing       ... done

                *********************************************
                * UNRELAXED MP2 DENSITY POPULATION ANALYSIS *
                *********************************************

------------------------------------------------------------------------------
                           ORCA POPULATION ANALYSIS
------------------------------------------------------------------------------
Input electron density              ... 12mecn.remya.etal.2.mol4,5,7-orca.engrad-mp2.def2tzvp.frozencore.pmp2ur
BaseName (.gbw .S,...)              ... 12mecn.remya.etal.2.mol4,5,7-orca.engrad-mp2.def2tzvp.frozencore

                    ********************************
                    * MULLIKEN POPULATION ANALYSIS *
                    ********************************

-----------------------
MULLIKEN ATOMIC CHARGES
-----------------------
   0 C :   -0.168751
   1 H :    0.153370
   2 H :    0.206572
   3 H :    0.156552
   4 C :   -0.049333
   5 N :   -0.298780
   6 C :   -0.204693
   7 H :    0.163822
   8 H :    0.147757
   9 H :    0.192608
  10 C :   -0.089870
  11 N :   -0.209051
  12 C :   -0.198392
  13 H :    0.141407
  14 H :    0.163592
  15 H :    0.196760
  16 C :   -0.083138
  17 N :   -0.220432
Sum of atomic charges:   -0.0000000

--------------------------------
MULLIKEN REDUCED ORBITAL CHARGES
--------------------------------
  0 C s       :     3.137457  s :     3.137457
      pz      :     0.761790  p :     2.937597
      px      :     1.098698
      py      :     1.077109
      dz2     :     0.019756  d :     0.086372
      dxz     :     0.015619
      dyz     :     0.016581
      dx2y2   :     0.017907
      dxy     :     0.016509
      f0      :     0.002129  f :     0.007324
      f+1     :     0.000850
      f-1     :     0.000848
      f+2     :     0.000596
      f-2     :     0.000606
      f+3     :     0.000910
      f-3     :     0.001385
  1 H s       :     0.821537  s :     0.821537
      pz      :     0.006204  p :     0.025093
      px      :     0.005090
      py      :     0.013799
  2 H s       :     0.767350  s :     0.767350
      pz      :     0.005555  p :     0.026079
      px      :     0.010824
      py      :     0.009700
  3 H s       :     0.818084  s :     0.818084
      pz      :     0.005523  p :     0.025364
      px      :     0.013663
      py      :     0.006178
  4 C s       :     3.267710  s :     3.267710
      pz      :     0.951190  p :     2.629883
      px      :     0.838436
      py      :     0.840257
      dz2     :     0.024170  d :     0.131422
      dxz     :     0.048318
      dyz     :     0.048715
      dx2y2   :     0.005076
      dxy     :     0.005143
      f0      :     0.004493  f :     0.020318
      f+1     :     0.007013
      f-1     :     0.007060
      f+2     :     0.000613
      f-2     :     0.000626
      f+3     :     0.000254
      f-3     :     0.000260
  5 N s       :     3.738552  s :     3.738552
      pz      :     1.257552  p :     3.478984
      px      :     1.108701
      py      :     1.112730
      dz2     :     0.015092  d :     0.075567
      dxz     :     0.024908
      dyz     :     0.024941
      dx2y2   :     0.005348
      dxy     :     0.005278
      f0      :     0.001054  f :     0.005678
      f+1     :     0.001595
      f-1     :     0.001591
      f+2     :     0.000429
      f-2     :     0.000428
      f+3     :     0.000289
      f-3     :     0.000291
  6 C s       :     3.156018  s :     3.156018
      pz      :     0.783618  p :     2.952640
      px      :     1.077898
      py      :     1.091124
      dz2     :     0.020410  d :     0.088682
      dxz     :     0.016921
      dyz     :     0.018152
      dx2y2   :     0.016183
      dxy     :     0.017016
      f0      :     0.002127  f :     0.007353
      f+1     :     0.000863
      f-1     :     0.000884
      f+2     :     0.000616
      f-2     :     0.000599
      f+3     :     0.000825
      f-3     :     0.001438
  7 H s       :     0.810962  s :     0.810962
      pz      :     0.005723  p :     0.025216
      px      :     0.013482
      py      :     0.006010
  8 H s       :     0.827172  s :     0.827172
      pz      :     0.005762  p :     0.025072
      px      :     0.010565
      py      :     0.008744
  9 H s       :     0.781667  s :     0.781667
      pz      :     0.005814  p :     0.025725
      px      :     0.004860
      py      :     0.015050
 10 C s       :     3.247733  s :     3.247733
      pz      :     0.945013  p :     2.690027
      px      :     0.879823
      py      :     0.865191
      dz2     :     0.029141  d :     0.131731
      dxz     :     0.045354
      dyz     :     0.047316
      dx2y2   :     0.004932
      dxy     :     0.004988
      f0      :     0.004557  f :     0.020380
      f+1     :     0.007011
      f-1     :     0.007106
      f+2     :     0.000586
      f-2     :     0.000602
      f+3     :     0.000258
      f-3     :     0.000260
 11 N s       :     3.717427  s :     3.717427
      pz      :     1.268435  p :     3.409278
      px      :     1.064337
      py      :     1.076506
      dz2     :     0.015667  d :     0.076688
      dxz     :     0.025438
      dyz     :     0.025531
      dx2y2   :     0.005031
      dxy     :     0.005023
      f0      :     0.001047  f :     0.005658
      f+1     :     0.001611
      f-1     :     0.001599
      f+2     :     0.000419
      f-2     :     0.000419
      f+3     :     0.000281
      f-3     :     0.000281
 12 C s       :     3.154981  s :     3.154981
      pz      :     0.780886  p :     2.947864
      px      :     1.095104
      py      :     1.071874
      dz2     :     0.020450  d :     0.088200
      dxz     :     0.016384
      dyz     :     0.017958
      dx2y2   :     0.016504
      dxy     :     0.016903
      f0      :     0.002083  f :     0.007348
      f+1     :     0.000876
      f-1     :     0.000894
      f+2     :     0.000612
      f-2     :     0.000604
      f+3     :     0.000946
      f-3     :     0.001332
 13 H s       :     0.833440  s :     0.833440
      pz      :     0.006428  p :     0.025153
      px      :     0.005119
      py      :     0.013606
 14 H s       :     0.811268  s :     0.811268
      pz      :     0.005383  p :     0.025140
      px      :     0.013830
      py      :     0.005927
 15 H s       :     0.777462  s :     0.777462
      pz      :     0.005498  p :     0.025778
      px      :     0.010676
      py      :     0.009604
 16 C s       :     3.247420  s :     3.247420
      pz      :     0.945127  p :     2.684788
      px      :     0.864010
      py      :     0.875652
      dz2     :     0.028059  d :     0.130526
      dxz     :     0.045702
      dyz     :     0.046468
      dx2y2   :     0.004993
      dxy     :     0.005304
      f0      :     0.004612  f :     0.020404
      f+1     :     0.006977
      f-1     :     0.006964
      f+2     :     0.000652
      f-2     :     0.000676
      f+3     :     0.000259
      f-3     :     0.000263
 17 N s       :     3.726290  s :     3.726290
      pz      :     1.263294  p :     3.412007
      px      :     1.078241
      py      :     1.070472
      dz2     :     0.015680  d :     0.076475
      dxz     :     0.025268
      dyz     :     0.025181
      dx2y2   :     0.005163
      dxy     :     0.005182
      f0      :     0.001062  f :     0.005660
      f+1     :     0.001585
      f-1     :     0.001583
      f+2     :     0.000432
      f-2     :     0.000432
      f+3     :     0.000282
      f-3     :     0.000283


                     *******************************
                     * LOEWDIN POPULATION ANALYSIS *
                     *******************************

----------------------
LOEWDIN ATOMIC CHARGES
----------------------
   0 C :   -0.251177
   1 H :    0.143262
   2 H :    0.156351
   3 H :    0.148654
   4 C :   -0.180019
   5 N :   -0.020762
   6 C :   -0.256237
   7 H :    0.145957
   8 H :    0.141809
   9 H :    0.149142
  10 C :   -0.197661
  11 N :    0.020348
  12 C :   -0.255866
  13 H :    0.140990
  14 H :    0.145455
  15 H :    0.151355
  16 C :   -0.197182
  17 N :    0.015580

-------------------------------
LOEWDIN REDUCED ORBITAL CHARGES
-------------------------------
  0 C s       :     2.812573  s :     2.812573
      pz      :     1.007612  p :     3.123595
      px      :     1.060837
      py      :     1.055146
      dz2     :     0.085929  d :     0.283935
      dxz     :     0.059102
      dyz     :     0.064988
      dx2y2   :     0.038524
      dxy     :     0.035392
      f0      :     0.008897  f :     0.031075
      f+1     :     0.006148
      f-1     :     0.005693
      f+2     :     0.002919
      f-2     :     0.002648
      f+3     :     0.001635
      f-3     :     0.003134
  1 H s       :     0.791588  s :     0.791588
      pz      :     0.014713  p :     0.065150
      px      :     0.014537
      py      :     0.035900
  2 H s       :     0.774772  s :     0.774772
      pz      :     0.013663  p :     0.068878
      px      :     0.029122
      py      :     0.026093
  3 H s       :     0.785610  s :     0.785610
      pz      :     0.013292  p :     0.065736
      px      :     0.035769
      py      :     0.016675
  4 C s       :     2.839858  s :     2.839858
      pz      :     1.185576  p :     2.786918
      px      :     0.800600
      py      :     0.800742
      dz2     :     0.162077  d :     0.485488
      dxz     :     0.156029
      dyz     :     0.155870
      dx2y2   :     0.005749
      dxy     :     0.005762
      f0      :     0.024345  f :     0.067756
      f+1     :     0.020501
      f-1     :     0.020720
      f+2     :     0.000814
      f-2     :     0.000845
      f+3     :     0.000258
      f-3     :     0.000272
  5 N s       :     3.294945  s :     3.294945
      pz      :     1.478731  p :     3.570436
      px      :     1.045250
      py      :     1.046455
      dz2     :     0.052306  d :     0.136977
      dxz     :     0.037028
      dyz     :     0.037067
      dx2y2   :     0.005350
      dxy     :     0.005226
      f0      :     0.007300  f :     0.018403
      f+1     :     0.004788
      f-1     :     0.004805
      f+2     :     0.000466
      f-2     :     0.000463
      f+3     :     0.000290
      f-3     :     0.000292
  6 C s       :     2.811387  s :     2.811387
      pz      :     1.016556  p :     3.124402
      px      :     1.048992
      py      :     1.058853
      dz2     :     0.083631  d :     0.289068
      dxz     :     0.065557
      dyz     :     0.067181
      dx2y2   :     0.034382
      dxy     :     0.038317
      f0      :     0.008610  f :     0.031380
      f+1     :     0.006339
      f-1     :     0.005999
      f+2     :     0.002934
      f-2     :     0.002775
      f+3     :     0.001384
      f-3     :     0.003339
  7 H s       :     0.788648  s :     0.788648
      pz      :     0.013855  p :     0.065395
      px      :     0.034842
      py      :     0.016698
  8 H s       :     0.793046  s :     0.793046
      pz      :     0.013868  p :     0.065144
      px      :     0.027779
      py      :     0.023497
  9 H s       :     0.782736  s :     0.782736
      pz      :     0.014334  p :     0.068122
      px      :     0.013821
      py      :     0.039967
 10 C s       :     2.836006  s :     2.836006
      pz      :     1.180635  p :     2.820657
      px      :     0.823979
      py      :     0.816043
      dz2     :     0.162882  d :     0.474041
      dxz     :     0.148989
      dyz     :     0.151699
      dx2y2   :     0.005254
      dxy     :     0.005217
      f0      :     0.024637  f :     0.066957
      f+1     :     0.019892
      f-1     :     0.020401
      f+2     :     0.000722
      f-2     :     0.000777
      f+3     :     0.000260
      f-3     :     0.000268
 11 N s       :     3.300289  s :     3.300289
      pz      :     1.478660  p :     3.520113
      px      :     1.019464
      py      :     1.021989
      dz2     :     0.052713  d :     0.140517
      dxz     :     0.039063
      dyz     :     0.038748
      dx2y2   :     0.005023
      dxy     :     0.004970
      f0      :     0.007313  f :     0.018733
      f+1     :     0.005020
      f-1     :     0.004954
      f+2     :     0.000442
      f-2     :     0.000441
      f+3     :     0.000281
      f-3     :     0.000282
 12 C s       :     2.811374  s :     2.811374
      pz      :     1.016253  p :     3.124019
      px      :     1.057429
      py      :     1.050337
      dz2     :     0.083782  d :     0.289016
      dxz     :     0.061246
      dyz     :     0.070617
      dx2y2   :     0.036088
      dxy     :     0.037283
      f0      :     0.008576  f :     0.031456
      f+1     :     0.006563
      f-1     :     0.005850
      f+2     :     0.003035
      f-2     :     0.002668
      f+3     :     0.001767
      f-3     :     0.002997
 13 H s       :     0.793912  s :     0.793912
      pz      :     0.015217  p :     0.065098
      px      :     0.014468
      py      :     0.035413
 14 H s       :     0.789234  s :     0.789234
      pz      :     0.013157  p :     0.065311
      px      :     0.035854
      py      :     0.016300
 15 H s       :     0.780306  s :     0.780306
      pz      :     0.013641  p :     0.068339
      px      :     0.028653
      py      :     0.026044
 16 C s       :     2.835760  s :     2.835760
      pz      :     1.179451  p :     2.818956
      px      :     0.817232
      py      :     0.822273
      dz2     :     0.162559  d :     0.475415
      dxz     :     0.150504
      dyz     :     0.150557
      dx2y2   :     0.005506
      dxy     :     0.006289
      f0      :     0.024485  f :     0.067051
      f+1     :     0.020078
      f-1     :     0.020027
      f+2     :     0.000933
      f-2     :     0.000994
      f+3     :     0.000262
      f-3     :     0.000273
 17 N s       :     3.299979  s :     3.299979
      pz      :     1.476697  p :     3.525393
      px      :     1.025346
      py      :     1.023350
      dz2     :     0.052471  d :     0.140329
      dxz     :     0.038684
      dyz     :     0.038770
      dx2y2   :     0.005204
      dxy     :     0.005199
      f0      :     0.007252  f :     0.018718
      f+1     :     0.004936
      f-1     :     0.004979
      f+2     :     0.000491
      f-2     :     0.000492
      f+3     :     0.000283
      f-3     :     0.000285


                      *****************************
                      * MAYER POPULATION ANALYSIS *
                      *****************************

  NA   - Mulliken gross atomic population
  ZA   - Total nuclear charge
  QA   - Mulliken gross atomic charge
  VA   - Mayer's total valence
  BVA  - Mayer's bonded valence
  FA   - Mayer's free valence

  ATOM       NA         ZA         QA         VA         BVA        FA
  0 C      6.1688     6.0000    -0.1688     3.8991     3.6129     0.2861
  1 H      0.8466     1.0000     0.1534     0.9661     0.9179     0.0482
  2 H      0.7934     1.0000     0.2066     0.9670     0.9203     0.0468
  3 H      0.8434     1.0000     0.1566     0.9759     0.9279     0.0480
  4 C      6.0493     6.0000    -0.0493     3.9634     3.5292     0.4342
  5 N      7.2988     7.0000    -0.2988     3.1597     2.6626     0.4971
  6 C      6.2047     6.0000    -0.2047     3.9100     3.6228     0.2872
  7 H      0.8362     1.0000     0.1638     0.9689     0.9216     0.0473
  8 H      0.8522     1.0000     0.1478     0.9708     0.9223     0.0485
  9 H      0.8074     1.0000     0.1926     0.9667     0.9190     0.0477
 10 C      6.0899     6.0000    -0.0899     3.9780     3.5370     0.4410
 11 N      7.2091     7.0000    -0.2091     3.2060     2.7148     0.4912
 12 C      6.1984     6.0000    -0.1984     3.9112     3.6241     0.2871
 13 H      0.8586     1.0000     0.1414     0.9718     0.9228     0.0489
 14 H      0.8364     1.0000     0.1636     0.9675     0.9202     0.0474
 15 H      0.8032     1.0000     0.1968     0.9676     0.9207     0.0469
 16 C      6.0831     6.0000    -0.0831     3.9627     3.5227     0.4400
 17 N      7.2204     7.0000    -0.2204     3.1935     2.7011     0.4924

  Mayer bond orders larger than 0.100000
B(  0-C ,  1-H ) :   0.9171 B(  0-C ,  2-H ) :   0.9095 B(  0-C ,  3-H ) :   0.9229 
B(  0-C ,  4-C ) :   0.8814 B(  4-C ,  5-N ) :   2.6318 B(  6-C ,  7-H ) :   0.9185 
B(  6-C ,  8-H ) :   0.9337 B(  6-C ,  9-H ) :   0.9181 B(  6-C , 10-C ) :   0.8665 
B( 10-C , 11-N ) :   2.6908 B( 12-C , 13-H ) :   0.9284 B( 12-C , 14-H ) :   0.9216 
B( 12-C , 15-H ) :   0.9195 B( 12-C , 16-C ) :   0.8667 B( 16-C , 17-N ) :   2.6761 



                *******************************************
                * RELAXED MP2 DENSITY POPULATION ANALYSIS *
                *******************************************

------------------------------------------------------------------------------
                           ORCA POPULATION ANALYSIS
------------------------------------------------------------------------------
Input electron density              ... 12mecn.remya.etal.2.mol4,5,7-orca.engrad-mp2.def2tzvp.frozencore.pmp2re
BaseName (.gbw .S,...)              ... 12mecn.remya.etal.2.mol4,5,7-orca.engrad-mp2.def2tzvp.frozencore

                    ********************************
                    * MULLIKEN POPULATION ANALYSIS *
                    ********************************

-----------------------
MULLIKEN ATOMIC CHARGES
-----------------------
   0 C :   -0.266855
   1 H :    0.167247
   2 H :    0.212547
   3 H :    0.170775
   4 C :   -0.089725
   5 N :   -0.194231
   6 C :   -0.298311
   7 H :    0.176826
   8 H :    0.162590
   9 H :    0.199159
  10 C :   -0.124612
  11 N :   -0.115578
  12 C :   -0.293482
  13 H :    0.157656
  14 H :    0.176283
  15 H :    0.203269
  16 C :   -0.114855
  17 N :   -0.128703
Sum of atomic charges:   -0.0000000

--------------------------------
MULLIKEN REDUCED ORBITAL CHARGES
--------------------------------
  0 C s       :     3.177088  s :     3.177088
      pz      :     0.808862  p :     3.007148
      px      :     1.108508
      py      :     1.089778
      dz2     :     0.015573  d :     0.075573
      dxz     :     0.015842
      dyz     :     0.016526
      dx2y2   :     0.014284
      dxy     :     0.013347
      f0      :     0.001880  f :     0.007047
      f+1     :     0.000905
      f-1     :     0.000908
      f+2     :     0.000587
      f-2     :     0.000597
      f+3     :     0.000873
      f-3     :     0.001297
  1 H s       :     0.808724  s :     0.808724
      pz      :     0.006180  p :     0.024028
      px      :     0.005273
      py      :     0.012576
  2 H s       :     0.762612  s :     0.762612
      pz      :     0.005635  p :     0.024841
      px      :     0.010101
      py      :     0.009105
  3 H s       :     0.805016  s :     0.805016
      pz      :     0.005607  p :     0.024209
      px      :     0.012453
      py      :     0.006149
  4 C s       :     3.246061  s :     3.246061
      pz      :     0.967312  p :     2.718490
      px      :     0.873852
      py      :     0.877327
      dz2     :     0.020181  d :     0.106246
      dxz     :     0.037858
      dyz     :     0.038081
      dx2y2   :     0.005041
      dxy     :     0.005086
      f0      :     0.004342  f :     0.018928
      f+1     :     0.006406
      f-1     :     0.006444
      f+2     :     0.000607
      f-2     :     0.000617
      f+3     :     0.000253
      f-3     :     0.000259
  5 N s       :     3.694336  s :     3.694336
      pz      :     1.244331  p :     3.427737
      px      :     1.090910
      py      :     1.092497
      dz2     :     0.013943  d :     0.066942
      dxz     :     0.021135
      dyz     :     0.021227
      dx2y2   :     0.005360
      dxy     :     0.005276
      f0      :     0.000928  f :     0.005216
      f+1     :     0.001427
      f-1     :     0.001425
[...]
      f+1     :     0.006423
      f-1     :     0.006500
      f+2     :     0.000582
      f-2     :     0.000597
      f+3     :     0.000258
      f-3     :     0.000260
 11 N s       :     3.663555  s :     3.663555
      pz      :     1.258006  p :     3.379011
      px      :     1.059885
      py      :     1.061120
      dz2     :     0.014659  d :     0.067826
      dxz     :     0.021472
      dyz     :     0.021629
      dx2y2   :     0.005041
      dxy     :     0.005026
      f0      :     0.000928  f :     0.005186
      f+1     :     0.001434
      f-1     :     0.001424
      f+2     :     0.000419
      f-2     :     0.000419
      f+3     :     0.000281
      f-3     :     0.000282
 12 C s       :     3.191183  s :     3.191183
      pz      :     0.826452  p :     3.017828
      px      :     1.106050
      py      :     1.085326
      dz2     :     0.016164  d :     0.077395
      dxz     :     0.016657
      dyz     :     0.017760
      dx2y2   :     0.013229
      dxy     :     0.013585
      f0      :     0.001847  f :     0.007076
      f+1     :     0.000932
      f-1     :     0.000947
      f+2     :     0.000601
      f-2     :     0.000594
      f+3     :     0.000905
      f-3     :     0.001251
 13 H s       :     0.818260  s :     0.818260
      pz      :     0.006381  p :     0.024084
      px      :     0.005289
      py      :     0.012415
 14 H s       :     0.799663  s :     0.799663
      pz      :     0.005514  p :     0.024055
      px      :     0.012588
      py      :     0.005952
 15 H s       :     0.772121  s :     0.772121
      pz      :     0.005612  p :     0.024611
      px      :     0.009976
      py      :     0.009022
 16 C s       :     3.227150  s :     3.227150
      pz      :     0.970195  p :     2.763256
      px      :     0.894700
      py      :     0.898360
      dz2     :     0.023730  d :     0.105426
      dxz     :     0.035230
      dyz     :     0.036286
      dx2y2   :     0.004944
      dxy     :     0.005235
      f0      :     0.004436  f :     0.019024
      f+1     :     0.006366
      f-1     :     0.006394
      f+2     :     0.000643
      f-2     :     0.000664
      f+3     :     0.000259
      f-3     :     0.000263
 17 N s       :     3.676697  s :     3.676697
      pz      :     1.250380  p :     3.379221
      px      :     1.064687
      py      :     1.064154
      dz2     :     0.014578  d :     0.067595
      dxz     :     0.021416
      dyz     :     0.021289
      dx2y2   :     0.005146
      dxy     :     0.005166
      f0      :     0.000941  f :     0.005190
      f+1     :     0.001413
      f-1     :     0.001410
      f+2     :     0.000430
      f-2     :     0.000430
      f+3     :     0.000282
      f-3     :     0.000283


                     *******************************
                     * LOEWDIN POPULATION ANALYSIS *
                     *******************************

----------------------
LOEWDIN ATOMIC CHARGES
----------------------
   0 C :   -0.282339
   1 H :    0.150561
   2 H :    0.160631
   3 H :    0.155385
   4 C :   -0.202736
   5 N :    0.014965
   6 C :   -0.286578
   7 H :    0.152967
   8 H :    0.149157
   9 H :    0.154061
  10 C :   -0.214954
  11 N :    0.048508
  12 C :   -0.286286
  13 H :    0.148527
  14 H :    0.152502
  15 H :    0.156049
  16 C :   -0.214341
  17 N :    0.043920

-------------------------------
LOEWDIN REDUCED ORBITAL CHARGES
-------------------------------
  0 C s       :     2.817867  s :     2.817867
      pz      :     1.026930  p :     3.159623
      px      :     1.068727
      py      :     1.063966
      dz2     :     0.077760  d :     0.273562
      dxz     :     0.061350
      dyz     :     0.067012
      dx2y2   :     0.034979
      dxy     :     0.032462
      f0      :     0.008293  f :     0.031287
      f+1     :     0.006616
      f-1     :     0.006169
      f+2     :     0.002908
      f-2     :     0.002643
      f+3     :     0.001603
      f-3     :     0.003055
  1 H s       :     0.783815  s :     0.783815
      pz      :     0.015185  p :     0.065625
      px      :     0.014976
      py      :     0.035464
  2 H s       :     0.770553  s :     0.770553
      pz      :     0.014195  p :     0.068816
      px      :     0.028786
      py      :     0.025835
  3 H s       :     0.778534  s :     0.778534
      pz      :     0.013865  p :     0.066081
      px      :     0.035244
      py      :     0.016972
  4 C s       :     2.843190  s :     2.843190
      pz      :     1.172945  p :     2.825898
      px      :     0.825721
      py      :     0.827232
      dz2     :     0.164096  d :     0.466544
      dxz     :     0.145773
      dyz     :     0.145417
      dx2y2   :     0.005626
      dxy     :     0.005631
      f0      :     0.025456  f :     0.067104
      f+1     :     0.019669
      f-1     :     0.019828
      f+2     :     0.000800
      f-2     :     0.000824
      f+3     :     0.000257
      f-3     :     0.000270
  5 N s       :     3.296060  s :     3.296060
      pz      :     1.467096  p :     3.535942
      px      :     1.034605
      py      :     1.034242
      dz2     :     0.052741  d :     0.134146
      dxz     :     0.035331
      dyz     :     0.035484
      dx2y2   :     0.005361
      dxy     :     0.005229
      f0      :     0.007373  f :     0.018886
      f+1     :     0.004987
      f-1     :     0.005014
      f+2     :     0.000467
      f-2     :     0.000464
      f+3     :     0.000290
      f-3     :     0.000292
  6 C s       :     2.816533  s :     2.816533
      pz      :     1.034708  p :     3.160239
      px      :     1.058407
      py      :     1.067124
      dz2     :     0.075836  d :     0.278226
      dxz     :     0.067010
      dyz     :     0.069163
      dx2y2   :     0.031413
      dxy     :     0.034803
      f0      :     0.008076  f :     0.031580
      f+1     :     0.006738
      f-1     :     0.006476
      f+2     :     0.002921
      f-2     :     0.002754
      f+3     :     0.001360
      f-3     :     0.003255
  7 H s       :     0.781247  s :     0.781247
      pz      :     0.014394  p :     0.065786
      px      :     0.034317
      py      :     0.017074
  8 H s       :     0.785222  s :     0.785222
      pz      :     0.014420  p :     0.065621
      px      :     0.027627
      py      :     0.023574
  9 H s       :     0.777750  s :     0.777750
      pz      :     0.014844  p :     0.068189
      px      :     0.014306
      py      :     0.039040
 10 C s       :     2.840755  s :     2.840755
      pz      :     1.170137  p :     2.850333
      px      :     0.840517
      py      :     0.839679
      dz2     :     0.165274  d :     0.457134
      dxz     :     0.139976
      dyz     :     0.141538
      dx2y2   :     0.005201
      dxy     :     0.005145
      f0      :     0.025684  f :     0.066732
      f+1     :     0.019422
      f-1     :     0.019630
      f+2     :     0.000713
      f-2     :     0.000756
      f+3     :     0.000260
      f-3     :     0.000267
 11 N s       :     3.300983  s :     3.300983
      pz      :     1.465928  p :     3.494745
      px      :     1.016415
      py      :     1.012402
      dz2     :     0.053382  d :     0.136642
      dxz     :     0.036509
      dyz     :     0.036750
      dx2y2   :     0.005030
      dxy     :     0.004971
      f0      :     0.007407  f :     0.019122
      f+1     :     0.005130
      f-1     :     0.005138
      f+2     :     0.000442
      f-2     :     0.000441
      f+3     :     0.000281
      f-3     :     0.000282
 12 C s       :     2.816532  s :     2.816532
      pz      :     1.034486  p :     3.159941
      px      :     1.065985
      py      :     1.059470
      dz2     :     0.076118  d :     0.278156
      dxz     :     0.063416
      dyz     :     0.071682
      dx2y2   :     0.032753
      dxy     :     0.034187
      f0      :     0.008066  f :     0.031657
      f+1     :     0.007019
      f-1     :     0.006241
      f+2     :     0.003016
      f-2     :     0.002658
      f+3     :     0.001731
      f-3     :     0.002925
 13 H s       :     0.785881  s :     0.785881
      pz      :     0.015691  p :     0.065591
      px      :     0.014929
      py      :     0.034971
 14 H s       :     0.781774  s :     0.781774
      pz      :     0.013751  p :     0.065725
      px      :     0.035336
      py      :     0.016638
 15 H s       :     0.775562  s :     0.775562
      pz      :     0.014201  p :     0.068390
      px      :     0.028366
      py      :     0.025822
 16 C s       :     2.840404  s :     2.840404
      pz      :     1.168919  p :     2.848717
      px      :     0.839732
      py      :     0.840065
      dz2     :     0.164761  d :     0.458415
      dxz     :     0.140607
      dyz     :     0.141464
      dx2y2   :     0.005434
      dxy     :     0.006149
      f0      :     0.025500  f :     0.066805
      f+1     :     0.019377
      f-1     :     0.019510
      f+2     :     0.000918
      f-2     :     0.000966
      f+3     :     0.000262
      f-3     :     0.000272
 17 N s       :     3.300688  s :     3.300688
      pz      :     1.464007  p :     3.499807
      px      :     1.016704
      py      :     1.019096
      dz2     :     0.053063  d :     0.136474
      dxz     :     0.036611
      dyz     :     0.036421
      dx2y2   :     0.005190
      dxy     :     0.005189
      f0      :     0.007344  f :     0.019110
      f+1     :     0.005102
      f-1     :     0.005109
      f+2     :     0.000494
      f-2     :     0.000494
      f+3     :     0.000283
      f-3     :     0.000285


                      *****************************
                      * MAYER POPULATION ANALYSIS *
                      *****************************

  NA   - Mulliken gross atomic population
  ZA   - Total nuclear charge
  QA   - Mulliken gross atomic charge
  VA   - Mayer's total valence
  BVA  - Mayer's bonded valence
  FA   - Mayer's free valence

  ATOM       NA         ZA         QA         VA         BVA        FA
  0 C      6.2669     6.0000    -0.2669     3.9131     3.6282     0.2849
  1 H      0.8328     1.0000     0.1672     0.9606     0.9130     0.0476
  2 H      0.7875     1.0000     0.2125     0.9703     0.9241     0.0461
  3 H      0.8292     1.0000     0.1708     0.9696     0.9223     0.0473
  4 C      6.0897     6.0000    -0.0897     4.0644     3.6410     0.4234
  5 N      7.1942     7.0000    -0.1942     3.2682     2.7847     0.4835
  6 C      6.2983     6.0000    -0.2983     3.9122     3.6265     0.2857
  7 H      0.8232     1.0000     0.1768     0.9629     0.9162     0.0467
  8 H      0.8374     1.0000     0.1626     0.9648     0.9170     0.0478
  9 H      0.8008     1.0000     0.1992     0.9684     0.9214     0.0471
 10 C      6.1246     6.0000    -0.1246     4.0981     3.6680     0.4301
 11 N      7.1156     7.0000    -0.1156     3.3182     2.8395     0.4788
 12 C      6.2935     6.0000    -0.2935     3.9146     3.6289     0.2858
 13 H      0.8423     1.0000     0.1577     0.9659     0.9177     0.0482
 14 H      0.8237     1.0000     0.1763     0.9618     0.9150     0.0468
 15 H      0.7967     1.0000     0.2033     0.9688     0.9225     0.0463
 16 C      6.1149     6.0000    -0.1149     4.0763     3.6472     0.4291
 17 N      7.1287     7.0000    -0.1287     3.3038     2.8240     0.4799

  Mayer bond orders larger than 0.100000
B(  0-C ,  1-H ) :   0.9081 B(  0-C ,  2-H ) :   0.8984 B(  0-C ,  3-H ) :   0.9131 
B(  0-C ,  4-C ) :   0.9104 B(  4-C ,  5-N ) :   2.7215 B(  6-C ,  7-H ) :   0.9099 
B(  6-C ,  8-H ) :   0.9228 B(  6-C ,  9-H ) :   0.9067 B(  6-C , 10-C ) :   0.8940 
B( 10-C , 11-N ) :   2.7932 B( 12-C , 13-H ) :   0.9189 B( 12-C , 14-H ) :   0.9121 
B( 12-C , 15-H ) :   0.9079 B( 12-C , 16-C ) :   0.8938 B( 16-C , 17-N ) :   2.7730 



----------------------------------
MP2 DERIVATIVE INTEGRAL GENERATION
----------------------------------


Input Wavefunction Amplitudes       ... 12mecn.remya.etal.2.mol4,5,7-orca.engrad-mp2.def2tzvp.frozencore.mp2tsaa.tmp
Input Correlated Electron Density   ... 12mecn.remya.etal.2.mol4,5,7-orca.engrad-mp2.def2tzvp.frozencore.pmp2re
Input Energy Weighted Density       ... 12mecn.remya.etal.2.mol4,5,7-orca.engrad-mp2.def2tzvp.frozencore.wmp2.tmp
Input SCF Electron Density          ... 12mecn.remya.etal.2.mol4,5,7-orca.engrad-mp2.def2tzvp.frozencore.scfp

One-Electron Terms    ...
                        ... One-Electron Terms done
Prescreening matrices              ... done

Batch handling in the gradient evaluation:
Memory available                      ... 8000.0 MB
Memory per occupied orbital in Q2     ...   20.3 MB
Memory per occupied orbital in Q3     ...    0.1 MB
Total memory requirement per |i>      ...   20.4 MB
Max. Number of orbitals possible      ...    391
Number of orbitals treated per batch  ...     24
Number of batches to be done          ...      1
Batch   0: i=    9 ...    32

---------------------------------------
MP2 TOTAL ENERGY:     -397.466607963 Eh
---------------------------------------

The final MP2 gradient
  0:   0.00137553  -0.00009905   0.00753995
  1:   0.00066109  -0.00286422  -0.00010263
  2:   0.00172749   0.00161026  -0.00065680
  3:  -0.00298693   0.00110415   0.00052005
  4:  -0.00030878   0.00013460  -0.00207464
  5:  -0.00056992  -0.00054744  -0.00495661
  6:  -0.00077324   0.00062527  -0.00730370
  7:  -0.00337654   0.00010155  -0.00090627
  8:   0.00351812   0.00059163  -0.00052997
  9:   0.00102149  -0.00175172   0.00099698
 10:  -0.00059297   0.00010004   0.00304204
 11:   0.00074994   0.00069956   0.00470483
 12:  -0.00112811   0.00183216  -0.00663460
 13:  -0.00150363   0.00336814  -0.00071160
 14:   0.00249412  -0.00234839  -0.00151578
 15:  -0.00101256  -0.00221499  -0.00008270
 16:   0.00067644  -0.00056488   0.00411173
 17:   0.00002847   0.00022335   0.00455971

-----------------------------------
NORM OF THE MP2 GRADIENT:  0.018766
-----------------------------------

-------------------------   --------------------
FINAL SINGLE POINT ENERGY      -397.466607962864
-------------------------   --------------------


                            ***************************************
                            *     ORCA property calculations      *
                            ***************************************

                                    ---------------------
                                    Active property flags
                                    ---------------------
   (+) Dipole Moment


------------------------------------------------------------------------------
                       ORCA ELECTRIC PROPERTIES CALCULATION
------------------------------------------------------------------------------

Dipole Moment Calculation                       ... on
Quadrupole Moment Calculation                   ... off
Polarizability Calculation                      ... off
GBWName                                         ... 12mecn.remya.etal.2.mol4,5,7-orca.engrad-mp2.def2tzvp.frozencore.gbw
Electron density file                           ... 12mecn.remya.etal.2.mol4,5,7-orca.engrad-mp2.def2tzvp.frozencore.scfp
The origin for moment calculation is the CENTER OF MASS  = (-1.241939,  1.558243  0.323692)

-------------
DIPOLE MOMENT
-------------
                                X             Y             Z
Electronic contribution:     -0.02247      -0.00516      -3.15013
Nuclear contribution   :      0.03178      -0.01173       4.63031
                        -----------------------------------------
Total Dipole Moment    :      0.00931      -0.01689       1.48019
                        -----------------------------------------
Magnitude (a.u.)       :      1.48031
Magnitude (Debye)      :      3.76265



--------------------
Rotational spectrum 
--------------------
 
Rotational constants in cm-1:     0.045428     0.038388     0.030927 
Rotational constants in MHz :  1361.911793  1150.831489   927.160468 

 Dipole components along the rotational axes: 
x,y,z [a.u.] :     0.100512     0.906784     1.165746 
x,y,z [Debye]:     0.255480     2.304861     2.963092 

 

                         *** MP2 UNRELAXED DENSITY ***

------------------------------------------------------------------------------
                       ORCA ELECTRIC PROPERTIES CALCULATION
------------------------------------------------------------------------------

Dipole Moment Calculation                       ... on
Quadrupole Moment Calculation                   ... off
Polarizability Calculation                      ... off
GBWName                                         ... 12mecn.remya.etal.2.mol4,5,7-orca.engrad-mp2.def2tzvp.frozencore.gbw
Electron density file                           ... 12mecn.remya.etal.2.mol4,5,7-orca.engrad-mp2.def2tzvp.frozencore.pmp2ur
The origin for moment calculation is the CENTER OF MASS  = (-1.241939,  1.558243  0.323692)

-------------
DIPOLE MOMENT
-------------
                                X             Y             Z
Electronic contribution:     -0.02260      -0.00494      -3.18564
Nuclear contribution   :      0.03178      -0.01173       4.63031
                        -----------------------------------------
Total Dipole Moment    :      0.00917      -0.01667       1.44467
                        -----------------------------------------
Magnitude (a.u.)       :      1.44480
Magnitude (Debye)      :      3.67238



--------------------
Rotational spectrum 
--------------------
 
Rotational constants in cm-1:     0.045428     0.038388     0.030927 
Rotational constants in MHz :  1361.911793  1150.831489   927.160468 

 Dipole components along the rotational axes: 
x,y,z [a.u.] :     0.098256     0.884920     1.137849 
x,y,z [Debye]:     0.249748     2.249288     2.892181 

 

                           *** MP2 RELAXED DENSITY ***

------------------------------------------------------------------------------
                       ORCA ELECTRIC PROPERTIES CALCULATION
------------------------------------------------------------------------------

Dipole Moment Calculation                       ... on
Quadrupole Moment Calculation                   ... off
Polarizability Calculation                      ... off
GBWName                                         ... 12mecn.remya.etal.2.mol4,5,7-orca.engrad-mp2.def2tzvp.frozencore.gbw
Electron density file                           ... 12mecn.remya.etal.2.mol4,5,7-orca.engrad-mp2.def2tzvp.frozencore.pmp2re
The origin for moment calculation is the CENTER OF MASS  = (-1.241939,  1.558243  0.323692)

-------------
DIPOLE MOMENT
-------------
                                X             Y             Z
Electronic contribution:     -0.02309      -0.00384      -3.27288
Nuclear contribution   :      0.03178      -0.01173       4.63031
                        -----------------------------------------
Total Dipole Moment    :      0.00869      -0.01558       1.35743
                        -----------------------------------------
Magnitude (a.u.)       :      1.35755
Magnitude (Debye)      :      3.45061



--------------------
Rotational spectrum 
--------------------
 
Rotational constants in cm-1:     0.045428     0.038388     0.030927 
Rotational constants in MHz :  1361.911793  1150.831489   927.160468 

 Dipole components along the rotational axes: 
x,y,z [a.u.] :     0.092350     0.831565     1.069069 
x,y,z [Debye]:     0.234735     2.113670     2.717357 

 

Timings for individual modules:

Sum of individual times         ...      297.523 sec (=   4.959 min)
GTO integral calculation        ...        1.382 sec (=   0.023 min)   0.5 %
SCF iterations                  ...       59.605 sec (=   0.993 min)  20.0 %
MP2 module                      ...      236.536 sec (=   3.942 min)  79.5 %
                             ****ORCA TERMINATED NORMALLY****
TOTAL RUN TIME: 0 days 0 hours 4 minutes 58 seconds 477 msec
