72
Energy:   -317.45135193
C    1.42093630   2.00381387   3.40429472
H    1.25953348   1.45363240   4.30770473
H    2.23482095   2.68466193   3.54190569
H    1.65380365   1.32539794   2.61030246
C    0.14669302   2.79216486   3.04875738
N   -0.80203901   3.37912800   2.78404368
C    2.72128160  -1.50658189   2.21663689
H    1.70178268  -1.23010654   2.38717578
H    3.36493820  -0.72045479   2.55221022
H    2.94262029  -2.40362600   2.75628506
C    2.94365174  -1.74486257   0.71152100
N    3.10921642  -1.92227336  -0.40910619
C    3.14925517  -1.16655624  -3.81917567
H    3.35837839  -0.12010040  -3.89726424
H    3.40378037  -1.65073573  -4.73878767
H    3.72691456  -1.58726024  -3.02279832
C    1.65054768  -1.37031497  -3.52942019
N    0.53469183  -1.52202261  -3.31368407
C    1.71121865   4.37304932  -0.29252173
H    2.16303043   5.31137981  -0.04695670
H    2.36960568   3.81478349  -0.92479134
H    1.52534189   3.82095020   0.60499456
C    0.38088347   4.62065079  -1.02771003
N   -0.60961154   4.80500133  -1.57509114
C   -0.63283292  -1.08356505  -0.16532451
H   -1.08349980  -1.14453572  -1.13387090
H   -1.39566903  -1.10149425   0.58478129
H    0.02499082  -1.91571637  -0.02499918
C    0.16693124   0.22766998  -0.05289671
N    0.76239200   1.20394405   0.03081089
C    0.72083904  -4.57076749  -1.71840122
H    1.01993948  -5.57136149  -1.48548332
H    1.29977931  -3.88161224  -1.13978882
H    0.88032402  -4.38411526  -2.75985433
C   -0.77242501  -4.39116784  -1.38748365
N   -1.88422797  -4.25744774  -1.14110048
C   -4.25424305  -1.78858178  -1.40827755
H   -5.19810473  -1.39949767  -1.72865058
H   -4.12326376  -2.77518962  -1.80114965
H   -3.46825299  -1.15572887  -1.76410882
C   -4.21553815  -1.83942949   0.13039605
N   -4.18672060  -1.87728792   1.27600848
C   -3.13070492   0.69689440   3.18906550
H   -3.53682096   0.62320583   2.20187761
H   -2.96782871   1.72618668   3.43181607
H   -3.81701045   0.26943809   3.88989709
C   -1.79285208  -0.06324441   3.25182527
N   -0.79675984  -0.62920230   3.29855276
C   -1.91731046  -4.02441083   2.52117517
H   -2.55023295  -4.20642862   1.67786098
H   -2.14822941  -3.06745773   2.94047970
H   -2.07678754  -4.78428963   3.25741587
C   -0.44449413  -4.04608100   2.07179510
N    0.65208458  -4.06221543   1.73721121
C   -0.71241875   1.82340793  -3.22829067
H   -0.95631427   0.82276841  -3.51835223
H   -1.22919094   2.51422975  -3.86122890
H   -1.00687434   1.98193939  -2.21189371
C    0.80617275   2.04114742  -3.36271300
N    1.93683315   2.20326436  -3.46279653
C    4.11416161   1.24699489  -1.09893433
H    4.87320405   0.52475878  -1.31602821
H    4.28704225   2.13078824  -1.67679305
H    3.15511795   0.84158823  -1.34546992
C    4.15319504   1.59795641   0.40003279
N    4.18225720   1.85926321   1.51608194
C   -3.15925201   3.87521894   0.33496567
H   -3.85408304   3.95707895   1.14453899
H   -3.48475697   4.49008995  -0.47797913
H   -2.19233096   4.19731735   0.66087270
C   -3.08237430   2.40886358  -0.12924523
N   -3.02513535   1.31709536  -0.47487135
