72
Energy:   -317.74258846
C    0.25916638   0.69602311   1.04350324
H    0.43104899   1.75174955   1.07175620
H    1.07647546   0.18892229   1.51228219
H   -0.64758495   0.46823482   1.56390080
C    0.14051367   0.23425637  -0.42083723
N    0.05217133  -0.10954996  -1.51110527
C    3.24991042   2.10378195   3.05739539
H    4.00602924   2.50795861   3.69757172
H    3.52078016   2.27088879   2.03582602
H    3.15718346   1.05261227   3.23443524
C    1.90526971   2.79446055   3.35151177
N    0.90412358   3.30870216   3.57049477
C    0.78572721  -2.42811693  -4.08207143
H    1.62718530  -3.07750868  -3.95903144
H    0.12153606  -2.83958509  -4.81312763
H    0.27187600  -2.32942833  -3.14873517
C    1.27015783  -1.04330706  -4.55028997
N    1.63083845  -0.01225317  -4.89889994
C    1.53534146   2.91724891  -2.96929748
H    0.85750241   3.71096576  -3.20477140
H    1.05019900   1.97619664  -3.12407643
H    2.39561575   2.98337057  -3.60211274
C    1.97101433   3.03413620  -1.49684154
N    2.29539258   3.12116410  -0.40053116
C   -1.76484277  -3.48087063  -1.26130704
H   -1.18911008  -2.58013005  -1.21549795
H   -2.80420213  -3.24505610  -1.16631911
H   -1.59353523  -3.96635130  -2.19931628
C   -1.34412097  -4.41793277  -0.11391534
N   -1.03087447  -5.11561813   0.74036994
C    1.64650793  -2.94346782   1.70210805
H    1.35300861  -3.89096887   2.10335622
H    0.90584938  -2.20954879   1.94228893
H    2.58612329  -2.65319641   2.12372941
C    1.78257871  -3.05384342   0.17210741
N    1.88388959  -3.13602307  -0.96704762
C   -3.52810606   0.34256926  -0.62986441
H   -4.52637708  -0.04084197  -0.66661999
H   -2.83288756  -0.47064342  -0.64584777
H   -3.35734701   0.97447846  -1.47628700
C   -3.33770202   1.15533773   0.66425834
N   -3.19593755   1.76048081   1.62779156
C   -1.63994097   1.14957455   4.57393055
H   -2.53992304   0.66923253   4.25112413
H   -1.46923180   2.02322662   3.98022226
H   -1.73438046   1.42998798   5.60220512
C   -0.45440874   0.17991465   4.41307962
N    0.42827388  -0.54204123   4.29331879
C   -1.63713904  -3.45670844   3.81455761
H   -0.75954021  -3.13898909   4.33779262
H   -1.48136427  -4.43924129   3.42052397
H   -2.46859352  -3.47015288   4.48790877
C   -1.92775217  -2.48052230   2.65947985
N   -2.14412685  -1.75370735   1.79947195
C   -1.74946438   1.10207010  -4.24641976
H   -2.58430777   1.71551445  -4.51404397
H   -1.03907629   1.09765421  -5.04656247
H   -1.28900668   1.49208343  -3.36280932
C   -2.23305751  -0.33580582  -3.98137160
N   -2.59311457  -1.40636980  -3.78403120
C    3.68496428  -0.25261567  -1.93077320
H    2.76292430   0.16330656  -2.27970180
H    3.78666202  -1.25256913  -2.29771969
H    4.50106219   0.34196236  -2.28483571
C    3.69107294  -0.26779520  -0.39086013
N    3.69562111  -0.27909706   0.75567515
C   -0.94149127   4.46313285   0.96621972
H    0.12021834   4.53732501   1.07653022
H   -1.34303028   3.87644475   1.76588377
H   -1.37197708   5.44239459   0.99126938
C   -1.27206625   3.79133780  -0.37951859
N   -1.51819436   3.29115586  -1.38148193
