72
Energy:   -316.97882708
C    1.25904483  -3.23888497   2.02947181
H    1.28652786  -2.21373240   2.33477016
H    2.24826869  -3.56456514   1.78397706
H    0.87390874  -3.83851918   2.82759968
C    0.35005340  -3.38257758   0.79468964
N   -0.32673204  -3.48956326  -0.12466181
C   -1.43403627   1.01063019   4.38137308
H   -1.58854073   1.30676287   5.39790345
H   -0.94734024   1.80133533   3.84957288
H   -0.82211894   0.13328413   4.35453735
C   -2.79284975   0.70911814   3.72234622
N   -3.80454815   0.48462872   3.23167077
C    2.16587101   2.75856044   1.35711031
H    1.82722938   2.65170617   0.34775200
H    3.21843974   2.95085449   1.36171037
H    1.65221142   3.57446866   1.82116493
C    1.87763500   1.46129079   2.13532073
N    1.66303018   0.49541457   2.71473376
C   -0.73607417   3.99333760  -1.04926170
H   -0.09836063   4.84884851  -0.96974630
H   -1.62334249   4.25845898  -1.58532577
H   -0.22305067   3.21343522  -1.57219405
C   -1.11527288   3.50294037   0.36046129
N   -1.39760355   3.13781734   1.41006413
C   -1.91022335  -1.84071554  -2.93745532
H   -2.31133300  -2.03346644  -3.91052177
H   -1.19102447  -2.59413344  -2.69247872
H   -1.43768098  -0.88074148  -2.93020302
C   -3.04814387  -1.86058483  -1.89998623
N   -3.89537742  -1.87537842  -1.12754334
C    3.75758638   1.02242741  -2.17008002
H    3.39808246   0.46096433  -1.33317124
H    4.79714529   1.23713802  -2.03548537
H    3.62416044   0.45247704  -3.06576590
C    2.97084779   2.34179659  -2.27920083
N    2.38508514   3.32412692  -2.36044623
C   -1.20664788  -0.28962863   0.81514003
H   -1.74778758  -1.16543196   0.52352980
H   -1.89253591   0.51471318   0.98094402
H   -0.66544383  -0.48840007   1.71652073
C   -0.21957272   0.09930554  -0.30110942
N    0.51534960   0.38888471  -1.13220788
C    1.93210586  -2.59701459  -2.62503894
H    2.53045004  -2.53172729  -3.50969819
H    1.20045487  -1.81627664  -2.63088605
H    1.44004747  -3.54673329  -2.59654288
C    2.83216584  -2.44777326  -1.38438627
N    3.50230141  -2.33665630  -0.46066396
C   -3.88173156  -2.95609685   2.09675803
H   -4.58173311  -3.52829275   2.66902532
H   -3.63815512  -3.48494168   1.19904273
H   -4.31421399  -2.00978470   1.84705551
C   -2.60236688  -2.73340296   2.92454631
N   -1.64982172  -2.56759723   3.54087232
C   -0.23146805   1.87319303  -4.27297561
H   -0.69915722   1.69552517  -3.32714204
H   -0.97970592   1.93032051  -5.03571780
H    0.31054801   2.79498386  -4.23530143
C    0.73846170   0.71998930  -4.59071359
N    1.46061849  -0.13862330  -4.82728395
C    4.84888001  -1.15446343   2.32526052
H    5.37734163  -1.06773799   3.25160128
H    5.23069713  -1.98792877   1.77349036
H    3.80757808  -1.30336415   2.52126556
C    5.03745577   0.13459182   1.50405669
N    5.17785900   1.09435205   0.89263310
C   -4.72143241   1.38991321   0.09448683
H   -4.77280853   0.37058191   0.41577233
H   -5.68939980   1.71105844  -0.22924757
H   -4.39533534   2.00417767   0.90765285
C   -3.72367398   1.51069783  -1.07234186
N   -2.98079748   1.60062747  -1.94109886
