72
Energy:   -317.94013521
C    0.75514599  -3.54823647  -3.24400855
H   -0.30587978  -3.56105199  -3.10631229
H    1.02566970  -4.25851858  -3.99714555
H    1.06342736  -2.57007112  -3.54905647
C    1.44918453  -3.91534397  -1.91919060
N    1.96592778  -4.18867219  -0.93280343
C   -2.21920094   3.25909681  -2.98117854
H   -3.25443726   3.45565412  -2.79529910
H   -2.10666889   2.26230051  -3.35351276
H   -1.84857697   3.95426152  -3.70525243
C   -1.42461659   3.41032551  -1.67069558
N   -0.83301242   3.52292214  -0.69498145
C   -4.47863395  -1.61033611  -1.44070113
H   -4.25826854  -2.05921997  -0.49473996
H   -3.82793454  -2.01477899  -2.18763842
H   -5.49519330  -1.81508927  -1.70448575
C   -4.26923024  -0.08748927  -1.34749393
N   -4.11331966   1.04633943  -1.27809692
C   -0.58797330  -0.01327829  -1.42958041
H   -1.40582548   0.28992290  -0.80983286
H    0.06798097   0.81744845  -1.58615682
H   -0.05190356  -0.80562814  -0.95029965
C   -1.12650195  -0.50489627  -2.78600905
N   -1.52746102  -0.87092820  -3.79593183
C    1.61027359   0.03337001  -5.29986148
H    2.35520669  -0.45531842  -4.70727522
H    2.02030554   0.27827675  -6.25735486
H    0.77153548  -0.61869605  -5.42724799
C    1.15514237   1.32272340  -4.59132538
N    0.81627649   2.28270561  -4.06378804
C    2.69037474   2.82349701  -1.32105868
H    3.17863921   2.31145213  -2.12374668
H    2.76314632   3.87983249  -1.47519734
H    1.65970555   2.53771549  -1.29025224
C    3.36629660   2.45143650   0.01172061
N    3.86955115   2.17442054   1.00403536
C    0.67300132   3.12100795   2.45478727
H    0.14282605   3.77399683   1.79341000
H    1.69318220   3.43597190   2.52498535
H    0.22229829   3.15300892   3.42470572
C    0.61643489   1.68181943   1.90968486
N    0.57431860   0.61027816   1.50383135
C   -1.41123003  -1.66670603   5.02522006
H   -1.73672611  -1.86585573   6.02486594
H   -0.55957791  -2.27396585   4.79977990
H   -2.20196934  -1.89316576   4.34086165
C   -1.03042725  -0.18014378   4.89590687
N   -0.74690227   0.92666939   4.79962732
C   -2.89407202   1.73993928   1.83870312
H   -2.48386136   2.11441157   2.75325104
H   -3.87211220   2.14863859   1.69275321
H   -2.26339951   2.02384743   1.02227956
C   -2.98451913   0.20413939   1.90753629
N   -3.05186111  -0.93933344   1.95878572
C   -0.31708387  -3.01429878   1.65311294
H   -0.82722884  -3.56952713   2.41230579
H   -0.26677299  -1.98406347   1.93768826
H    0.67376328  -3.40021676   1.53399821
C   -1.08134711  -3.14252055   0.32230083
N   -1.65037583  -3.23798749  -0.66854929
C    3.24395455  -1.37718983   0.51748021
H    3.72673390  -2.33182829   0.49535107
H    2.33462776  -1.45024818   1.07666386
H    3.89059292  -0.66112763   0.98009543
C    2.92718758  -0.92866815  -0.92129948
N    2.69134018  -0.59472338  -1.99253636
C    2.94276207   0.54644890   4.28143489
H    3.30011111   0.92291154   3.34576522
H    3.74728972   0.52120695   4.98641517
H    2.16613280   1.18400799   4.64921809
C    2.38829279  -0.87665735   4.08412192
N    1.97546520  -1.93622464   3.93721344
