72
Energy:   -321.25465621
C    0.89995181   0.38222684   0.89092266
H    0.27711618   0.88236470   1.60284827
H    1.79432092   0.94954537   0.73876257
H    1.15267375  -0.59014290   1.25906367
C    0.14541459   0.24537292  -0.44457147
N   -0.41637266   0.14347895  -1.43890756
C    3.91630452   2.29632952   2.45348873
H    4.66312106   2.86837817   2.96331771
H    3.90040166   2.57141279   1.41957607
H    4.14305696   1.25437608   2.54189375
C    2.53797874   2.57672737   3.08054142
N    1.51175254   2.78549632   3.54741065
C    0.30902481  -2.18458653  -4.03796293
H   -0.45429503  -2.66122052  -4.61680922
H   -0.00122413  -2.12883193  -3.01544833
H    1.21414772  -2.75121506  -4.10566609
C    0.55146141  -0.76331078  -4.57907266
N    0.73196647   0.29489362  -4.98195345
C    0.58000558   3.22542704  -3.05360804
H   -0.16377470   3.99384714  -3.01865606
H    0.10506866   2.27473923  -3.17821422
H    1.23996851   3.40500832  -3.87646804
C    1.38419545   3.22929353  -1.74026738
N    1.98295137   3.23217230  -0.76242556
C   -1.54866888  -3.21875402  -0.64984672
H   -1.65707201  -2.29986398  -1.18723861
H   -2.50727751  -3.68005980  -0.53510544
H   -0.89985330  -3.87455930  -1.19193239
C   -0.94677791  -2.93346342   0.73865482
N   -0.49864272  -2.72105159   1.77245733
C    3.12068659  -2.93671107   1.29975907
H    3.78606268  -3.77457950   1.31206114
H    2.35002180  -3.08255048   2.02756794
H    3.66543842  -2.04523213   1.53086476
C    2.48818707  -2.80397017  -0.09806932
N    2.01726243  -2.70513853  -1.13881609
C   -3.81132497   0.08044507  -0.22881492
H   -4.85983593   0.13199442  -0.02176998
H   -3.57156118  -0.88745283  -0.61686914
H   -3.55295591   0.82775689  -0.94969602
C   -3.01919051   0.32373203   1.06923533
N   -2.42941040   0.50487022   2.03569274
C   -0.02353900  -0.32000318   4.48951008
H   -0.65094268  -0.79074184   3.76172583
H   -0.18642253   0.73735329   4.47039630
H   -0.25850841  -0.69955235   5.46194563
C    1.45206673  -0.61802776   4.16490408
N    2.55072228  -0.83992060   3.92322015
C   -3.29025177  -2.42646476   3.92613399
H   -2.32190714  -2.87893675   3.97591312
H   -3.92246416  -2.85349521   4.67636833
H   -3.20077505  -1.37324618   4.09233759
C   -3.90281159  -2.67648657   2.53550120
N   -4.35889022  -2.86263917   1.50011187
C   -2.64508383   1.14403508  -3.94229757
H   -3.58173186   1.59314806  -4.19898452
H   -1.95458744   1.27303607  -4.74943608
H   -2.25541466   1.61031785  -3.06159477
C   -2.85164216  -0.35911816  -3.67873735
N   -3.00543422  -1.47828407  -3.48250478
C    3.34016842   0.26842204  -2.59644692
H    3.49466394  -0.66329708  -3.09936917
H    3.82746934   1.05156591  -3.13877762
H    2.29151705   0.47325068  -2.53922250
C    3.92573640   0.18745908  -1.17442191
N    4.36171839   0.12717847  -0.11565966
C   -0.92412617   3.76156538   1.45520912
H   -1.11189157   2.96547969   2.14505831
H   -1.30949289   4.67689913   1.85339967
H    0.13007520   3.85659455   1.29859485
C   -1.61650747   3.45316582   0.11465035
N   -2.13201683   3.22354833  -0.88345660
