19
Energy:   -380.85250673
Na  -0.11332761  -0.30274486   0.43521464
O   -2.07974978  -0.85296677  -3.20942981
H   -2.95117880  -1.17889627  -3.43440372
H   -1.74707789  -0.47553740  -4.02374444
O   -0.40289527  -1.89588067  -1.23501385
H   -0.08466010  -2.75919333  -1.49892570
H   -0.95264535  -1.60947778  -1.96438350
O   -0.70374142  -1.47927839   2.32825635
H   -1.14244183  -2.32969776   2.35193515
H   -0.60133453  -1.23636453   3.24843977
O   -1.52378285   1.31719056  -0.47397167
H   -2.05554778   1.26760491  -1.26832623
H   -1.65729549   2.20832388  -0.15103570
C    3.93119985   2.28887042   2.10542902
H    3.68589038   3.02665887   2.84054238
H    4.39805543   2.76218898   1.26702906
H    4.60268552   1.57200761   2.52982719
C    2.64589938   1.57752696   1.64326761
N    1.68893475   1.04789942   1.29916742
