19
Energy:   -381.11910402
Na  -0.04367418   0.75722508  -0.58250906
O   -0.27234572   2.59555522  -1.97104394
H   -0.18662190   3.53323454  -1.79887896
H   -0.57104309   2.54458982  -2.87901654
O   -1.49158319   0.41460994   1.17286040
H   -2.41997319   0.24379231   1.33143278
H   -1.10852911   0.48892191   2.04691941
O    1.89139712   0.98101119   0.71765295
H    1.93814174   1.01388735   1.67314546
H    2.80260114   1.04055549   0.43061017
O   -0.16527619   0.53683739   3.58605390
H    0.03061636  -0.27626526   4.05158805
H   -0.35092148   1.17108783   4.27850899
C    0.02608226  -3.76974920  -2.82097541
H   -0.93360185  -4.23862998  -2.75727765
H    0.73155845  -4.32003732  -2.23413181
H    0.34752241  -3.75235848  -3.84140320
C   -0.07068208  -2.32793488  -2.28861449
N   -0.14272753  -1.25443859  -1.89224759
