19
Energy:   -381.81346706
Na  -0.43485171  -0.65445980  -0.07802668
O    0.71481613  -0.31247749   1.91198300
H    1.27313666  -0.94349528   2.36621487
H    0.71173905   0.45784089   2.48016604
O   -1.96265409   1.01319638   0.38651342
H   -1.71651721   1.55974078   1.13279602
H   -2.80894573   1.35985928   0.10394106
O   -1.13737821  -2.87594443  -0.27188976
H   -1.57634383  -3.41453692   0.38648640
H   -1.01060895  -3.46343496  -1.01688391
O   -1.21439374   2.49692013   2.55180842
H   -0.83413136   3.37357330   2.49602687
H   -1.76337975   2.52288079   3.33549985
C    2.92849543  -0.21329523  -3.82273782
H    2.45349562  -0.35483944  -4.77102080
H    3.68780381  -0.95538328  -3.68986497
H    3.37112376   0.76021618  -3.78731500
C    1.88224783  -0.34265426  -2.70013718
N    1.10326893  -0.43896794  -1.86430998
