19
Energy:   -380.67735711
Na  -0.67874751  -0.30461364  -0.11899285
O   -0.46341693   2.00612526  -0.42780938
H   -0.33549248   2.63142810   0.28553734
H   -0.35440404   2.52534970  -1.22452389
O    0.33373132   2.02426430   3.27640854
H    1.21338497   2.38185503   3.39711549
H   -0.17350137   2.38399188   4.00410554
O   -0.11378395  -0.44665852   2.10081209
H    0.04332598   0.37188607   2.57148509
H    0.09612992  -1.13223512   2.73496723
O   -2.78653541  -1.25069530  -0.38682219
H   -3.33474390  -1.24597902  -1.17147310
H   -3.31216784  -1.70670962   0.27043981
C    2.48137538  -1.95744683  -3.72560512
H    3.32738721  -1.30353879  -3.76520882
H    1.97840732  -1.94753341  -4.66996942
H    2.80934264  -2.95212052  -3.50660554
C    1.51561939  -1.48126607  -2.62462044
N    0.79657016  -1.12672785  -1.80488730
