19
Energy:   -382.52308641
Na  -0.54447289   0.11641893   1.01296964
O   -2.47556105   0.57104838   2.23270512
H   -3.15491533   1.19647667   1.98061571
H   -2.77184832   0.22048545   3.07267615
O    2.57136925  -2.34847006  -0.27005010
H    2.91356105  -2.01986745  -1.10140860
H    3.08055668  -3.14034436  -0.09714809
O   -0.12771766  -2.04122136   0.26745266
H   -0.64148252  -2.84091293   0.15444424
H    0.75880791  -2.28602964   0.00217323
O    1.76224802   0.13801078   1.56315098
H    2.18000508  -0.61309435   1.14178182
H    2.47794342   0.59279963   2.00719946
C   -1.36120091   2.99947828  -3.06275755
H   -2.11107399   2.56490428  -3.69024141
H   -0.42023847   2.98937503  -3.57205776
H   -1.63075093   4.00880678  -2.83146153
C   -1.24827601   2.18680110  -1.75952934
N   -1.16419828   1.58172600  -0.78921670
