19
Energy:   -380.47031013
Na  -0.00241085  -0.48671667   0.32997829
O    0.55431789  -2.53837685   1.26193540
H    0.92703540  -3.29463024   0.80873090
H    0.47315138  -2.82059069   2.17297831
O    0.39818410  -0.61745957  -1.93223677
H    1.15401283  -0.65716315  -2.51822176
H   -0.35706978  -0.56483503  -2.51794496
O   -1.85899828  -0.47482137  -3.47702173
H   -2.21311975  -1.21015551  -3.97713525
H   -2.15158317   0.30230387  -3.95315436
O   -2.24790594   0.09104809   0.49060270
H   -2.95366476  -0.18436588  -0.09444727
H   -2.67442855   0.66344328   1.12831271
C    2.66098076   2.92905515   2.95617135
H    2.55619907   2.75587629   4.00685211
H    2.29944867   3.90760202   2.71818045
H    3.69292490   2.85399647   2.68348732
C    1.84689443   1.87795379   2.17896522
N    1.24077015   1.09536104   1.60029993
