19
Energy:   -381.52991294
Na   0.17462335  -0.15690010  -0.92972023
O   -1.78748188   1.01266574  -0.51703837
H   -2.13920414   1.78675502  -0.95670765
H   -2.49783262   0.71637136   0.05203396
O   -2.94361682  -1.79546645   1.09809604
H   -3.01289216  -1.84126896   2.05168657
H   -3.80625686  -2.06369267   0.78164903
O   -0.45908641  -2.20202108  -0.06296572
H   -1.33241962  -2.15255128   0.32571627
H   -0.17341354  -3.10053245   0.10226196
O    1.13661279   0.07810080  -3.02805044
H    1.09780027  -0.51195869  -3.78074907
H    1.78557406   0.73759038  -3.27331480
C    3.33800964   2.33412286   2.12201144
H    3.46847925   3.35041059   1.81373055
H    4.29378092   1.85931106   2.19917433
H    2.84988938   2.31000962   3.07388131
C    2.47716152   1.58950598   1.08466568
N    1.83622096   1.03510488   0.31231461
