19
Energy:   -381.34155284
Na   0.49944074   0.44905470  -0.16044744
O   -1.14668647  -0.12326359   3.62095720
H   -0.64084284   0.03726104   4.41756621
H   -1.89734742  -0.64018214   3.91342119
O   -1.08029081   1.30933018   1.28032589
H   -1.75424783   1.98795391   1.31884352
H   -1.15564836   0.84856052   2.11593609
O    0.95743824  -1.33879925   1.23778542
H    0.78310596  -1.34273534   2.17896798
H    1.38306709  -2.17939174   1.06903648
O    2.12981801   2.05445437  -0.54387018
H    2.16444524   2.90982380  -0.11564602
H    2.85572950   2.06878489  -1.16763216
C   -0.79945937  -1.55467355  -4.63139419
H   -0.94849078  -2.60032482  -4.46021227
H   -0.02556104  -1.41890619  -5.35771897
H   -1.70778440  -1.11934317  -4.99240971
C   -0.39149088  -0.87167000  -3.31280864
N   -0.08773980  -0.36314281  -2.33106176
