19
Energy:   -381.92877552
Na  -0.80135356  -0.22683008   0.24855256
O    0.81523007  -1.61964533   1.12180035
H    1.12583544  -2.52352839   1.17425571
H    1.40569172  -1.12940085   1.69385562
O    2.26653628   0.13202164   2.74981660
H    3.16975287   0.37175912   2.54255452
H    2.30631838  -0.20097240   3.64634557
O   -2.81353817  -1.37118926   0.19828352
H   -3.30805771  -1.83430435   0.87445412
H   -3.35676844  -1.44123786  -0.58671706
O   -0.30336727   1.74920857   1.45090492
H    0.42126038   1.73459500   2.07615133
H   -0.72077439   2.59976366   1.58713702
C    0.07264013   0.96404479  -4.58074927
H    0.64083866   1.87000189  -4.54480009
H   -0.82250284   1.12655994  -5.14396057
H    0.65381772   0.19684167  -5.04822234
C   -0.29326620   0.53044166  -3.14907162
N   -0.56570009   0.20760443  -2.08312253
