19
Energy:   -380.98448720
Na  -0.45413073   0.65182073   0.21079581
O   -1.92177777   2.35169262   0.76864418
H   -2.05467407   2.72864707   1.63840033
H   -2.52477665   2.83431395   0.20322324
O    1.81672529   1.21139450   0.44264206
H    2.30314298   1.99895036   0.19895076
H    2.47413087   0.63360271   0.83020677
O   -0.25817530  -1.09857783   1.68243239
H    0.61742889  -1.28962249   2.01866309
H   -0.80581020  -1.80562747   2.02361954
O    2.24156117  -1.66135846   2.64996465
H    2.28919448  -1.69091067   3.60552186
H    2.78712329  -2.39236871   2.35976156
C   -1.50842741  -0.66047884  -4.57148851
H   -2.43035707  -1.19655461  -4.65848650
H   -0.70445955  -1.27470760  -4.91970943
H   -1.55728326   0.23112078  -5.16103267
C   -1.26833427  -0.28813650  -3.09659310
N   -1.08957401  -0.01091070  -1.99846643
