19
Energy:   -382.64321410
Na  -0.54521830   0.50686803  -0.26615640
O   -2.33437954   1.66599960  -1.22334541
H   -2.32269732   2.10629874  -2.07318777
H   -3.22893932   1.78438548  -0.90400322
O    0.27576889   1.19431031   1.83506750
H    0.31816947   0.64478419   2.61766259
H    0.61623653   2.04271676   2.11882820
O   -0.21408462  -1.52917503   3.41241952
H   -0.95800844  -1.77711159   3.96136092
H    0.55320566  -1.83756977   3.89448815
O   -1.07448574  -1.46784389   0.80146589
H   -1.55831360  -2.28029830   0.65293884
H   -0.78921300  -1.52173047   1.71357747
C    2.83721031   0.03880548  -3.95838659
H    2.82320949   0.82693927  -4.68195365
H    2.69957294  -0.90069838  -4.45162845
H    3.77786832   0.03947477  -3.44842468
C    1.70160956   0.25570236  -2.94105346
N    0.85610319   0.41719195  -2.18360271
