19
Energy:   -382.36480056
Na  -0.28069845   0.41968085  -0.55854195
O   -0.42937496   2.18247632   0.98298315
H   -1.17797956   2.59988876   1.40911676
H    0.33514147   2.55349916   1.42353794
O   -0.59811870   0.62073060  -2.84771564
H   -0.09263187   1.11694548  -3.49152128
H   -1.20796445   0.10040854  -3.37076913
O    1.86550667  -0.03525408  -0.03311416
H    2.28547840   0.62415519   0.51918558
H    2.49733794  -0.75322874  -0.07227383
O    2.74638726   1.89824596   1.69862730
H    2.82614884   1.60835400   2.60738062
H    3.49527533   2.47934118   1.56548509
C   -2.96135264  -3.80767832   0.10564141
H   -3.99046152  -3.55343456   0.25122712
H   -2.60041784  -4.33811155   0.96195079
H   -2.86597571  -4.42535804  -0.76284814
C   -2.13695147  -2.52117261  -0.08636318
N   -1.52314733  -1.56331063  -0.22931933
