19
Energy:   -381.13699936
Na   0.47775845  -0.38825899  -0.35333149
O   -0.51510307  -0.61928534   3.63635756
H   -0.02070145  -0.97289818   4.37578765
H   -1.25039270  -0.15682073   4.03848625
O    1.23550701   1.23120349   1.17602453
H    1.68694917   2.07442215   1.13841976
H    1.08166986   1.08274713   2.10904473
O   -0.79864247  -1.66318844   1.12524280
H   -0.79632154  -1.33746205   2.02531434
H   -1.43917534  -2.37447934   1.12908371
O    2.19072203  -1.76489753  -1.08458607
H    2.86893249  -1.53426233  -1.71946388
H    2.43203467  -2.64076287  -0.78315621
C   -1.80775483   2.27634598  -4.02185524
H   -1.33045863   2.17884886  -4.97452666
H   -1.79288639   3.30243041  -3.71882263
H   -2.82110055   1.94058015  -4.09459357
C   -1.05764237   1.42312469  -2.98217033
N   -0.49914954   0.78786265  -2.20807766
