19
Energy:   -381.49403957
Na  -0.17060934   0.24958161   0.67799035
O    0.71257689   2.09884989  -0.53771406
H    0.29585477   2.30117694  -1.37535257
H    1.42928633   2.72945228  -0.46771369
O   -1.29276419   1.51989560  -2.98002401
H   -0.80580069   1.52052676  -3.80409804
H   -2.00765401   2.14010077  -3.12323692
O   -1.17917693  -0.59512599  -1.19899480
H   -1.28263231   0.07618936  -1.87343125
H   -1.40198093  -1.41486188  -1.64015610
O   -1.56480479   1.30989564   2.26538415
H   -2.20701123   0.89305029   2.83987757
H   -1.48157890   2.20091519   2.60507439
C    2.70348763  -3.68067883   1.98750803
H    2.67304722  -3.89695545   3.03498022
H    3.71001136  -3.46223412   1.69752358
H    2.34987957  -4.52794055   1.43795548
C    1.80758700  -2.46437358   1.68823628
N    1.14054825  -1.55877903   1.46541486
