22
Energy:   -592.31098450
O   -1.95034049   0.78180975   2.26870627
H   -1.72501925   1.09350425   3.14523848
H   -2.82963168   0.41547596   2.36293150
O   -0.77145261  -1.08883734  -2.61828182
H   -1.26888996  -0.58334371  -3.26113805
H   -0.97717049  -2.00173604  -2.81959739
O    2.12749037  -1.15921124  -1.14562627
H    2.91589502  -1.34611759  -1.65524963
H    2.31525505  -1.51090955  -0.27540528
O    2.10836883  -1.97662911   1.53112980
H    2.07375234  -2.90505466   1.76147641
H    2.72286550  -1.59637538   2.15885011
O   -1.53901143   2.58386354   0.17788891
H   -2.08458584   3.36447902   0.27390911
H   -1.74937658   2.04845669   0.94294961
O    0.33720844   1.63060998  -1.51817117
H    0.82496247   2.34959983  -1.91989427
H   -0.30807756   2.06187879  -0.95795242
O   -0.21760712  -0.65212851   0.61404731
H   -0.79878325  -0.20947737   1.23253427
H    0.42123514  -1.10334912   1.16587370
Li   0.36234581  -0.29525713  -1.22645278
