22
Energy:   -580.47909020
O   -1.57027858   1.51365220   2.42197115
H   -2.22730649   1.19793328   3.04234824
H   -1.44171941   2.43293730   2.65567885
O   -1.49308457   0.66790027  -0.28802498
H   -1.78288247   1.10857589   0.51075786
H   -0.81486079   1.24090705  -0.64566668
O    2.26937634  -0.02194113  -2.60349551
H    3.20492958  -0.22037581  -2.56354985
H    2.10556410   0.17784139  -3.52517026
O    0.49857974  -1.69732664  -1.27283712
H    0.52342157  -2.57104028  -1.66301554
H    1.12896120  -1.18870659  -1.78289272
O    0.60246925  -0.09117202   1.54502446
H    1.11425041   0.54212484   1.04178796
H    0.04975008   0.44474383   2.11381930
O    1.16204036   1.62032742  -0.65746930
H    1.61168418   1.15629505  -1.36367483
H    1.51447442   2.50960886  -0.69211902
O   -1.71689547  -2.31865974   1.00261256
H   -2.61294610  -2.53582877   0.74539138
H   -1.51359696  -2.93404096   1.70703255
Li  -0.53763339  -0.96453314   0.21521778
