22
Energy:   -592.24650030
O    0.33639249  -1.19106641   3.54958726
H   -0.09433818  -1.96719943   3.90780573
H    0.75570968  -0.77912617   4.30504088
O    1.69922727   0.71131917   1.28798746
H    2.60548076   0.93654399   1.49824981
H    1.50286268   1.21747385   0.49964728
O    0.32781755  -2.01573156   0.36744697
H    0.77145231  -2.82213449   0.10451279
H   -0.26004906  -1.81667365  -0.36126466
O   -1.49265183  -0.84918040  -1.39042695
H   -2.22569407  -1.26683182  -1.84258645
H   -1.10458547  -0.27010249  -2.04640341
O    1.01144507   2.02175621  -0.98821122
H    1.20959104   2.93166904  -1.20963540
H    0.58590797   1.67151749  -1.77082406
O   -1.42660720   0.25684984   1.17002202
H   -2.07478960   0.91642572   1.41710718
H   -1.66463147   0.00937295   0.27652804
O   -0.28931873   0.89029756  -3.18986701
H   -0.84440995   1.47800745  -3.70241229
H    0.33051549   0.53118140  -3.82474730
Li   0.28184589  -0.56219548   1.69430096
