22
Energy:   -584.92213540
O   -1.63183293   1.93394057   3.31819513
H   -1.14339451   2.29089032   4.05998124
H   -2.46584817   2.40347966   3.33174009
O   -1.10176806  -0.37847667   1.98943088
H   -1.28770773   0.43420027   2.45976532
H   -1.33060201  -1.07176826   2.60847340
O    3.36262946  -0.43474604  -0.26656987
H    3.86262092  -0.41752275  -1.08262363
H    4.02673288  -0.48838917   0.42068619
O    1.04012858   1.10707543   0.06432673
H    1.11786892   2.06076034   0.09027622
H    1.93708785   0.79644235  -0.05897377
O   -1.68597362  -0.29386608  -1.12118653
H   -1.52671885  -0.27845570  -2.06491969
H   -2.63947925  -0.27930495  -1.03844087
O   -1.27671005  -0.25242602  -3.81051327
H   -1.27678468   0.52011001  -4.37568574
H   -1.36650167  -0.99066543  -4.41315071
O    0.96026839  -1.86355294  -0.04010277
H    0.98225648  -2.80655311  -0.20288807
H    1.87000850  -1.58204180  -0.13683048
Li  -0.27557447  -0.34936632   0.22116612
