22
Energy:   -584.63331293
O    0.80987267   0.90138074  -0.66277413
H    1.25540341   0.81618358  -1.50567130
H    0.68712622   1.84400328  -0.55040019
O    0.32059522   3.57514518  -0.35002281
H   -0.46358344   3.97985547  -0.72083983
H    0.83571867   4.31024525  -0.01759605
O   -1.80927159  -0.83645630   0.36822282
H   -2.56168043  -1.15431592  -0.13085439
H   -2.14630986  -0.70811448   1.25488252
O    0.83029936  -1.98118959  -1.21735236
H    0.94951310  -2.90660428  -1.43095849
H    1.19108965  -1.51273375  -1.97008827
O    1.82088780  -0.16795903  -3.09720073
H    1.38394497   0.02585304  -3.92650749
H    2.75476704  -0.10481444  -3.29748597
O   -2.46293334  -0.70623966   3.03556672
H   -3.06716724  -1.37043397   3.36719779
H   -2.72027363   0.09842349   3.48559455
O    0.67205819  -1.07826322   2.01289640
H    0.00216629  -1.04511920   2.69581526
H    1.49712378  -1.16631405   2.49012346
Li   0.13709688  -0.73571022   0.13386074
