22
Energy:   -584.63556871
O   -0.96869627  -0.57697080  -1.93965659
H   -1.53959321  -0.48726057  -1.17659657
H   -1.43345617  -1.18247471  -2.51723352
O   -0.43717518   0.37395557   2.24027263
H   -0.56691400   1.11480578   2.83233736
H   -0.30814213  -0.37676332   2.81993068
O    2.11145862  -0.40450587  -2.87702166
H    2.57340867   0.02758319  -3.59544565
H    2.41930479  -1.31044421  -2.90419326
O   -0.07914042  -1.73320246   3.92487290
H   -0.58038056  -2.54860652   3.93518711
H    0.46582260  -1.77653976   4.71060124
O    0.40345847   2.23173736  -2.34085499
H    0.82568154   3.04910274  -2.07651929
H   -0.36787879   2.50901438  -2.83521126
O   -2.35222475  -0.17566199   0.33601320
H   -3.23719404  -0.18872169   0.70055490
H   -1.78595994   0.00242380   1.08692030
O    1.31843816   0.38501870   0.12390609
H    0.72132452   0.38838136   0.87202095
H    2.18788732   0.28378820   0.51125917
Li   0.71300543   0.38412464  -1.73757094
