22
Energy:   -572.70062248
O    1.57772520  -4.45809856   0.33393874
H    1.24826777  -5.31729868   0.07037697
H    2.48450239  -4.61856926   0.59515921
O   -2.28944420  -0.55360145   0.21599353
H   -3.16186714  -0.58392529   0.60866455
H   -1.89202690  -1.39260314   0.44916190
O    1.92955646   3.10105071   0.61504536
H    2.15913575   3.99794516   0.85816168
H    2.77126914   2.66809242   0.47257174
O    0.46333581  -1.99524304   0.86130831
H    0.79271879  -2.86744625   0.64451290
H    0.63934346  -1.89801399   1.79715000
O   -1.93871404   1.93446905  -1.96461043
H   -2.47007696   1.62526678  -2.69828560
H   -1.98074463   2.88894174  -2.02332288
O   -0.66394993   2.26417543   0.79427926
H   -0.98099486   2.62460023   1.62241471
H    0.24992110   2.54456128   0.74472747
O    0.48972938  -0.03170306  -1.09471211
H    0.65252001  -0.79946986  -0.54674751
H    1.16265324  -0.07470358  -1.77409145
Li  -1.13601158   0.90130930  -0.50909466
