72
Energy:   -422.43772181
O    1.49831617  -0.06359099  -1.25014108
H    2.25317484  -0.08859195  -0.64352207
C    0.31571834  -0.09223944  -0.46708590
H   -0.52462396  -0.06348395  -1.16600158
H    0.23004852   0.77542183   0.20567107
H    0.22704957  -1.00951616   0.13583914
O    0.05637626   0.94263824   3.28915444
H   -0.24951098   0.02984936   3.18111402
C   -1.00149481   1.80083471   2.89299612
H   -0.64004009   2.82477731   3.02096971
H   -1.90376981   1.67741775   3.51222581
H   -1.28400692   1.66802309   1.83690649
O    0.43563681   0.11360055  -3.85013225
H    0.79613060   0.05998865  -2.95258378
C    1.51558181  -0.03790521  -4.75749027
H    1.09187136   0.02498423  -5.76347216
H    2.01969192  -1.01211448  -4.65968116
H    2.27154953   0.75634158  -4.65520543
O    2.41727826   2.14817867   2.48521896
H    1.62039691   1.73847504   2.85338512
C    3.10694550   2.78193493   3.55069813
H    4.00167691   3.23814562   3.11847975
H    3.42766513   2.07363838   4.33059059
H    2.51389235   3.57823475   4.02711379
O   -2.86439450  -1.56140137  -1.54979613
H   -3.02825598  -0.77069087  -1.01467971
C   -2.87163473  -1.16785335  -2.91273462
H   -2.68562312  -2.07033141  -3.50130766
H   -2.08181349  -0.43758819  -3.14868489
H   -3.83919810  -0.74752839  -3.22884440
O   -3.11411479   0.81273644  -0.06091046
H   -2.55002065   1.57702908  -0.25085211
C   -4.33145763   1.30018064   0.48039199
H   -4.95489033   0.42639721   0.68852510
H   -4.87816468   1.95052547  -0.22027935
H   -4.18750720   1.84941430   1.42400101
O    1.21241359   3.51203300   0.30465491
H    1.66052741   3.11587623   1.06667662
C    2.11904025   3.49162548  -0.78628295
H    1.59827807   3.94137268  -1.63600021
H    2.41885653   2.47092825  -1.07100155
H    3.02962240   4.08023636  -0.59352738
O    0.72594653  -3.57497161   1.19035518
H    0.26629955  -3.58139067   0.33764965
C    0.83135233  -4.91877515   1.63263953
H    1.35142095  -4.89319641   2.59407573
H    1.41689272  -5.54827959   0.94442159
H   -0.15009224  -5.39356756   1.78793296
O   -0.71685656  -1.69605984   2.71805182
H   -0.17786795  -2.38101907   2.29526890
C   -2.01936200  -1.76813356   2.16054062
H   -2.61315113  -0.99001505   2.64780982
H   -2.50836013  -2.73725047   2.34620318
H   -2.02900415  -1.57614626   1.07618587
O    3.44517469   0.09540891   0.80921001
H    3.24615444   0.83640041   1.40060311
C    3.21368513  -1.10451606   1.52971430
H    3.44264014  -1.92888913   0.84892516
H    2.16664390  -1.21046117   1.85414861
H    3.86295800  -1.20160305   2.41390669
O   -0.80048495  -3.45671752  -1.15508432
H   -1.55445827  -2.87487729  -1.33231143
C    0.07726862  -3.37445730  -2.26653189
H    0.92075688  -4.03571832  -2.05032222
H    0.47154676  -2.35812474  -2.42270555
H   -0.39072728  -3.71347307  -3.20398881
O   -1.39321460   2.94794501  -0.65056729
H   -0.52038688   3.22422046  -0.33391779
C   -1.34410321   2.90789435  -2.06778915
H   -2.33505988   2.59498458  -2.40775614
H   -0.60800641   2.18207871  -2.44743436
H   -1.12482229   3.89070643  -2.51362951
