72
Energy:   -417.01809960
O    1.47913816  -0.58141996  -1.33162142
H    2.12314749  -0.99569532  -0.73828241
C    0.34058635  -0.23741171  -0.55838674
H   -0.37458882   0.22793086  -1.24210157
H    0.57099069   0.48627991   0.23908527
H   -0.14442048  -1.11454882  -0.10212342
O    0.65287203   0.38968183   3.13963314
H    0.77840740  -0.56284896   3.01574108
C   -0.73111117   0.66421126   2.99212769
H   -0.85469751   1.74119062   3.13470072
H   -1.34951387   0.14732206   3.74258155
H   -1.11145231   0.40648147   1.99128140
O    0.89792497   0.86172745  -3.68689636
H    1.09624575   0.37370892  -2.87392031
C    1.75649916   0.37078394  -4.70393058
H    1.51980001   0.93116147  -5.61246552
H    1.60034647  -0.69923365  -4.91239170
H    2.82186469   0.52807175  -4.47363912
O    2.22757484   2.62986202   2.55444578
H    1.70573710   1.86207584   2.83123638
C    2.10888961   3.61803904   3.56536307
H    2.70256925   4.47569561   3.23755993
H    2.50276947   3.28162653   4.53719773
H    1.07086232   3.95643884   3.70945419
O   -2.85249568  -1.31397502  -2.00999942
H   -2.95259225  -0.63406863  -1.32726136
C   -2.54663329  -0.65735947  -3.22976906
H   -2.43723060  -1.43770367  -3.98777908
H   -1.60278407  -0.09188343  -3.18326297
H   -3.34562954   0.02642627  -3.55660141
O   -3.00917752   0.67230603  -0.01225177
H   -2.48374781   1.46742565  -0.18583656
C   -4.31299647   1.09050382   0.35882846
H   -4.89138413   0.18268768   0.55072107
H   -4.82072024   1.65679675  -0.43760498
H   -4.31920394   1.69955747   1.27632093
O    1.23465164   3.38059713   0.03517318
H    1.66658351   3.21087201   0.88549753
C    2.14860645   3.02594506  -0.99022542
H    1.64610413   3.22333941  -1.94102092
H    2.42392069   1.95996393  -0.96446416
H    3.07270727   3.62428305  -0.96182382
O    1.02527378  -2.34692532   2.54440826
H    0.26337682  -2.75665848   2.10845524
C    1.57666261  -3.30296746   3.43574859
H    2.43358427  -2.82507821   3.91823417
H    1.93574337  -4.20746554   2.92026672
H    0.86899334  -3.60898165   4.22209256
O   -1.19206436  -3.36643910   1.22310933
H   -1.27604011  -3.63469533   0.29606567
C   -2.38413086  -2.68748400   1.58440038
H   -2.27262417  -2.39237131   2.63128144
H   -3.27817754  -3.32530292   1.50288420
H   -2.55177578  -1.77642046   0.98888738
O    3.11186737  -1.63911314   0.74193046
H    2.46929157  -1.92633124   1.40753198
C    3.74115935  -0.46496205   1.22967486
H    4.46164163  -0.15507777   0.46785978
H    4.28983488  -0.63550886   2.16916743
H    3.03264620   0.36340211   1.38651640
O   -1.51091468  -3.73984706  -1.54650899
H   -2.02014065  -2.96108054  -1.81601762
C   -0.31105281  -3.75258187  -2.30328049
H    0.25036587  -4.63597705  -1.98719948
H    0.31626892  -2.86606028  -2.12073118
H   -0.49235977  -3.83287383  -3.38654330
O   -1.43149766   2.87024016  -0.65747174
H   -0.52419868   3.10768686  -0.41487971
C   -1.58476734   3.11830218  -2.04581875
H   -2.61207880   2.84552387  -2.30215516
H   -0.90575987   2.51030276  -2.66393111
H   -1.43754666   4.17790049  -2.30726634
