72
Energy:   -416.12760042
O    2.93293494  -0.72702268  -2.65342994
H    2.13994893  -1.16867103  -2.99187227
C    3.51941415  -1.57959335  -1.68301809
H    4.41113089  -1.06690271  -1.31224220
H    3.83227634  -2.54880888  -2.10196420
H    2.85402326  -1.76984564  -0.82637559
O   -2.68522105   1.63148646  -0.77856806
H   -2.92671812   1.34840267   0.11584013
C   -1.87724696   2.79145428  -0.65946177
H   -1.61425110   3.09684098  -1.67585605
H   -0.94327731   2.60422005  -0.10681236
H   -2.40453416   3.62925683  -0.17693465
O   -1.83235897  -0.08179272  -2.82341002
H   -2.15268852   0.53873064  -2.15202114
C   -2.79088835  -0.11767125  -3.86862193
H   -2.41440028  -0.82121269  -4.61613204
H   -2.92434271   0.86032674  -4.35697345
H   -3.77622725  -0.47427958  -3.52992579
O    3.00452886  -1.10747053   1.87109488
H    2.81298691  -0.21193214   2.18692070
C    4.36312575  -1.38735071   2.16844210
H    4.56194710  -2.39959510   1.80606584
H    4.57560842  -1.36361479   3.24874995
H    5.05943648  -0.70060137   1.66217731
O   -1.71861798  -3.35139183   0.32259928
H   -0.98165282  -2.74281953   0.48054036
C   -2.80537407  -2.59020239  -0.17948201
H   -3.62671974  -3.29103653  -0.35184209
H   -2.57237876  -2.09556992  -1.13542616
H   -3.15319172  -1.82496368   0.53200231
O   -3.17605212   0.67561321   1.80657881
H   -2.59022345   0.11617213   2.33785437
C   -4.47171756   0.60916618   2.38048616
H   -5.11874334   1.24479840   1.76990076
H   -4.49877509   0.98753004   3.41435559
H   -4.88859617  -0.41011065   2.37246830
O    1.65596215   3.17634105   0.42552923
H    1.80503966   2.75838192  -0.43558013
C    2.48635862   4.32436956   0.49628246
H    2.30591325   4.78294493   1.47231182
H    2.24953526   5.06897395  -0.27976930
H    3.55774285   4.07914883   0.42714531
O    2.20726828   1.47686162   2.59754960
H    2.03170946   2.13889175   1.91248137
C    1.10464357   1.47831261   3.49015837
H    1.31884031   0.72717040   4.25526643
H    0.15857319   1.20391838   2.99778049
H    0.96603894   2.44811065   3.99320694
O    0.39190212  -1.50115190   0.90581471
H    1.32391270  -1.50363365   1.16996122
C    0.18222489  -0.36850731   0.07775344
H   -0.87235574  -0.38111250  -0.21066641
H    0.78792091  -0.39587351  -0.84157281
H    0.38259866   0.58135589   0.59774151
O    2.09786837   1.88023680  -2.00300057
H    2.51271011   1.03102731  -2.21553960
C    1.16901347   2.17548066  -3.03382228
H    0.71099097   3.13495230  -2.77864633
H    0.36732538   1.42448159  -3.11175775
H    1.64706128   2.27712436  -4.02069420
O    0.39445334  -1.72344629  -3.36908939
H   -0.38848569  -1.17783379  -3.20254581
C    0.16593462  -2.99467648  -2.78232984
H    1.05734848  -3.59640671  -2.97927464
H   -0.70065278  -3.51513146  -3.21928549
H    0.02487064  -2.94037144  -1.69149106
O   -1.37617514  -1.05012411   3.07669932
H   -0.72919963  -1.23974986   2.38107870
C   -1.70090954  -2.27794594   3.70878705
H   -2.43053016  -2.04608466   4.48941455
H   -0.83000649  -2.75393279   4.18600998
H   -2.15861073  -3.00364106   3.01838604
