72
Energy:   -415.93944434
O    0.51846434  -0.89714753  -1.64247823
H    0.98354788  -1.67362369  -1.29721694
C    0.06760303  -0.13682863  -0.53289586
H   -0.45393039   0.73378963  -0.93972742
H    0.89401831   0.22470773   0.09885297
H   -0.63936160  -0.69159572   0.10366664
O    0.60977300   0.19833514   2.95911908
H    0.08358373  -0.61502008   2.96029887
C   -0.29139478   1.29397605   2.95793660
H    0.31787549   2.20187097   2.95661414
H   -0.93507482   1.31611304   3.85122451
H   -0.93552615   1.31381394   2.06492005
O    0.12503343   1.09213260  -3.62430577
H    0.22766558   0.38710920  -2.96792789
C    1.23908778   1.03006655  -4.50041336
H    1.10747615   1.83081309  -5.23319473
H    1.29877528   0.07498670  -5.04542457
H    2.19693812   1.19515094  -3.98268062
O    2.85309377   1.21993836   1.64777079
H    2.14249503   0.81300407   2.16533932
C    3.77030196   1.80276165   2.55968083
H    4.56404136   2.25652376   1.96004518
H    4.23114815   1.06164794   3.23135679
H    3.31344646   2.59318258   3.17555024
O   -3.12146924  -1.76977472  -0.65828503
H   -3.19338524  -0.88500950  -0.27041668
C   -3.02668913  -1.61646840  -2.06542670
H   -2.94638551  -2.62238765  -2.48633403
H   -2.13596859  -1.04602143  -2.37199562
H   -3.91540965  -1.13391741  -2.50142866
O   -3.17776240   0.80632170   0.48265856
H   -2.63583889   1.58847806   0.30107216
C   -4.41227658   1.25331560   1.01997130
H   -5.01032126   0.35981519   1.21867909
H   -4.97429950   1.89165796   0.32038099
H   -4.29028375   1.80024578   1.96800213
O    1.28175373   3.09559854   0.17210923
H    1.87631578   2.52815821   0.68487694
C    1.81245433   3.20145892  -1.13925808
H    1.13065397   3.84382092  -1.70317698
H    1.87040129   2.22976964  -1.65427209
H    2.81143293   3.66458094  -1.15761816
O    1.58890325  -3.12972719  -0.24549363
H    0.68503607  -3.41569499  -0.04632081
C    2.20999311  -2.78038627   0.98118565
H    3.22704158  -2.46069078   0.73850806
H    2.27644625  -3.62827472   1.68079018
H    1.70300757  -1.94704178   1.49234116
O   -0.93817893  -2.14075446   2.65865851
H   -0.96818278  -2.73205487   1.89192070
C   -2.27576981  -1.83431341   3.01848945
H   -2.22351695  -1.16761128   3.88351148
H   -2.85288307  -2.72607019   3.30915670
H   -2.82261066  -1.31231769   2.21770053
O    4.45927913   1.03432797  -0.70955092
H    3.92204667   1.04845563   0.09642983
C    4.05052164  -0.08472264  -1.47973066
H    4.66561707  -0.08551568  -2.38368984
H    2.99416155  -0.02739233  -1.78566190
H    4.20967151  -1.04123475  -0.95768352
O   -1.17194246  -3.57987100   0.22443022
H   -1.85206074  -3.01013889  -0.16450130
C   -1.46384539  -4.91644050  -0.15094746
H   -0.68822633  -5.54464663   0.29543505
H   -1.43921629  -5.06685569  -1.24161056
H   -2.44007561  -5.26024951   0.22528022
O   -1.54195081   3.03019852  -0.05732388
H   -0.58490460   3.15046975   0.03223431
C   -1.89802990   3.38470503  -1.38399889
H   -2.97902204   3.24342179  -1.46754668
H   -1.41117064   2.74827919  -2.13945077
H   -1.67214177   4.43679673  -1.61821021
