72
Energy:   -416.11687998
O    2.55290907   0.02145750  -2.59450144
H    1.99731905  -0.60214005  -3.08528561
C    3.23742236  -0.71018981  -1.59017701
H    3.85846096   0.00728937  -1.04701968
H    3.89775157  -1.48738738  -2.00575686
H    2.55357323  -1.18449037  -0.86895119
O   -1.64354596   1.03079611  -0.98070379
H   -2.26795160   1.31341311  -0.29611011
C   -0.50502961   0.49126342  -0.32861579
H    0.18790420   0.17795912  -1.11421642
H   -0.74509053  -0.39022163   0.28630876
H    0.01016169   1.22843757   0.30693872
O   -1.70351621  -0.29428659  -3.44477602
H   -1.73441223   0.17882648  -2.60000816
C   -1.64469396   0.67494247  -4.47902393
H   -1.61044099   0.12496445  -5.42339468
H   -0.74466997   1.30671687  -4.41906352
H   -2.52907248   1.33091242  -4.49787590
O    2.18988895  -0.66316926   1.84791912
H    2.28973154   0.28456762   1.67399519
C    2.18950884  -0.84488780   3.25487044
H    2.07623517  -1.91769174   3.43304449
H    1.35378105  -0.32642270   3.75038060
H    3.12962322  -0.51795664   3.72612229
O   -2.02755498  -2.93008969   0.66180663
H   -1.06253344  -2.94197585   0.57804843
C   -2.57024121  -2.75596590  -0.63731089
H   -3.65774131  -2.74485085  -0.52459354
H   -2.30637218  -3.57717988  -1.32196997
H   -2.26541311  -1.80499855  -1.10155034
O   -3.48438307   1.56513912   1.08966862
H   -3.35347222   0.77799072   1.63892542
C   -4.83004184   1.55768873   0.64057985
H   -4.96024884   2.45086861   0.02352146
H   -5.55484491   1.60595904   1.46829226
H   -5.06704391   0.67791291   0.02203167
O    2.39448784   2.11515583   1.28210201
H    2.35994168   2.35148330   0.34328405
C    3.48291959   2.81581129   1.86256047
H    3.50729580   2.53814078   2.91981639
H    3.36708271   3.90913699   1.79933035
H    4.45151875   2.54257126   1.41542193
O    0.31906595   2.11662474   3.22387005
H    1.02890004   2.19103601   2.56887249
C   -0.73108312   2.98096184   2.82058097
H   -1.52214498   2.88476880   3.56921522
H   -1.15344454   2.70854674   1.84069415
H   -0.42209510   4.03736260   2.78423299
O    0.77737182  -2.74382928   0.60934749
H    1.28710704  -2.04243909   1.04137189
C    1.46739879  -3.96622748   0.81462579
H    0.87967155  -4.74536394   0.32166710
H    1.55804587  -4.22964414   1.88007035
H    2.47485757  -3.96572496   0.36987430
O    2.27255096   2.56955847  -1.45870947
H    2.41375625   1.74247568  -1.94287721
C    1.23151974   3.27827052  -2.11179065
H    1.08548544   4.20700842  -1.55357464
H    0.27795959   2.72736402  -2.11333688
H    1.48287751   3.54072868  -3.15136379
O    0.68324515  -1.74342373  -3.75155210
H   -0.18175447  -1.30731091  -3.75368375
C    0.54715212  -2.96598793  -3.04490562
H    1.53041147  -3.44414521  -3.05210808
H   -0.17037337  -3.65370941  -3.51921953
H    0.24646543  -2.81949160  -1.99566606
O   -2.93356088  -0.86500169   2.36197985
H   -2.71561611  -1.65084104   1.83912245
C   -1.85093615  -0.62237012   3.24605416
H   -2.11295062   0.26591969   3.82723815
H   -0.90721310  -0.41780012   2.71660610
H   -1.68187257  -1.45281588   3.94929998
