4
Energy:    -66.86287265
O    0.20796469   0.05241735   0.22559503
H    0.73912330   0.69259725  -0.24797870
H    0.54361525   0.07795651   1.12165212
K   -1.80962996  -0.96060853  -1.37894645
