4
Energy:    -68.92328618
O   -0.22108375   0.12483053   0.13644506
H   -1.09206462   0.52112842   0.11252494
H    0.22605301   0.57128917   0.85545498
K    1.36243628  -1.44996165  -1.32984992
