4
Energy:    -65.98209564
O    0.14414060   0.28541156  -0.04630812
H    1.00438954   0.70516942  -0.04367313
H   -0.38843313   0.83322649  -0.62293268
K   -0.94618399  -2.23308002   0.83269964
