4
Energy:    -70.49644110
O   -0.24678438   0.10332901   0.09627112
H   -0.94008260   0.55373536  -0.38612244
H   -0.59190567   0.01343969   0.98455208
K    2.15848725  -0.81998361  -0.84293037
