4
Energy:    -68.74143350
O   -0.14360317  -0.19388306   0.18002353
H   -0.10018209  -0.42417297   1.10809304
H   -0.94597092  -0.61118161  -0.13350441
K    1.43051368   1.50601984  -1.41330442
