4
Energy:    -68.15091331
O   -0.07799745  -0.23742414  -0.17565043
H   -0.91968879  -0.56049680  -0.49722719
H    0.57385267  -0.76299278  -0.63944012
K    0.52613299   1.90697419   1.58850455
