4
Energy:    -67.55625563
O   -0.18156645   0.19441113  -0.18420853
H    0.23818454   0.42713567  -1.01238740
H   -0.44292089   1.03293025   0.19633239
K    0.54759258  -1.98602028   1.24177512
