4
Energy:    -68.78040049
O   -0.03144464   0.15280891   0.25553033
H    0.30473229   0.89407241   0.75926176
H   -0.55150217  -0.34819976   0.88383147
K    0.33319809  -0.88224598  -2.29906772
