61
Energy:  -2133.06572998
O   -3.68608332   0.40453575   1.80987005
H   -3.53103398   0.96701908   2.56868759
H   -4.63614832   0.41479060   1.69366691
O    1.32622323  -0.02731441   3.71290594
H    1.97506931  -0.46777818   4.26174314
H    0.51191126  -0.08217449   4.21302418
O    0.11351811  -0.94538732   1.42304607
H    0.70081789  -0.72554815   2.14622070
H   -0.64880774  -1.34170901   1.84497055
O   -1.18184056  -0.20491452   4.84347380
H   -1.71377088   0.56483013   4.64154521
H   -1.37547294  -0.39642898   5.76111238
O    3.45661979   1.67223096  -1.77777840
H    3.80075520   0.78567419  -1.88649716
H    4.23495555   2.22390742  -1.69981441
O   -2.14199558  -1.70035967   2.68360142
H   -2.83480865  -1.09555994   2.41815993
H   -1.89655107  -1.41303471   3.56305194
O   -0.36728789   0.73920149  -2.31277270
H    0.28617809   1.12838274  -2.89393705
H   -1.00713986   0.34153022  -2.90326305
O   -2.20885550  -3.56401739   0.60623015
H   -2.51859858  -4.46826349   0.65751428
H   -2.31329086  -3.22380673   1.49481431
O    0.43709313  -2.54499851  -3.67407219
H    0.49706800  -3.46213299  -3.94146554
H    1.14056729  -2.10846050  -4.15447881
O    1.63388666   2.38639839   2.44931485
H    2.33605532   2.93019651   2.80635074
H    1.60767686   1.62090069   3.02338642
O    3.82225717  -1.02117480  -2.16537760
H    4.59827908  -1.57463693  -2.07761930
H    3.55554504  -1.12491952  -3.07879619
O   -1.48130508   1.20416358   0.39673420
H   -1.30628753   2.02142063   0.86330854
H   -2.33690439   0.92180007   0.71992536
O   -0.96220775   3.26921500   2.13308884
H   -0.04146355   3.12727410   2.35289503
H   -1.03597599   4.21533119   2.00797185
O   -1.95157237  -1.10908648  -3.59226404
H   -1.25467830  -1.70685903  -3.86289014
H   -2.62647997  -1.20757526  -4.26385286
O    1.23227309  -1.40031616  -1.30814161
H    2.18228416  -1.35117095  -1.41442226
H    0.93848255  -1.95619779  -2.02988574
O   -1.63770556  -1.40965334  -0.87672114
H   -2.02700204  -1.48832821  -1.74763466
H   -1.89497609  -2.21357725  -0.42533432
O    1.70435878   1.55638575  -3.90667489
H    1.66914009   2.30356093  -4.50393592
H    2.39169305   1.78230370  -3.27996561
O    2.53412311  -1.00673805  -4.62224219
H    2.92159052  -1.08095003  -5.49436227
H    2.24128551  -0.09714826  -4.56634591
O   -2.67281236   1.93285939   3.88332141
H   -3.16576175   2.52389810   4.45244882
H   -2.10461837   2.50969791   3.37278762
O    1.41819484   1.21841738  -0.01692370
H    2.15604375   1.46370885  -0.57517358
H    1.57639448   1.68009182   0.80652116
Ca  -0.11743050  -0.10024620  -0.43881540
