61
Energy:  -2131.06710286
O   -2.69581375  -0.23043823   2.99890331
H   -2.58925921   0.56235141   3.52460529
H   -3.63178833  -0.42537573   3.04562372
O    0.95958022   1.64316965   3.46660771
H    1.15448733   2.46301726   3.01263308
H    0.71701621   1.91139033   4.35286513
O    0.95350260  -0.59100751   1.98848464
H    1.07741853   0.13178426   2.60366652
H    0.56763231  -1.29095390   2.51518287
O   -0.16649304   2.43525331   5.89330637
H    0.08118090   3.28385421   6.26041123
H   -0.05891708   1.81954147   6.61826029
O    3.47081015   0.93347748  -1.66872160
H    4.37218241   1.20365726  -1.84411479
H    3.03138676   0.99883917  -2.51658172
O   -0.95507747  -2.40898751   2.85436582
H   -1.02264838  -3.11996096   3.49169052
H   -1.62443844  -1.78025921   3.12434445
O   -0.33287883   0.11232373  -1.85625600
H   -1.06547240  -0.30039660  -2.31364035
H    0.24397820   0.41984940  -2.55546683
O   -0.76247107  -1.50206172  -5.46658515
H   -0.94694911  -1.59992791  -6.40072749
H    0.18281184  -1.63373928  -5.39355709
O   -1.05829407  -3.60506453  -2.03366084
H   -1.53363201  -4.42608045  -2.16101286
H   -1.55421116  -2.95995621  -2.53777723
O    1.05313222   3.71970037   1.62946570
H    1.39084962   4.61531292   1.63701320
H    0.10228179   3.82140200   1.67156185
O    1.95203179  -1.18503593  -0.74310979
H    2.72234612  -0.69022828  -1.02241801
H    1.95302440  -1.96446956  -1.29873022
O   -1.30879829   0.77858281   0.86342133
H   -1.43395206   1.71882753   0.99190579
H   -1.86911256   0.36956094   1.52295213
O   -1.67912179   3.36152691   1.74751278
H   -1.93821243   3.08214133   2.62560594
H   -2.34624146   3.99852232   1.49173936
O   -2.19060522  -1.38577929  -3.19040462
H   -3.11398826  -1.22160716  -3.38182852
H   -1.76805910  -1.40949008  -4.04896412
O    1.65080386  -3.27210133  -2.49787641
H    0.72975331  -3.52227313  -2.42499424
H    2.13019407  -4.09730348  -2.42399614
O   -0.72229752  -1.98772771   0.13980772
H   -0.91372671  -2.65120987  -0.52304833
H   -0.93085231  -2.41256041   0.97182570
O    1.59459859   0.76959626  -3.70416688
H    1.45048817   1.41131286  -4.39962632
H    1.74889523  -0.05440964  -4.16616112
O    1.91453928  -1.73144315  -4.79507755
H    2.58540789  -2.06943624  -5.38831260
H    1.89695349  -2.35738143  -4.07111356
O   -2.37751120   2.25814691   4.20967264
H   -3.11298405   2.61559916   4.70720599
H   -1.63330554   2.31222092   4.80922728
O    1.39893115   1.54551428   0.02047743
H    2.21404140   1.60680080  -0.47758992
H    1.36687335   2.35586586   0.52894029
Ca   0.32545278  -0.20927980   0.07306815
