61
Energy:  -2138.99400995
O   -3.38459262  -0.43005585   1.52490237
H   -3.05027777  -0.47864572   2.42050521
H   -4.33492138  -0.49429507   1.61966747
O    1.77373983   2.32850731   4.47038661
H    1.85418922   2.83123330   3.65981501
H    2.34716323   2.77925728   5.09025911
O    0.23797937  -0.54199137   1.96962145
H    1.06795710  -0.46924412   2.44087156
H   -0.42479200  -0.59747642   2.65801622
O   -0.97432700   2.12164148   4.65583030
H   -1.28764460   2.45967100   5.49475817
H   -0.02020223   2.15432665   4.72518045
O    3.38437654   0.42302395  -1.50024510
H    4.33517902   0.48460100  -1.59197705
H    3.05244557   0.48333310  -2.39602213
O    2.51647184  -0.05163624   3.27857413
H    2.37312625   0.73376170   3.80662145
H    3.23299786  -0.50911811   3.71849759
O   -0.25131558   0.53817650  -1.96210576
H   -1.07782978   0.44157381  -2.43515339
H    0.41249846   0.60002642  -2.64895171
O   -1.68856233  -2.30453294  -4.58575478
H   -2.05372859  -2.62678231  -5.40979410
H   -0.75042848  -2.21971722  -4.75588123
O   -1.65724890  -3.44665209  -2.08214731
H   -1.80245114  -3.10778376  -2.96550251
H   -2.25585200  -4.18997852  -2.00885348
O    1.56910067   3.53242887   1.98678132
H    1.96323726   4.37966334   1.77921938
H    0.63194801   3.71436609   2.05660669
O    1.45666784  -1.32400507  -0.60665982
H    2.31066025  -0.97192960  -0.85760137
H    1.39180881  -2.15481005  -1.07760381
O   -1.46976610   1.32116186   0.61922887
H   -1.41203283   2.14707374   1.09961235
H   -2.31938172   0.95746274   0.86844383
O   -1.16408762   3.48680302   2.26766388
H   -1.21309808   3.10145255   3.14249806
H   -1.75411880   4.23966426   2.30365011
O   -2.52411525  -0.02683424  -3.25514555
H   -3.26832947   0.41938780  -3.65920363
H   -2.35878668  -0.77974692  -3.82261433
O    1.08504367  -3.51948892  -2.19451033
H    0.14345842  -3.68095699  -2.13470120
H    1.48538086  -4.37602709  -2.04516393
O   -1.47090360  -1.43874087  -0.21147719
H   -1.63025879  -2.13886347  -0.84445911
H   -2.28639863  -1.37440297   0.28557446
O    1.79292980   0.39827910  -3.77901331
H    1.61036002  -0.46081458  -4.15961569
H    1.90348036   0.97654536  -4.53374409
O    1.09037875  -2.14355292  -4.60263959
H    1.58989437  -2.58036155  -5.29250495
H    1.20918730  -2.69880832  -3.83205033
O   -1.78823714  -0.38338076   3.80121246
H   -1.57721929   0.46699946   4.18664312
H   -1.89983308  -0.96622860   4.55225612
O    1.45872842   1.43958682   0.21491755
H    2.28097661   1.36540732  -0.26947604
H    1.59834910   2.17310475   0.81382436
Ca  -0.00535485  -0.00005342   0.00427417
