25
Energy:   -811.98426813
O   -0.18281102  -2.32004204  -2.47520907
H   -0.39902710  -3.24885598  -2.39282499
H   -0.02964736  -2.19140255  -3.41127777
O   -2.03702809  -0.60987843  -1.24369398
H   -2.55667440  -0.19728484  -1.93359694
H   -1.50421388  -1.26037276  -1.70107566
O    3.13084477   1.10080744  -0.18131440
H    3.92976609   1.37329487  -0.63265370
H    2.89853244   0.26585295  -0.58765641
O    1.88290607  -1.34611306  -0.84312711
H    1.26951255  -1.71824705  -1.47676465
H    2.37578092  -2.09855638  -0.51581183
O    0.02328490   0.29549846   0.31526992
H   -0.74304663   0.05191386  -0.20399338
H    0.72656667  -0.26108437  -0.01915817
O   -3.04603886  -0.02447311   1.32962313
H   -2.90828849  -0.38962042   0.45559560
H   -3.85569747  -0.43320602   1.63560057
O    1.42560740   1.99772218   1.70929157
H    2.11185444   1.77427159   1.08050966
H    1.86912289   2.53051310   2.36933679
O   -1.13652758   1.67097302   2.20478717
H   -1.48656925   2.32443379   2.81033790
H   -1.88452249   1.11080975   1.99753712
H    0.10537894   1.33735430   1.42680678
