25
Energy:   -810.21585663
O    1.89568760   0.40198390   1.40086277
H    2.38053619   0.22900171   2.20785152
H    1.62340357   1.31657191   1.47584301
O    1.82579258  -2.08796799   0.57534371
H    1.04648151  -2.64217265   0.61733542
H    2.54282453  -2.69550936   0.39371082
O   -0.33312542   2.33827277  -0.84249497
H    0.05299180   2.73307203  -0.06065171
H   -0.23306926   3.00472077  -1.52225058
O    1.00503119   3.02736694   1.50662391
H    0.43147320   3.27971362   2.23021511
H    1.66623885   3.71863446   1.47219302
O    0.65850722  -0.21458231  -0.82262334
H    0.33972767   0.68075760  -0.93654385
H   -0.02878295  -0.76383361  -1.19970037
O   -1.52115450  -1.68348450  -1.57211241
H   -2.05917133  -0.92499027  -1.34527272
H   -1.86128932  -1.97458241  -2.41816333
O   -0.58600666  -3.23588783   0.51439310
H   -1.15163453  -3.93598371   0.84021933
H   -1.08123235  -2.84189258  -0.20376503
O   -2.62558818   0.70275026  -0.88559460
H   -3.47283058   1.14177542  -0.81030133
H   -1.98389017   1.41224003  -0.85273454
H    1.46055818  -0.64926396   0.34540107
