
                                 *****************
                                 * O   R   C   A *
                                 *****************

           --- An Ab Initio, DFT and Semiempirical electronic structure package ---

                  #######################################################
                  #                        -***-                        #
                  #          Department of theory and spectroscopy      #
                  #               Directorship: Frank Neese             #
                  #        Max Planck Institute fuer Kohlenforschung    #
                  #                Kaiser Wilhelm Platz 1               #
                  #                 D-45470 Muelheim/Ruhr               #
                  #                      Germany                        #
                  #                                                     #
                  #                  All rights reserved                #
                  #                        -***-                        #
                  #######################################################


                         Program Version 4.2.0 -  RELEASE  -


 With contributions from (in alphabetic order):
   Daniel Aravena         : Magnetic Suceptibility
   Michael Atanasov       : Ab Initio Ligand Field Theory (pilot matlab implementation)
   Alexander A. Auer      : GIAO ZORA, VPT2
   Ute Becker             : Parallelization
   Giovanni Bistoni       : ED, misc. LED, open-shell LED, HFLED
   Martin Brehm           : Molecular dynamics
   Dmytro Bykov           : SCF Hessian
   Vijay G. Chilkuri      : MRCI spin determinant printing, contributions to CSF-ICE
   Dipayan Datta          : RHF DLPNO-CCSD density
   Achintya Kumar Dutta   : EOM-CC, STEOM-CC
   Dmitry Ganyushin       : Spin-Orbit,Spin-Spin,Magnetic field MRCI
   Miquel Garcia          : C-PCM Hessian, Gaussian charge scheme
   Yang Guo               : DLPNO-NEVPT2, CIM, IAO-localization
   Andreas Hansen         : Spin unrestricted coupled pair/coupled cluster methods
   Benjamin Helmich-Paris : CASSCF linear response (MC-RPA)
   Lee Huntington         : MR-EOM, pCC
   Robert Izsak           : Overlap fitted RIJCOSX, COSX-SCS-MP3, EOM
   Christian Kollmar      : KDIIS, OOCD, Brueckner-CCSD(T), CCSD density
   Simone Kossmann        : Meta GGA functionals, TD-DFT gradient, OOMP2, MP2 Hessian
   Martin Krupicka        : AUTO-CI
   Lucas Lang             : DCDCAS
   Dagmar Lenk            : GEPOL surface, SMD
   Dimitrios Liakos       : Extrapolation schemes; Compound Job, initial MDCI parallelization
   Dimitrios Manganas     : Further ROCIS development; embedding schemes
   Dimitrios Pantazis     : SARC Basis sets
   Taras Petrenko         : DFT Hessian,TD-DFT gradient, ASA, ECA, R-Raman, ABS, FL, XAS/XES, NRVS
   Peter Pinski           : DLPNO-MP2, DLPNO-MP2 Gradient
   Christoph Reimann      : Effective Core Potentials
   Marius Retegan         : Local ZFS, SOC
   Christoph Riplinger    : Optimizer, TS searches, QM/MM, DLPNO-CCSD(T), (RO)-DLPNO pert. Triples
   Tobias Risthaus        : Range-separated hybrids, TD-DFT gradient, RPA, STAB
   Michael Roemelt        : Original ROCIS implementation
   Masaaki Saitow         : Open-shell DLPNO-CCSD energy and density
   Barbara Sandhoefer     : DKH picture change effects
   Avijit Sen             : IP-ROCIS
   Kantharuban Sivalingam : CASSCF convergence, NEVPT2, FIC-MRCI
   Bernardo de Souza      : ESD, SOC TD-DFT
   Georgi Stoychev        : AutoAux, RI-MP2 NMR
   Willem Van den Heuvel  : Paramagnetic NMR
   Boris Wezisla          : Elementary symmetry handling
   Frank Wennmohs         : Technical directorship


 We gratefully acknowledge several colleagues who have allowed us to
 interface, adapt or use parts of their codes:
   Stefan Grimme, W. Hujo, H. Kruse,             : VdW corrections, initial TS optimization,
                  C. Bannwarth                     DFT functionals, gCP, sTDA/sTD-DF
   Ed Valeev, F. Pavosevic, A. Kumar             : LibInt (2-el integral package), F12 methods
   Garnet Chan, S. Sharma, J. Yang, R. Olivares  : DMRG
   Ulf Ekstrom                                   : XCFun DFT Library
   Mihaly Kallay                                 : mrcc  (arbitrary order and MRCC methods)
   Andreas Klamt, Michael Diedenhofen            : otool_cosmo (COSMO solvation model)
   Jiri Pittner, Ondrej Demel                    : Mk-CCSD
   Frank Weinhold                                : gennbo (NPA and NBO analysis)
   Christopher J. Cramer and Donald G. Truhlar   : smd solvation model
   Lars Goerigk                                  : TD-DFT with DH, B97 family of functionals
   V. Asgeirsson, H. Jonsson                     : NEB implementation
   FAccTs GmbH                                   : IRC, NEB, NEB-TS, Multilevel, MM, QM/MM, CI optimization
   S Lehtola, MJT Oliveira, MAL Marques          : LibXC Library


 Your calculation uses the libint2 library for the computation of 2-el integrals
 For citations please refer to: http://libint.valeyev.net

 Your ORCA version has been built with support for libXC version: 4.2.3
 For citations please refer to: https://tddft.org/programs/libxc/

 This ORCA versions uses:
   CBLAS   interface :  Fast vector & matrix operations
   LAPACKE interface :  Fast linear algebra routines
   SCALAPACK package :  Parallel linear algebra routines


----- Orbital basis set information -----
Your calculation utilizes the basis: def2-TZVP
   F. Weigend and R. Ahlrichs, Phys. Chem. Chem. Phys. 7, 3297 (2005).

================================================================================
                                        WARNINGS
                       Please study these warnings very carefully!
================================================================================


WARNING: The frozen-core approximation for MP2-gradient calculations is turned on by default.

INFO   : the flag for use of LIBINT has been found!

================================================================================
                                       INPUT FILE
================================================================================
NAME = 12h2o.su.etal.mol2,3,7,9,11-orca.engrad-mp2.def2tzvp.frozencore.inp
|  1> # 12h2o.su.etal.mol2,3,7,9,11
|  2> ! MP2 def2-TZVP EnGrad TightSCF
|  3> 
|  4> %pal
|  5>     nprocs 6
|  6> end
|  7> 
|  8> %maxcore 8000
|  9> 
| 10> %scf
| 11>     ConvForced true
| 12> end
| 13> 
| 14> *xyz 0 1
| 15> O   0.923410000  -1.794470000  -2.768350000
| 16> H   1.359750000  -2.338250000  -3.430940000
| 17> H   1.303000000  -0.879480000  -2.865760000
| 18> O  -1.752130000  -0.741530000  -2.896280000
| 19> H  -2.036450000  -0.920500000  -1.984040000
| 20> H  -0.921210000  -1.242140000  -2.984230000
| 21> O  -1.737840000  -0.885520000  -0.052730000
| 22> H  -2.090180000  -1.032320000   0.841890000
| 23> H  -0.839590000  -1.284090000  -0.017130000
| 24> O   0.741530000  -1.752130000   2.896280000
| 25> H   0.920500000  -2.036450000   1.984040000
| 26> H   1.242140000  -0.921210000   2.984230000
| 27> O  -0.741530000   1.752130000   2.896280000
| 28> H  -0.920500000   2.036450000   1.984040000
| 29> H  -1.242140000   0.921210000   2.984230000
| 30> *
| 31> 
| 32>                          ****END OF INPUT****
================================================================================

                     *******************************
                     * Energy+Gradient Calculation *
                     *******************************

---------------------------------
CARTESIAN COORDINATES (ANGSTROEM)
---------------------------------
  O      0.923410   -1.794470   -2.768350
  H      1.359750   -2.338250   -3.430940
  H      1.303000   -0.879480   -2.865760
  O     -1.752130   -0.741530   -2.896280
  H     -2.036450   -0.920500   -1.984040
  H     -0.921210   -1.242140   -2.984230
  O     -1.737840   -0.885520   -0.052730
  H     -2.090180   -1.032320    0.841890
  H     -0.839590   -1.284090   -0.017130
  O      0.741530   -1.752130    2.896280
  H      0.920500   -2.036450    1.984040
  H      1.242140   -0.921210    2.984230
  O     -0.741530    1.752130    2.896280
  H     -0.920500    2.036450    1.984040
  H     -1.242140    0.921210    2.984230

----------------------------
CARTESIAN COORDINATES (A.U.)
----------------------------
  NO LB      ZA    FRAG     MASS         X           Y           Z
   0 O     8.0000    0    15.999    1.744992   -3.391057   -5.231423
   1 H     1.0000    0     1.008    2.569555   -4.418652   -6.483537
   2 H     1.0000    0     1.008    2.462313   -1.661976   -5.415502
   3 O     8.0000    0    15.999   -3.311046   -1.401289   -5.473176
   4 H     1.0000    0     1.008   -3.848333   -1.739493   -3.749292
   5 H     1.0000    0     1.008   -1.740835   -2.347304   -5.639377
   6 O     8.0000    0    15.999   -3.284042   -1.673390   -0.099645
   7 H     1.0000    0     1.008   -3.949868   -1.950802    1.590942
   8 H     1.0000    0     1.008   -1.586595   -2.426578   -0.032371
   9 O     8.0000    0    15.999    1.401289   -3.311046    5.473176
  10 H     1.0000    0     1.008    1.739493   -3.848333    3.749292
  11 H     1.0000    0     1.008    2.347304   -1.740835    5.639377
  12 O     8.0000    0    15.999   -1.401289    3.311046    5.473176
  13 H     1.0000    0     1.008   -1.739493    3.848333    3.749292
  14 H     1.0000    0     1.008   -2.347304    1.740835    5.639377

--------------------------------
INTERNAL COORDINATES (ANGSTROEM)
--------------------------------
 O      0   0   0     0.000000000000     0.00000000     0.00000000
 H      1   0   0     0.961828878803     0.00000000     0.00000000
 H      1   2   0     0.995381322057   106.21731035     0.00000000
 O      1   2   3     2.878117964938   126.72240291   103.59081140
 H      4   1   2     0.972136791249    99.37069922   136.92500856
 H      4   1   2     0.974050112161    12.30570018    24.40947955
 O      5   4   1     1.954571525578   151.55104644    46.66533865
 H      7   5   4     0.972645187106   148.29772527   173.62852352
 H      7   5   4     0.983350632989    99.67573411   310.71905253
 O      9   7   5     3.347679752321   121.30565948   180.27712029
 H     10   9   7     0.972136791249    46.46358234   170.36223581
 H     10   9   7     0.974050112161   101.65702229   268.49406050
 O     12  10   9     3.330079372477   112.10393238    57.12088516
 H     13  12  10     0.972136791249   111.66865871   274.58268625
 H     13  12  10     0.974050112161    67.60081190    11.19262967

---------------------------
INTERNAL COORDINATES (A.U.)
---------------------------
 O      0   0   0     0.000000000000     0.00000000     0.00000000
 H      1   0   0     1.817593168635     0.00000000     0.00000000
 H      1   2   0     1.880998097508   106.21731035     0.00000000
 O      1   2   3     5.438854734852   126.72240291   103.59081140
 H      4   1   2     1.837072300170    99.37069922   136.92500856
 H      4   1   2     1.840687952699    12.30570018    24.40947955
 O      5   4   1     3.693604892503   151.55104644    46.66533865
 H      7   5   4     1.838033029106   148.29772527   173.62852352
 H      7   5   4     1.858263389967    99.67573411   310.71905253
 O      9   7   5     6.326197915960   121.30565948   180.27712029
 H     10   9   7     1.837072300170    46.46358234   170.36223581
 H     10   9   7     1.840687952699   101.65702229   268.49406050
 O     12  10   9     6.292938018203   112.10393238    57.12088516
 H     13  12  10     1.837072300170   111.66865871   274.58268625
 H     13  12  10     1.840687952699    67.60081190    11.19262967

---------------------
BASIS SET INFORMATION
---------------------
There are 2 groups of distinct atoms

 Group   1 Type O   : 11s6p2d1f contracted to 5s3p2d1f pattern {62111/411/11/1}
 Group   2 Type H   : 5s1p contracted to 3s1p pattern {311/1}

Atom   0O    basis set group =>   1
Atom   1H    basis set group =>   2
Atom   2H    basis set group =>   2
Atom   3O    basis set group =>   1
Atom   4H    basis set group =>   2
Atom   5H    basis set group =>   2
Atom   6O    basis set group =>   1
Atom   7H    basis set group =>   2
Atom   8H    basis set group =>   2
Atom   9O    basis set group =>   1
Atom  10H    basis set group =>   2
Atom  11H    basis set group =>   2
Atom  12O    basis set group =>   1
Atom  13H    basis set group =>   2
Atom  14H    basis set group =>   2


           ************************************************************
           *        Program running with 6 parallel MPI-processes     *
           *              working on a common directory               *
           ************************************************************
------------------------------------------------------------------------------
                           ORCA GTO INTEGRAL CALCULATION
------------------------------------------------------------------------------

                         BASIS SET STATISTICS AND STARTUP INFO

 # of primitive gaussian shells          ...  160
 # of primitive gaussian functions       ...  310
 # of contracted shells                  ...   95
 # of contracted basis functions         ...  215
 Highest angular momentum                ...    3
 Maximum contraction depth               ...    6
 Integral package used                   ... LIBINT
 Integral threshhold            Thresh   ...  2.500e-11
 Primitive cut-off              TCut     ...  2.500e-12


------------------------------ INTEGRAL EVALUATION ----------------------------


 * One electron integrals 
 Pre-screening matrix                    ... done
 Shell pair data                         ... done (   0.001 sec)



           ************************************************************
           *        Program running with 6 parallel MPI-processes     *
           *              working on a common directory               *
           ************************************************************
-------------------------------------------------------------------------------
                                 ORCA SCF
-------------------------------------------------------------------------------

------------
SCF SETTINGS
------------
Hamiltonian:
 Ab initio Hamiltonian  Method          .... Hartree-Fock(GTOs)


General Settings:
 Integral files         IntName         .... 12h2o.su.etal.mol2,3,7,9,11-orca.engrad-mp2.def2tzvp.frozencore
 Hartree-Fock type      HFTyp           .... RHF
 Total Charge           Charge          ....    0
 Multiplicity           Mult            ....    1
 Number of Electrons    NEL             ....   50
 Basis Dimension        Dim             ....  215
 Nuclear Repulsion      ENuc            ....    170.8894805128 Eh

Convergence Acceleration:
 DIIS                   CNVDIIS         .... on
   Start iteration      DIISMaxIt       ....    12
   Startup error        DIISStart       ....  0.200000
   # of expansion vecs  DIISMaxEq       ....     5
   Bias factor          DIISBfac        ....   1.050
   Max. coefficient     DIISMaxC        ....  10.000
 Newton-Raphson         CNVNR           .... off
 SOSCF                  CNVSOSCF        .... on
   Start iteration      SOSCFMaxIt      ....   150
   Startup grad/error   SOSCFStart      ....  0.003300
 Level Shifting         CNVShift        .... on
   Level shift para.    LevelShift      ....    0.2500
   Turn off err/grad.   ShiftErr        ....    0.0010
 Zerner damping         CNVZerner       .... off
 Static damping         CNVDamp         .... on
   Fraction old density DampFac         ....    0.7000
   Max. Damping (<1)    DampMax         ....    0.9800
   Min. Damping (>=0)   DampMin         ....    0.0000
   Turn off err/grad.   DampErr         ....    0.1000
 Fernandez-Rico         CNVRico         .... off

SCF Procedure:
 Maximum # iterations   MaxIter         ....   125
 SCF integral mode      SCFMode         .... Direct
   Integral package                     .... LIBINT
 Reset frequency        DirectResetFreq ....    20
 Integral Threshold     Thresh          ....  2.500e-11 Eh
 Primitive CutOff       TCut            ....  2.500e-12 Eh

Convergence Tolerance:
 Convergence Check Mode ConvCheckMode   .... Total+1el-Energy
 Convergence forced     ConvForced      .... 1
 Energy Change          TolE            ....  1.000e-08 Eh
 1-El. energy change                    ....  1.000e-05 Eh
 Orbital Gradient       TolG            ....  1.000e-05
 Orbital Rotation angle TolX            ....  1.000e-05
 DIIS Error             TolErr          ....  5.000e-07


Diagonalization of the overlap matrix:
Smallest eigenvalue                        ... 6.827e-03
Time for diagonalization                   ...    0.012 sec
Threshold for overlap eigenvalues          ... 1.000e-08
Number of eigenvalues below threshold      ... 0
Time for construction of square roots      ...    0.006 sec
Total time needed                          ...    0.017 sec

-------------------
DFT GRID GENERATION
-------------------

General Integration Accuracy     IntAcc      ...  4.340
Radial Grid Type                 RadialGrid  ... Gauss-Chebyshev
Angular Grid (max. acc.)         AngularGrid ... Lebedev-110
Angular grid pruning method      GridPruning ... 3 (G Style)
Weight generation scheme         WeightScheme... Becke
Basis function cutoff            BFCut       ...    1.0000e-11
Integration weight cutoff        WCut        ...    1.0000e-14
Grids for H and He will be reduced by one unit

# of grid points (after initial pruning)     ...  16520 (   0.0 sec)
# of grid points (after weights+screening)   ...  15873 (   0.0 sec)
nearest neighbour list constructed           ...    0.0 sec
Grid point re-assignment to atoms done       ...    0.0 sec
Grid point division into batches done        ...    0.0 sec
Reduced shell lists constructed in    0.0 sec

Total number of grid points                  ...    15873
Total number of batches                      ...      256
Average number of points per batch           ...       62
Average number of grid points per atom       ...     1058
Average number of shells per batch           ...    42.50 (44.74%)
Average number of basis functions per batch  ...    85.00 (39.53%)
Average number of large shells per batch     ...    29.57 (69.57%)
Average number of large basis fcns per batch ...    58.70 (69.06%)
Maximum spatial batch extension              ...  16.16, 15.53, 17.28 au
Average spatial batch extension              ...   0.76,  0.73,  0.71 au

Time for grid setup =    0.041 sec

------------------------------
INITIAL GUESS: MODEL POTENTIAL
------------------------------
Loading Hartree-Fock densities                     ... done
Calculating cut-offs                               ... done
Setting up the integral package                    ... done
Initializing the effective Hamiltonian             ... done
Starting the Coulomb interaction                   ... done (   0.0 sec)
Reading the grid                                   ... done
Mapping shells                                     ... done
Starting the XC term evaluation                    ... done (   0.0 sec)
Transforming the Hamiltonian                       ... done (   0.0 sec)
Diagonalizing the Hamiltonian                      ... done (   0.0 sec)
Back transforming the eigenvectors                 ... done (   0.0 sec)
Now organizing SCF variables                       ... done
                      ------------------
                      INITIAL GUESS DONE (   0.3 sec)
                      ------------------
--------------
SCF ITERATIONS
--------------
ITER       Energy         Delta-E        Max-DP      RMS-DP      [F,P]     Damp
               ***  Starting incremental Fock matrix formation  ***
  0   -379.8183517662   0.000000000000 0.04381021  0.00108328  0.3408139 0.7000
  1   -380.0083301781  -0.189978411851 0.02898626  0.00074483  0.2162986 0.7000
                               ***Turning on DIIS***
  2   -380.1076716455  -0.099341467478 0.01607720  0.00040851  0.1637865 0.7000
  3   -380.9570105377  -0.849338892144 0.00753828  0.00017903  0.1218413 0.7000
  4   -380.7796236756   0.177386862100 0.01685942  0.00041160  0.0862229 0.0000
  5   -380.3359600925   0.443663583094 0.00193360  0.00006674  0.0055634 0.0000
                      *** Initiating the SOSCF procedure ***
                           *** Shutting down DIIS ***
                      *** Re-Reading the Fockian *** 
                      *** Removing any level shift *** 
ITER      Energy       Delta-E        Grad      Rot      Max-DP    RMS-DP
  6   -380.30639322   0.0295668761  0.000805  0.000805  0.001197  0.000040
               *** Restarting incremental Fock matrix formation ***
  7   -380.29796468   0.0084285374  0.000288  0.000413  0.000559  0.000017
  8   -380.29797177  -0.0000070934  0.000110  0.000312  0.000409  0.000014
  9   -380.29797341  -0.0000016382  0.000072  0.000044  0.000098  0.000003
 10   -380.29797355  -0.0000001402  0.000008  0.000007  0.000018  0.000000
                  ***Gradient check signals convergence***
              ***Rediagonalizing the Fockian in SOSCF/NRSCF***

               *****************************************************
               *                     SUCCESS                       *
               *           SCF CONVERGED AFTER  11 CYCLES          *
               *****************************************************


----------------
TOTAL SCF ENERGY
----------------

Total Energy       :         -380.29797355 Eh          -10348.43396 eV

Components:
Nuclear Repulsion  :          170.88948051 Eh            4650.13917 eV
Electronic Energy  :         -551.18745407 Eh          -14998.57314 eV
One Electron Energy:         -865.04236749 Eh          -23538.99952 eV
Two Electron Energy:          313.85491342 Eh            8540.42638 eV

Virial components:
Potential Energy   :         -760.01153532 Eh          -20680.96528 eV
Kinetic Energy     :          379.71356177 Eh           10332.53131 eV
Virial Ratio       :            2.00153909


---------------
SCF CONVERGENCE
---------------

  Last Energy change         ...   -3.0541e-09  Tolerance :   1.0000e-08
  Last MAX-Density change    ...    5.3026e-06  Tolerance :   1.0000e-07
  Last RMS-Density change    ...    1.4238e-07  Tolerance :   5.0000e-09
  Last Orbital Gradient      ...    2.3782e-06  Tolerance :   1.0000e-05
  Last Orbital Rotation      ...    2.9897e-06  Tolerance :   1.0000e-05

             **** THE GBW FILE WAS UPDATED (12h2o.su.etal.mol2,3,7,9,11-orca.engrad-mp2.def2tzvp.frozencore.gbw) ****
             **** DENSITY FILE WAS UPDATED (12h2o.su.etal.mol2,3,7,9,11-orca.engrad-mp2.def2tzvp.frozencore.scfp) ****
             **** ENERGY FILE WAS UPDATED (12h2o.su.etal.mol2,3,7,9,11-orca.engrad-mp2.def2tzvp.frozencore.en.tmp) ****
             **** THE GBW FILE WAS UPDATED (12h2o.su.etal.mol2,3,7,9,11-orca.engrad-mp2.def2tzvp.frozencore.gbw) ****
             **** DENSITY FILE WAS UPDATED (12h2o.su.etal.mol2,3,7,9,11-orca.engrad-mp2.def2tzvp.frozencore.scfp) ****
----------------
ORBITAL ENERGIES
----------------

  NO   OCC          E(Eh)            E(eV) 
   0   2.0000     -20.598338      -560.5093 
   1   2.0000     -20.590555      -560.2975 
   2   2.0000     -20.579849      -560.0062 
   3   2.0000     -20.567588      -559.6725 
   4   2.0000     -20.508666      -558.0692 
   5   2.0000      -1.375976       -37.4422 
   6   2.0000      -1.368592       -37.2413 
   7   2.0000      -1.358814       -36.9752 
   8   2.0000      -1.346638       -36.6439 
   9   2.0000      -1.294069       -35.2134 
  10   2.0000      -0.743087       -20.2204 
  11   2.0000      -0.730958       -19.8904 
  12   2.0000      -0.721408       -19.6305 
  13   2.0000      -0.709150       -19.2969 
  14   2.0000      -0.673321       -18.3220 
  15   2.0000      -0.619592       -16.8600 
  16   2.0000      -0.602104       -16.3841 
  17   2.0000      -0.596258       -16.2250 
  18   2.0000      -0.584504       -15.9052 
  19   2.0000      -0.550390       -14.9769 
  20   2.0000      -0.535034       -14.5590 
  21   2.0000      -0.524390       -14.2694 
  22   2.0000      -0.517610       -14.0849 
  23   2.0000      -0.510935       -13.9032 
  24   2.0000      -0.458495       -12.4763 
  25   0.0000       0.076999         2.0952 
  26   0.0000       0.107735         2.9316 
  27   0.0000       0.132703         3.6110 
  28   0.0000       0.157110         4.2752 
  29   0.0000       0.175933         4.7874 
  30   0.0000       0.184164         5.0114 
  31   0.0000       0.214832         5.8459 
  32   0.0000       0.243117         6.6156 
  33   0.0000       0.259297         7.0558 
  34   0.0000       0.319616         8.6972 
  35   0.0000       0.455624        12.3981 
  36   0.0000       0.491762        13.3815 
  37   0.0000       0.499891        13.6027 
  38   0.0000       0.504058        13.7161 
  39   0.0000       0.515650        14.0316 
  40   0.0000       0.523767        14.2524 
  41   0.0000       0.541211        14.7271 
  42   0.0000       0.560903        15.2630 
  43   0.0000       0.568204        15.4616 
  44   0.0000       0.581582        15.8256 
  45   0.0000       0.602436        16.3931 
  46   0.0000       0.616524        16.7765 
  47   0.0000       0.623749        16.9731 
  48   0.0000       0.635392        17.2899 
  49   0.0000       0.638039        17.3619 
  50   0.0000       0.656162        17.8551 
  51   0.0000       0.689733        18.7686 
  52   0.0000       0.707240        19.2450 
  53   0.0000       0.715712        19.4755 
  54   0.0000       0.740896        20.1608 
  55   0.0000       0.745441        20.2845 
  56   0.0000       0.760835        20.7034 
  57   0.0000       0.776410        21.1272 
  58   0.0000       0.781783        21.2734 
  59   0.0000       0.796875        21.6841 
  60   0.0000       0.817777        22.2528 
  61   0.0000       0.865711        23.5572 
  62   0.0000       0.917782        24.9741 
  63   0.0000       0.954348        25.9691 
  64   0.0000       0.969108        26.3708 
  65   0.0000       1.381231        37.5852 
  66   0.0000       1.389127        37.8001 
  67   0.0000       1.390194        37.8291 
  68   0.0000       1.400031        38.0968 
  69   0.0000       1.405792        38.2535 
  70   0.0000       1.414460        38.4894 
  71   0.0000       1.435229        39.0546 
  72   0.0000       1.438537        39.1446 
  73   0.0000       1.456517        39.6338 
  74   0.0000       1.508800        41.0565 
  75   0.0000       1.533245        41.7217 
  76   0.0000       1.543656        42.0050 
  77   0.0000       1.554424        42.2980 
  78   0.0000       1.573792        42.8250 
  79   0.0000       1.646531        44.8044 
  80   0.0000       1.778115        48.3850 
  81   0.0000       1.788474        48.6669 
  82   0.0000       1.791719        48.7552 
  83   0.0000       1.833401        49.8894 
  84   0.0000       1.853076        50.4248 
  85   0.0000       1.883163        51.2435 
  86   0.0000       1.904110        51.8135 
  87   0.0000       1.926402        52.4201 
  88   0.0000       1.950667        53.0804 
  89   0.0000       1.973397        53.6989 
  90   0.0000       1.992224        54.2112 
  91   0.0000       2.008203        54.6460 
  92   0.0000       2.019655        54.9576 
  93   0.0000       2.071197        56.3601 
  94   0.0000       2.153331        58.5951 
  95   0.0000       2.280901        62.0665 
  96   0.0000       2.287105        62.2353 
  97   0.0000       2.300816        62.6084 
  98   0.0000       2.307290        62.7846 
  99   0.0000       2.310957        62.8843 
 100   0.0000       2.319892        63.1275 
 101   0.0000       2.336144        63.5697 
 102   0.0000       2.343455        63.7687 
 103   0.0000       2.348235        63.8987 
 104   0.0000       2.364415        64.3390 
 105   0.0000       2.370054        64.4925 
 106   0.0000       2.377843        64.7044 
 107   0.0000       2.391507        65.0762 
 108   0.0000       2.449118        66.6439 
 109   0.0000       2.529602        68.8340 
 110   0.0000       2.546130        69.2837 
 111   0.0000       2.571116        69.9636 
 112   0.0000       2.582702        70.2789 
 113   0.0000       2.627014        71.4847 
 114   0.0000       2.645023        71.9747 
 115   0.0000       2.659719        72.3746 
 116   0.0000       2.676546        72.8325 
 117   0.0000       2.690876        73.2225 
 118   0.0000       2.715172        73.8836 
 119   0.0000       2.745772        74.7163 
 120   0.0000       2.884031        78.4785 
 121   0.0000       2.915290        79.3291 
 122   0.0000       2.933209        79.8167 
 123   0.0000       2.939155        79.9785 
 124   0.0000       2.943386        80.0936 
 125   0.0000       2.954735        80.4024 
 126   0.0000       2.968701        80.7825 
 127   0.0000       2.980242        81.0965 
 128   0.0000       2.989736        81.3549 
 129   0.0000       2.998349        81.5892 
 130   0.0000       3.028768        82.4170 
 131   0.0000       3.069065        83.5135 
 132   0.0000       3.083704        83.9118 
 133   0.0000       3.093743        84.1850 
 134   0.0000       3.138673        85.4076 
 135   0.0000       3.168906        86.2303 
 136   0.0000       3.174826        86.3914 
 137   0.0000       3.246442        88.3402 
 138   0.0000       3.262978        88.7901 
 139   0.0000       3.347977        91.1031 
 140   0.0000       3.961471       107.7971 
 141   0.0000       3.999671       108.8366 
 142   0.0000       4.009895       109.1148 
 143   0.0000       4.021062       109.4187 
 144   0.0000       4.098011       111.5125 
 145   0.0000       4.273972       116.3007 
 146   0.0000       4.279944       116.4632 
 147   0.0000       4.295575       116.8885 
 148   0.0000       4.302396       117.0742 
 149   0.0000       4.367930       118.8574 
 150   0.0000       5.513202       150.0219 
 151   0.0000       5.522656       150.2791 
 152   0.0000       5.530763       150.4997 
 153   0.0000       5.542837       150.8283 
 154   0.0000       5.594876       152.2443 
 155   0.0000       5.610113       152.6589 
 156   0.0000       5.630187       153.2052 
 157   0.0000       5.635055       153.3376 
 158   0.0000       5.647231       153.6690 
 159   0.0000       5.701362       155.1420 
 160   0.0000       5.777645       157.2177 
 161   0.0000       5.794380       157.6731 
 162   0.0000       5.804302       157.9431 
 163   0.0000       5.816050       158.2628 
 164   0.0000       5.818081       158.3180 
 165   0.0000       5.824407       158.4902 
 166   0.0000       5.837182       158.8378 
 167   0.0000       5.846863       159.1012 
 168   0.0000       5.861653       159.5037 
 169   0.0000       5.877632       159.9385 
 170   0.0000       5.881099       160.0328 
 171   0.0000       5.884975       160.1383 
 172   0.0000       5.889567       160.2633 
 173   0.0000       5.924649       161.2179 
 174   0.0000       5.949031       161.8814 
 175   0.0000       6.395473       174.0297 
 176   0.0000       6.443134       175.3266 
 177   0.0000       6.472055       176.1136 
 178   0.0000       6.484009       176.4388 
 179   0.0000       6.531231       177.7238 
 180   0.0000       6.656978       181.1456 
 181   0.0000       6.667888       181.4425 
 182   0.0000       6.677390       181.7010 
 183   0.0000       6.689862       182.0404 
 184   0.0000       6.720540       182.8752 
 185   0.0000       6.811845       185.3597 
 186   0.0000       6.823396       185.6740 
 187   0.0000       6.829740       185.8467 
 188   0.0000       6.837527       186.0586 
 189   0.0000       6.867177       186.8654 
 190   0.0000       6.870216       186.9481 
 191   0.0000       6.881143       187.2454 
 192   0.0000       6.881504       187.2552 
 193   0.0000       6.886326       187.3864 
 194   0.0000       6.905428       187.9063 
 195   0.0000       6.928401       188.5314 
 196   0.0000       6.940996       188.8741 
 197   0.0000       6.958049       189.3381 
 198   0.0000       6.975287       189.8072 
 199   0.0000       7.009109       190.7276 
 200   0.0000       7.326292       199.3585 
 201   0.0000       7.342005       199.7861 
 202   0.0000       7.347170       199.9267 
 203   0.0000       7.361905       200.3276 
 204   0.0000       7.444839       202.5844 
 205   0.0000       7.459848       202.9928 
 206   0.0000       7.492239       203.8742 
 207   0.0000       7.501982       204.1393 
 208   0.0000       7.517862       204.5714 
 209   0.0000       7.619275       207.3310 
 210   0.0000      44.807397      1219.2713 
 211   0.0000      44.838230      1220.1103 
 212   0.0000      44.854002      1220.5395 
 213   0.0000      44.909215      1222.0419 
 214   0.0000      45.008069      1224.7318 

                    ********************************
                    * MULLIKEN POPULATION ANALYSIS *
                    ********************************

-----------------------
MULLIKEN ATOMIC CHARGES
-----------------------
   0 O :   -0.725067
   1 H :    0.365899
   2 H :    0.371179
   3 O :   -0.749675
   4 H :    0.378760
   5 H :    0.357857
   6 O :   -0.710786
   7 H :    0.356984
   8 H :    0.353427
   9 O :   -0.697871
  10 H :    0.337662
  11 H :    0.361669
  12 O :   -0.698625
  13 H :    0.352234
  14 H :    0.346354
Sum of atomic charges:   -0.0000000

--------------------------------
MULLIKEN REDUCED ORBITAL CHARGES
--------------------------------
  0 O s       :     3.808587  s :     3.808587
      pz      :     1.735543  p :     4.890326
      px      :     1.785325
      py      :     1.369459
      dz2     :     0.004287  d :     0.024639
      dxz     :     0.005586
      dyz     :     0.004832
      dx2y2   :     0.002602
      dxy     :     0.007332
      f0      :     0.000093  f :     0.001515
      f+1     :     0.000186
      f-1     :     0.000350
      f+2     :     0.000063
      f-2     :     0.000358
      f+3     :     0.000372
      f-3     :     0.000092
  1 H s       :     0.588788  s :     0.588788
      pz      :     0.017129  p :     0.045313
      px      :     0.014807
      py      :     0.013377
  2 H s       :     0.587617  s :     0.587617
      pz      :     0.011051  p :     0.041204
      px      :     0.012213
      py      :     0.017941
  3 O s       :     3.805106  s :     3.805106
      pz      :     1.544203  p :     4.918303
      px      :     1.553881
      py      :     1.820219
      dz2     :     0.011405  d :     0.024814
      dxz     :     0.001214
      dyz     :     0.002938
      dx2y2   :     0.002075
      dxy     :     0.007183
      f0      :     0.000254  f :     0.001451
      f+1     :     0.000371
      f-1     :     0.000163
      f+2     :     0.000056
      f-2     :     0.000055
      f+3     :     0.000066
      f-3     :     0.000486
  4 H s       :     0.572735  s :     0.572735
      pz      :     0.023755  p :     0.048505
      px      :     0.011685
      py      :     0.013065
  5 H s       :     0.591363  s :     0.591363
      pz      :     0.010490  p :     0.050780
      px      :     0.023460
      py      :     0.016830
  6 O s       :     3.812253  s :     3.812253
      pz      :     1.544332  p :     4.871912
      px      :     1.451573
      py      :     1.876008
      dz2     :     0.011053  d :     0.025102
      dxz     :     0.002724
      dyz     :     0.002590
      dx2y2   :     0.003204
      dxy     :     0.005532
      f0      :     0.000200  f :     0.001519
      f+1     :     0.000444
      f-1     :     0.000130
      f+2     :     0.000079
      f-2     :     0.000039
      f+3     :     0.000130
      f-3     :     0.000495
  7 H s       :     0.598138  s :     0.598138
      pz      :     0.018706  p :     0.044878
      px      :     0.011995
      py      :     0.014178
  8 H s       :     0.603568  s :     0.603568
      pz      :     0.009585  p :     0.043005
      px      :     0.018327
      py      :     0.015093
  9 O s       :     3.816120  s :     3.816120
      pz      :     1.494595  p :     4.853746
      px      :     1.816947
      py      :     1.542204
      dz2     :     0.012351  d :     0.026473
      dxz     :     0.003074
      dyz     :     0.001282
      dx2y2   :     0.002149
      dxy     :     0.007618
      f0      :     0.000270  f :     0.001532
      f+1     :     0.000174
      f-1     :     0.000385
      f+2     :     0.000056
      f-2     :     0.000056
      f+3     :     0.000523
      f-3     :     0.000068
 10 H s       :     0.617186  s :     0.617186
      pz      :     0.018818  p :     0.045152
      px      :     0.013897
      py      :     0.012437
 11 H s       :     0.594077  s :     0.594077
      pz      :     0.010394  p :     0.044254
      px      :     0.015459
      py      :     0.018401
 12 O s       :     3.815110  s :     3.815110
      pz      :     1.506834  p :     4.855584
      px      :     1.815436
      py      :     1.533314
      dz2     :     0.012290  d :     0.026397
      dxz     :     0.003059
      dyz     :     0.001240
      dx2y2   :     0.002169
      dxy     :     0.007638
      f0      :     0.000268  f :     0.001534
      f+1     :     0.000175
      f-1     :     0.000385
      f+2     :     0.000056
      f-2     :     0.000057
      f+3     :     0.000523
      f-3     :     0.000070
 13 H s       :     0.603061  s :     0.603061
      pz      :     0.019051  p :     0.044705
      px      :     0.013517
      py      :     0.012137
 14 H s       :     0.609048  s :     0.609048
      pz      :     0.010662  p :     0.044598
      px      :     0.015760
      py      :     0.018177


                     *******************************
                     * LOEWDIN POPULATION ANALYSIS *
                     *******************************

----------------------
LOEWDIN ATOMIC CHARGES
----------------------
   0 O :   -0.319323
   1 H :    0.164808
   2 H :    0.188858
   3 O :   -0.357198
   4 H :    0.153732
   5 H :    0.145453
   6 O :   -0.317451
   7 H :    0.167472
   8 H :    0.172757
   9 O :   -0.329931
  10 H :    0.159788
  11 H :    0.171522
  12 O :   -0.331259
  13 H :    0.166976
  14 H :    0.163798

-------------------------------
LOEWDIN REDUCED ORBITAL CHARGES
-------------------------------
  0 O s       :     3.468668  s :     3.468668
      pz      :     1.712387  p :     4.816788
      px      :     1.744537
      py      :     1.359865
      dz2     :     0.005029  d :     0.031775
      dxz     :     0.005483
      dyz     :     0.006938
      dx2y2   :     0.004379
      dxy     :     0.009946
      f0      :     0.000078  f :     0.002092
      f+1     :     0.000275
      f-1     :     0.000462
      f+2     :     0.000033
      f-2     :     0.000609
      f+3     :     0.000543
      f-3     :     0.000091
  1 H s       :     0.671638  s :     0.671638
      pz      :     0.066366  p :     0.163554
      px      :     0.052811
      py      :     0.044376
  2 H s       :     0.662975  s :     0.662975
      pz      :     0.033326  p :     0.148167
      px      :     0.043525
      py      :     0.071316
  3 O s       :     3.461160  s :     3.461160
      pz      :     1.530570  p :     4.863469
      px      :     1.540294
      py      :     1.792606
      dz2     :     0.015011  d :     0.030516
      dxz     :     0.001914
      dyz     :     0.002294
      dx2y2   :     0.002150
      dxy     :     0.009146
      f0      :     0.000450  f :     0.002053
      f+1     :     0.000549
      f-1     :     0.000310
      f+2     :     0.000023
      f-2     :     0.000047
      f+3     :     0.000002
      f-3     :     0.000672
  4 H s       :     0.676324  s :     0.676324
      pz      :     0.090931  p :     0.169944
      px      :     0.036759
      py      :     0.042255
  5 H s       :     0.681631  s :     0.681631
      pz      :     0.031266  p :     0.172917
      px      :     0.083794
      py      :     0.057857
  6 O s       :     3.470345  s :     3.470345
      pz      :     1.528971  p :     4.811678
      px      :     1.447495
      py      :     1.835212
      dz2     :     0.015873  d :     0.033267
      dxz     :     0.004183
      dyz     :     0.001775
      dx2y2   :     0.004411
      dxy     :     0.007026
      f0      :     0.000394  f :     0.002160
      f+1     :     0.000755
      f-1     :     0.000200
      f+2     :     0.000048
      f-2     :     0.000043
      f+3     :     0.000075
      f-3     :     0.000643
  7 H s       :     0.674639  s :     0.674639
      pz      :     0.079913  p :     0.157889
      px      :     0.035037
      py      :     0.042939
  8 H s       :     0.674227  s :     0.674227
      pz      :     0.029267  p :     0.153016
      px      :     0.074566
      py      :     0.049184
  9 O s       :     3.473741  s :     3.473741
      pz      :     1.504387  p :     4.820279
      px      :     1.787030
      py      :     1.528862
      dz2     :     0.017020  d :     0.033697
      dxz     :     0.002528
      dyz     :     0.002170
      dx2y2   :     0.002283
      dxy     :     0.009696
      f0      :     0.000500  f :     0.002215
      f+1     :     0.000329
      f-1     :     0.000596
      f+2     :     0.000026
      f-2     :     0.000048
      f+3     :     0.000713
      f-3     :     0.000003
 10 H s       :     0.682547  s :     0.682547
      pz      :     0.079790  p :     0.157665
      px      :     0.042331
      py      :     0.035544
 11 H s       :     0.671496  s :     0.671496
      pz      :     0.029492  p :     0.156983
      px      :     0.054824
      py      :     0.072667
 12 O s       :     3.473002  s :     3.473002
      pz      :     1.511067  p :     4.822448
      px      :     1.786695
      py      :     1.524686
      dz2     :     0.016694  d :     0.033593
      dxz     :     0.002488
      dyz     :     0.002067
      dx2y2   :     0.002354
      dxy     :     0.009990
      f0      :     0.000484  f :     0.002216
      f+1     :     0.000331
      f-1     :     0.000595
      f+2     :     0.000026
      f-2     :     0.000047
      f+3     :     0.000730
      f-3     :     0.000003
 13 H s       :     0.675358  s :     0.675358
      pz      :     0.080603  p :     0.157667
      px      :     0.041809
      py      :     0.035254
 14 H s       :     0.679417  s :     0.679417
      pz      :     0.029888  p :     0.156784
      px      :     0.054967
      py      :     0.071929


                      *****************************
                      * MAYER POPULATION ANALYSIS *
                      *****************************

  NA   - Mulliken gross atomic population
  ZA   - Total nuclear charge
  QA   - Mulliken gross atomic charge
  VA   - Mayer's total valence
  BVA  - Mayer's bonded valence
  FA   - Mayer's free valence

  ATOM       NA         ZA         QA         VA         BVA        FA
  0 O      8.7251     8.0000    -0.7251     1.7620     1.7620    -0.0000
  1 H      0.6341     1.0000     0.3659     0.8817     0.8817    -0.0000
  2 H      0.6288     1.0000     0.3712     0.8755     0.8755    -0.0000
  3 O      8.7497     8.0000    -0.7497     1.7313     1.7313    -0.0000
  4 H      0.6212     1.0000     0.3788     0.8788     0.8788     0.0000
  5 H      0.6421     1.0000     0.3579     0.9018     0.9018    -0.0000
  6 O      8.7108     8.0000    -0.7108     1.7753     1.7753    -0.0000
  7 H      0.6430     1.0000     0.3570     0.8901     0.8901    -0.0000
  8 H      0.6466     1.0000     0.3534     0.8952     0.8952    -0.0000
  9 O      8.6979     8.0000    -0.6979     1.7804     1.7804     0.0000
 10 H      0.6623     1.0000     0.3377     0.9017     0.9017    -0.0000
 11 H      0.6383     1.0000     0.3617     0.8858     0.8858    -0.0000
 12 O      8.6986     8.0000    -0.6986     1.7792     1.7792    -0.0000
 13 H      0.6478     1.0000     0.3522     0.8910     0.8910    -0.0000
 14 H      0.6536     1.0000     0.3464     0.8977     0.8977     0.0000

  Mayer bond orders larger than 0.100000
B(  0-O ,  1-H ) :   0.8742 B(  0-O ,  2-H ) :   0.8668 B(  3-O ,  4-H ) :   0.8624 
B(  3-O ,  5-H ) :   0.8700 B(  6-O ,  7-H ) :   0.8793 B(  6-O ,  8-H ) :   0.8783 
B(  9-O , 10-H ) :   0.8941 B(  9-O , 11-H ) :   0.8763 B( 12-O , 13-H ) :   0.8849 
B( 12-O , 14-H ) :   0.8874 

-------
TIMINGS
-------

Total SCF time: 0 days 0 hours 0 min 8 sec 

Total time                  ....       8.247 sec
Sum of individual times     ....       7.956 sec  ( 96.5%)

Fock matrix formation       ....       7.262 sec  ( 88.1%)
Diagonalization             ....       0.213 sec  (  2.6%)
Density matrix formation    ....       0.039 sec  (  0.5%)
Population analysis         ....       0.012 sec  (  0.1%)
Initial guess               ....       0.217 sec  (  2.6%)
Orbital Transformation      ....       0.000 sec  (  0.0%)
Orbital Orthonormalization  ....       0.000 sec  (  0.0%)
DIIS solution               ....       0.054 sec  (  0.7%)
SOSCF solution              ....       0.118 sec  (  1.4%)


           ************************************************************
           *        Program running with 6 parallel MPI-processes     *
           *              working on a common directory               *
           ************************************************************

------------------------------------------------------------------------------
                                ORCA  MP2 
------------------------------------------------------------------------------

Freezing NCore=10 chemical core electrons
MP2 will be done in the AO integral direct mode
The Q1-step will be done using symmetric double matrices
Dimension of the basis                    ...  215
Memory devoted for MP2                    ... 8000 MB   
Memory needed for all in one shot         ...  153 MB
Number of MOs that can be treated together...  209      
MP2 density construction                  ... relaxed
The MP2 gradient is requested => amplitudes will be stored on disk
Total number of MOs              ...   20
Number of MOs treated per batch  ...    4 
Number of batches necessary      ...    1 
OPERATORS   0/  0 PASS   0
-----------------------------------------------
 MP2 CORRELATION ENERGY   :     -1.283576371 Eh
-----------------------------------------------


---------------------
MP2 DENSITY FORMATION
---------------------

Completing the external part of the density      ... done
Storing the unrelaxed density                    ... done

Calculating G(D)                                 ... done
Completing the Lagrangian                        ... done
Solving the Z-vector equations                   ... 

------------------------------------------------------------------------------
                           ORCA CP-SCF CALCULATION
------------------------------------------------------------------------------

Input orbitals are from        ... 12h2o.su.etal.mol2,3,7,9,11-orca.engrad-mp2.def2tzvp.frozencore.gbw
Input Perturbation             ... 12h2o.su.etal.mol2,3,7,9,11-orca.engrad-mp2.def2tzvp.frozencore.pin.tmp
Wavefunction output            ... 12h2o.su.etal.mol2,3,7,9,11-orca.engrad-mp2.def2tzvp.frozencore.pout.tmp
Perturbation mode              ... Real perturbation (singlet)
Solver                         ... POPLE
Max. number of iterations      ... 128
Convergence tolerance          ... 1.000e-08
Integral handling              ... Direct
Number of perturbations        ... 1
Number of operators            ... 1
Orbital ranges used for CP-SCF:
 Operator 0:  Orbitals   0... 24  to  25...214
Variables per vector in CP-SCF ... 4750
Number of vectors sought       ... 1
     CP-SCF ITERATION   0: 
     CP-SCF ITERATION   1:      0.000603240359
     CP-SCF ITERATION   2:      0.000012957237
     CP-SCF ITERATION   3:      0.000000520158
     CP-SCF ITERATION   4:      0.000000040762
     CP-SCF ITERATION   5:      0.000000002705
                                                 ... done
Finalizing the relaxed density                   ... done
Transforming P to the AO basis                   ... done
Storing the relaxed density                      ... done

------------------------------------
ENERGY WEIGHTED DENSITY FINALIZATION
------------------------------------

Gathering the parts of the W-matrix              ...                                                      done
Forming the Z-density                            ... done
Transforming Z to the AO basis                   ... done
Calculating G(Z)                                 ... done
Finalizing the W-matrix                          ...                                                      done
Transforming W to the AO basis and storing       ... done

                *********************************************
                * UNRELAXED MP2 DENSITY POPULATION ANALYSIS *
                *********************************************

------------------------------------------------------------------------------
                           ORCA POPULATION ANALYSIS
------------------------------------------------------------------------------
Input electron density              ... 12h2o.su.etal.mol2,3,7,9,11-orca.engrad-mp2.def2tzvp.frozencore.pmp2ur
BaseName (.gbw .S,...)              ... 12h2o.su.etal.mol2,3,7,9,11-orca.engrad-mp2.def2tzvp.frozencore

                    ********************************
                    * MULLIKEN POPULATION ANALYSIS *
                    ********************************

-----------------------
MULLIKEN ATOMIC CHARGES
-----------------------
   0 O :   -0.719740
   1 H :    0.363708
   2 H :    0.368455
   3 O :   -0.744082
   4 H :    0.375950
   5 H :    0.354658
   6 O :   -0.705621
   7 H :    0.354570
   8 H :    0.350607
   9 O :   -0.692858
  10 H :    0.335230
  11 H :    0.359175
  12 O :   -0.693718
  13 H :    0.349863
  14 H :    0.343803
Sum of atomic charges:   -0.0000000

--------------------------------
MULLIKEN REDUCED ORBITAL CHARGES
--------------------------------
  0 O s       :     3.803724  s :     3.803724
      pz      :     1.724938  p :     4.860485
      px      :     1.773655
      py      :     1.361893
      dz2     :     0.009679  d :     0.051463
      dxz     :     0.010987
      dyz     :     0.010116
      dx2y2   :     0.008047
      dxy     :     0.012633
      f0      :     0.000461  f :     0.004068
      f+1     :     0.000551
      f-1     :     0.000710
      f+2     :     0.000431
      f-2     :     0.000722
      f+3     :     0.000731
      f-3     :     0.000463
  1 H s       :     0.589422  s :     0.589422
      pz      :     0.017602  p :     0.046869
      px      :     0.015509
      py      :     0.013758
  2 H s       :     0.588801  s :     0.588801
      pz      :     0.011886  p :     0.042744
      px      :     0.012969
      py      :     0.017889
  3 O s       :     3.800280  s :     3.800280
      pz      :     1.534812  p :     4.888038
      px      :     1.544493
      py      :     1.808733
      dz2     :     0.016569  d :     0.051740
      dxz     :     0.006658
      dyz     :     0.008426
      dx2y2   :     0.007633
      dxy     :     0.012454
      f0      :     0.000635  f :     0.004024
      f+1     :     0.000739
      f-1     :     0.000536
      f+2     :     0.000417
      f-2     :     0.000421
      f+3     :     0.000435
      f-3     :     0.000842
  4 H s       :     0.573948  s :     0.573948
      pz      :     0.023824  p :     0.050102
      px      :     0.012364
      py      :     0.013914
  5 H s       :     0.592896  s :     0.592896
      pz      :     0.011308  p :     0.052446
      px      :     0.023670
      py      :     0.017469
  6 O s       :     3.807323  s :     3.807323
      pz      :     1.534978  p :     4.842379
      px      :     1.443124
      py      :     1.864277
      dz2     :     0.016236  d :     0.051848
      dxz     :     0.008046
      dyz     :     0.008124
      dx2y2   :     0.008589
      dxy     :     0.010853
      f0      :     0.000580  f :     0.004070
      f+1     :     0.000808
      f-1     :     0.000502
      f+2     :     0.000440
      f-2     :     0.000402
      f+3     :     0.000493
      f-3     :     0.000845
  7 H s       :     0.598961  s :     0.598961
      pz      :     0.018841  p :     0.046469
      px      :     0.012591
      py      :     0.015037
  8 H s       :     0.604788  s :     0.604788
      pz      :     0.010400  p :     0.044605
      px      :     0.018352
      py      :     0.015853
  9 O s       :     3.811342  s :     3.811342
      pz      :     1.485825  p :     4.824658
      px      :     1.805594
      py      :     1.533239
      dz2     :     0.017291  d :     0.052781
      dxz     :     0.008471
      dyz     :     0.006596
      dx2y2   :     0.007593
      dxy     :     0.012830
      f0      :     0.000644  f :     0.004078
      f+1     :     0.000544
      f-1     :     0.000748
      f+2     :     0.000413
      f-2     :     0.000419
      f+3     :     0.000875
      f-3     :     0.000436
 10 H s       :     0.617938  s :     0.617938
      pz      :     0.018920  p :     0.046831
      px      :     0.014773
      py      :     0.013139
 11 H s       :     0.594979  s :     0.594979
      pz      :     0.011163  p :     0.045846
      px      :     0.016130
      py      :     0.018553
 12 O s       :     3.810309  s :     3.810309
      pz      :     1.497960  p :     4.826630
      px      :     1.804184
      py      :     1.524487
      dz2     :     0.017249  d :     0.052698
      dxz     :     0.008447
      dyz     :     0.006559
      dx2y2   :     0.007607
      dxy     :     0.012836
      f0      :     0.000643  f :     0.004080
      f+1     :     0.000545
      f-1     :     0.000747
      f+2     :     0.000414
      f-2     :     0.000420
      f+3     :     0.000875
      f-3     :     0.000437
 13 H s       :     0.603813  s :     0.603813
      pz      :     0.019127  p :     0.046324
      px      :     0.014372
      py      :     0.012825
 14 H s       :     0.609948  s :     0.609948
      pz      :     0.011453  p :     0.046249
      px      :     0.016451
      py      :     0.018345


                     *******************************
                     * LOEWDIN POPULATION ANALYSIS *
                     *******************************

----------------------
LOEWDIN ATOMIC CHARGES
----------------------
   0 O :   -0.315712
   1 H :    0.163697
   2 H :    0.187176
   3 O :   -0.354385
   4 H :    0.151937
   5 H :    0.143338
   6 O :   -0.313914
   7 H :    0.165978
   8 H :    0.170938
   9 O :   -0.326936
  10 H :    0.158308
  11 H :    0.170100
  12 O :   -0.328380
  13 H :    0.165616
  14 H :    0.162239

-------------------------------
LOEWDIN REDUCED ORBITAL CHARGES
-------------------------------
  0 O s       :     3.464901  s :     3.464901
      pz      :     1.701825  p :     4.786332
      px      :     1.732631
      py      :     1.351876
      dz2     :     0.010542  d :     0.059641
      dxz     :     0.011158
      dyz     :     0.012439
      dx2y2   :     0.009917
      dxy     :     0.015585
      f0      :     0.000455  f :     0.004838
      f+1     :     0.000660
      f-1     :     0.000869
      f+2     :     0.000408
      f-2     :     0.001015
      f+3     :     0.000956
      f-3     :     0.000475
  1 H s       :     0.669786  s :     0.669786
      pz      :     0.067540  p :     0.166516
      px      :     0.053790
      py      :     0.045187
  2 H s       :     0.661612  s :     0.661612
      pz      :     0.034148  p :     0.151213
      px      :     0.044514
      py      :     0.072551
  3 O s       :     3.457483  s :     3.457483
      pz      :     1.521056  p :     4.833519
      px      :     1.530867
      py      :     1.781596
      dz2     :     0.020854  d :     0.058561
      dxz     :     0.007313
      dyz     :     0.007727
      dx2y2   :     0.007684
      dxy     :     0.014983
      f0      :     0.000871  f :     0.004822
      f+1     :     0.000972
      f-1     :     0.000706
      f+2     :     0.000389
      f-2     :     0.000420
      f+3     :     0.000376
      f-3     :     0.001087
  4 H s       :     0.675147  s :     0.675147
      pz      :     0.092306  p :     0.172916
      px      :     0.037532
      py      :     0.043077
  5 H s       :     0.680664  s :     0.680664
      pz      :     0.032056  p :     0.175998
      px      :     0.085082
      py      :     0.058860
  6 O s       :     3.466495  s :     3.466495
      pz      :     1.518871  p :     4.781379
      px      :     1.438628
      py      :     1.823880
      dz2     :     0.021697  d :     0.061135
      dxz     :     0.009534
      dyz     :     0.007240
      dx2y2   :     0.010000
      dxy     :     0.012665
      f0      :     0.000806  f :     0.004905
      f+1     :     0.001187
      f-1     :     0.000588
      f+2     :     0.000416
      f-2     :     0.000413
      f+3     :     0.000448
      f-3     :     0.001048
  7 H s       :     0.673024  s :     0.673024
      pz      :     0.081487  p :     0.160997
      px      :     0.035779
      py      :     0.043731
  8 H s       :     0.672852  s :     0.672852
      pz      :     0.030086  p :     0.156210
      px      :     0.075984
      py      :     0.050140
  9 O s       :     3.469995  s :     3.469995
      pz      :     1.495197  p :     4.790894
      px      :     1.775994
      py      :     1.519704
      dz2     :     0.022687  d :     0.061094
      dxz     :     0.007865
      dyz     :     0.007420
      dx2y2   :     0.007714
      dxy     :     0.015408
      f0      :     0.000915  f :     0.004953
      f+1     :     0.000722
      f-1     :     0.001012
      f+2     :     0.000388
      f-2     :     0.000418
      f+3     :     0.001123
      f-3     :     0.000375
 10 H s       :     0.680737  s :     0.680737
      pz      :     0.081488  p :     0.160955
      px      :     0.043166
      py      :     0.036301
 11 H s       :     0.669870  s :     0.669870
      pz      :     0.030212  p :     0.160030
      px      :     0.055841
      py      :     0.073977
 12 O s       :     3.469237  s :     3.469237
      pz      :     1.501890  p :     4.793213
      px      :     1.775750
      py      :     1.515573
      dz2     :     0.022361  d :     0.060976
      dxz     :     0.007815
      dyz     :     0.007317
      dx2y2   :     0.007784
      dxy     :     0.015699
      f0      :     0.000899  f :     0.004954
      f+1     :     0.000723
      f-1     :     0.001011
      f+2     :     0.000388
      f-2     :     0.000418
      f+3     :     0.001140
      f-3     :     0.000375
 13 H s       :     0.673589  s :     0.673589
      pz      :     0.082181  p :     0.160795
      px      :     0.042623
      py      :     0.035991
 14 H s       :     0.677777  s :     0.677777
      pz      :     0.030628  p :     0.159984
      px      :     0.056030
      py      :     0.073326


                      *****************************
                      * MAYER POPULATION ANALYSIS *
                      *****************************

  NA   - Mulliken gross atomic population
  ZA   - Total nuclear charge
  QA   - Mulliken gross atomic charge
  VA   - Mayer's total valence
  BVA  - Mayer's bonded valence
  FA   - Mayer's free valence

  ATOM       NA         ZA         QA         VA         BVA        FA
  0 O      8.7197     8.0000    -0.7197     2.0709     1.6816     0.3893
  1 H      0.6363     1.0000     0.3637     0.8872     0.8423     0.0449
  2 H      0.6315     1.0000     0.3685     0.8815     0.8341     0.0474
  3 O      8.7441     8.0000    -0.7441     2.0419     1.6525     0.3894
  4 H      0.6241     1.0000     0.3759     0.8849     0.8400     0.0448
  5 H      0.6453     1.0000     0.3547     0.9085     0.8616     0.0469
  6 O      8.7056     8.0000    -0.7056     2.0827     1.6931     0.3897
  7 H      0.6454     1.0000     0.3546     0.8959     0.8490     0.0469
  8 H      0.6494     1.0000     0.3506     0.9017     0.8531     0.0486
  9 O      8.6929     8.0000    -0.6929     2.0842     1.6983     0.3860
 10 H      0.6648     1.0000     0.3352     0.9079     0.8595     0.0484
 11 H      0.6408     1.0000     0.3592     0.8917     0.8453     0.0465
 12 O      8.6937     8.0000    -0.6937     2.0828     1.6973     0.3855
 13 H      0.6501     1.0000     0.3499     0.8969     0.8500     0.0469
 14 H      0.6562     1.0000     0.3438     0.9040     0.8562     0.0478

  Mayer bond orders larger than 0.100000
B(  0-O ,  1-H ) :   0.8354 B(  0-O ,  2-H ) :   0.8259 B(  3-O ,  4-H ) :   0.8241 
B(  3-O ,  5-H ) :   0.8306 B(  6-O ,  7-H ) :   0.8390 B(  6-O ,  8-H ) :   0.8369 
B(  9-O , 10-H ) :   0.8524 B(  9-O , 11-H ) :   0.8363 B( 12-O , 13-H ) :   0.8444 
B( 12-O , 14-H ) :   0.8463 


                *******************************************
                * RELAXED MP2 DENSITY POPULATION ANALYSIS *
                *******************************************

------------------------------------------------------------------------------
                           ORCA POPULATION ANALYSIS
------------------------------------------------------------------------------
Input electron density              ... 12h2o.su.etal.mol2,3,7,9,11-orca.engrad-mp2.def2tzvp.frozencore.pmp2re
BaseName (.gbw .S,...)              ... 12h2o.su.etal.mol2,3,7,9,11-orca.engrad-mp2.def2tzvp.frozencore

                    ********************************
                    * MULLIKEN POPULATION ANALYSIS *
                    ********************************

-----------------------
MULLIKEN ATOMIC CHARGES
-----------------------
   0 O :   -0.700825
   1 H :    0.356899
   2 H :    0.361758
   3 O :   -0.723245
   4 H :    0.364291
   5 H :    0.339585
   6 O :   -0.687792
   7 H :    0.346112
   8 H :    0.341170
   9 O :   -0.677902
  10 H :    0.328988
  11 H :    0.351306
  12 O :   -0.679331
  13 H :    0.342960
  14 H :    0.336026
Sum of atomic charges:   -0.0000000

--------------------------------
MULLIKEN REDUCED ORBITAL CHARGES
--------------------------------
  0 O s       :     3.807497  s :     3.807497
      pz      :     1.719370  p :     4.840063
      px      :     1.761615
      py      :     1.359078
      dz2     :     0.009402  d :     0.049271
      dxz     :     0.010725
      dyz     :     0.009544
      dx2y2   :     0.007792
      dxy     :     0.011807
      f0      :     0.000459  f :     0.003995
      f+1     :     0.000542
      f-1     :     0.000692
      f+2     :     0.000430
      f-2     :     0.000701
      f+3     :     0.000710
      f-3     :     0.000461
  1 H s       :     0.595544  s :     0.595544
      pz      :     0.017667  p :     0.047557
      px      :     0.016202
      py      :     0.013688
  2 H s       :     0.594919  s :     0.594919
      pz      :     0.012733  p :     0.043323
      px      :     0.013683
      py      :     0.016908
  3 O s       :     3.798556  s :     3.798556
      pz      :     1.530017  p :     4.870975
      px      :     1.539097
      py      :     1.801861
      dz2     :     0.015375  d :     0.049759
      dxz     :     0.006621
      dyz     :     0.008388
      dx2y2   :     0.007592
      dxy     :     0.011783
      f0      :     0.000619  f :     0.003955
      f+1     :     0.000718
      f-1     :     0.000526
      f+2     :     0.000417
      f-2     :     0.000420
      f+3     :     0.000436
      f-3     :     0.000820
  4 H s       :     0.585108  s :     0.585108
      pz      :     0.022972  p :     0.050600
      px      :     0.012838
      py      :     0.014790
  5 H s       :     0.607276  s :     0.607276
      pz      :     0.012027  p :     0.053139
      px      :     0.023144
      py      :     0.017968
  6 O s       :     3.811975  s :     3.811975
      pz      :     1.525006  p :     4.822354
      px      :     1.437709
      py      :     1.859639
      dz2     :     0.014981  d :     0.049465
      dxz     :     0.007749
      dyz     :     0.008158
      dx2y2   :     0.008276
      dxy     :     0.010301
      f0      :     0.000567  f :     0.003997
      f+1     :     0.000777
      f-1     :     0.000496
      f+2     :     0.000440
      f-2     :     0.000401
      f+3     :     0.000492
      f-3     :     0.000824
  7 H s       :     0.606707  s :     0.606707
      pz      :     0.018099  p :     0.047181
      px      :     0.013039
      py      :     0.016042
  8 H s       :     0.613469  s :     0.613469
      pz      :     0.011179  p :     0.045361
      px      :     0.017567
      py      :     0.016615
  9 O s       :     3.816364  s :     3.816364
      pz      :     1.479747  p :     4.807094
      px      :     1.799125
      py      :     1.528222
      dz2     :     0.015874  d :     0.050442
      dxz     :     0.008438
      dyz     :     0.006529
      dx2y2   :     0.007506
      dxy     :     0.012095
      f0      :     0.000625  f :     0.004001
      f+1     :     0.000533
      f-1     :     0.000725
      f+2     :     0.000413
      f-2     :     0.000418
      f+3     :     0.000851
      f-3     :     0.000436
 10 H s       :     0.623358  s :     0.623358
      pz      :     0.018152  p :     0.047654
      px      :     0.015761
      py      :     0.013740
 11 H s       :     0.602156  s :     0.602156
      pz      :     0.011827  p :     0.046538
      px      :     0.016710
      py      :     0.018002
 12 O s       :     3.814942  s :     3.814942
      pz      :     1.491557  p :     4.810038
      px      :     1.798330
      py      :     1.520151
      dz2     :     0.015862  d :     0.050347
      dxz     :     0.008402
      dyz     :     0.006492
      dx2y2   :     0.007519
      dxy     :     0.012072
      f0      :     0.000624  f :     0.004003
      f+1     :     0.000534
      f-1     :     0.000725
      f+2     :     0.000414
      f-2     :     0.000418
      f+3     :     0.000851
      f-3     :     0.000437
 13 H s       :     0.610001  s :     0.610001
      pz      :     0.018363  p :     0.047039
      px      :     0.015287
      py      :     0.013389
 14 H s       :     0.616947  s :     0.616947
      pz      :     0.012162  p :     0.047027
      px      :     0.017090
      py      :     0.017774


                     *******************************
                     * LOEWDIN POPULATION ANALYSIS *
                     *******************************

----------------------
LOEWDIN ATOMIC CHARGES
----------------------
   0 O :   -0.314061
   1 H :    0.165313
   2 H :    0.188481
   3 O :   -0.354274
   4 H :    0.149429
   5 H :    0.139671
   6 O :   -0.313814
   7 H :    0.166794
   8 H :    0.171202
   9 O :   -0.328873
  10 H :    0.159870
  11 H :    0.171031
  12 O :   -0.330819
  13 H :    0.167023
  14 H :    0.163027

-------------------------------
LOEWDIN REDUCED ORBITAL CHARGES
-------------------------------
  0 O s       :     3.466696  s :     3.466696
      pz      :     1.701153  p :     4.784056
      px      :     1.725781
      py      :     1.357122
      dz2     :     0.010383  d :     0.058454
      dxz     :     0.011123
      dyz     :     0.012068
      dx2y2   :     0.009720
      dxy     :     0.015159
      f0      :     0.000458  f :     0.004857
      f+1     :     0.000660
      f-1     :     0.000876
      f+2     :     0.000408
      f-2     :     0.001016
      f+3     :     0.000962
      f-3     :     0.000478
  1 H s       :     0.668381  s :     0.668381
      pz      :     0.067526  p :     0.166306
      px      :     0.054335
      py      :     0.044445
  2 H s       :     0.660341  s :     0.660341
      pz      :     0.034867  p :     0.151178
      px      :     0.045223
      py      :     0.071088
  3 O s       :     3.458197  s :     3.458197
      pz      :     1.521837  p :     4.833652
      px      :     1.532158
      py      :     1.779657
      dz2     :     0.020297  d :     0.057580
      dxz     :     0.007194
      dyz     :     0.007746
      dx2y2   :     0.007653
      dxy     :     0.014691
      f0      :     0.000875  f :     0.004845
      f+1     :     0.000981
      f-1     :     0.000705
      f+2     :     0.000390
      f-2     :     0.000420
      f+3     :     0.000376
      f-3     :     0.001098
  4 H s       :     0.677327  s :     0.677327
      pz      :     0.091374  p :     0.173244
      px      :     0.037943
      py      :     0.043927
  5 H s       :     0.683504  s :     0.683504
      pz      :     0.032556  p :     0.176825
      px      :     0.084756
      py      :     0.059514
  6 O s       :     3.468514  s :     3.468514
      pz      :     1.517475  p :     4.780479
      px      :     1.441477
      py      :     1.821528
      dz2     :     0.021111  d :     0.059895
      dxz     :     0.009295
      dyz     :     0.007321
      dx2y2   :     0.009788
      dxy     :     0.012380
      f0      :     0.000806  f :     0.004925
      f+1     :     0.001196
      f-1     :     0.000587
      f+2     :     0.000419
      f-2     :     0.000411
      f+3     :     0.000450
      f-3     :     0.001055
  7 H s       :     0.672126  s :     0.672126
      pz      :     0.080800  p :     0.161080
      px      :     0.035577
      py      :     0.044702
  8 H s       :     0.672469  s :     0.672469
      pz      :     0.030501  p :     0.156329
      px      :     0.074950
      py      :     0.050878
  9 O s       :     3.472302  s :     3.472302
      pz      :     1.496980  p :     4.791897
      px      :     1.773278
      py      :     1.521639
      dz2     :     0.021859  d :     0.059707
      dxz     :     0.007892
      dyz     :     0.007268
      dx2y2   :     0.007637
      dxy     :     0.015050
      f0      :     0.000915  f :     0.004967
      f+1     :     0.000719
      f-1     :     0.001020
      f+2     :     0.000390
      f-2     :     0.000417
      f+3     :     0.001131
      f-3     :     0.000375
 10 H s       :     0.678824  s :     0.678824
      pz      :     0.080786  p :     0.161306
      px      :     0.044079
      py      :     0.036441
 11 H s       :     0.669001  s :     0.669001
      pz      :     0.030460  p :     0.159968
      px      :     0.056321
      py      :     0.073187
 12 O s       :     3.471344  s :     3.471344
      pz      :     1.503554  p :     4.794921
      px      :     1.773542
      py      :     1.517825
      dz2     :     0.021565  d :     0.059586
      dxz     :     0.007835
      dyz     :     0.007170
      dx2y2   :     0.007704
      dxy     :     0.015312
      f0      :     0.000899  f :     0.004969
      f+1     :     0.000721
      f-1     :     0.001019
      f+2     :     0.000390
      f-2     :     0.000417
      f+3     :     0.001148
      f-3     :     0.000375
 13 H s       :     0.672152  s :     0.672152
      pz      :     0.081310  p :     0.160825
      px      :     0.043425
      py      :     0.036091
 14 H s       :     0.676770  s :     0.676770
      pz      :     0.030940  p :     0.160203
      px      :     0.056635
      py      :     0.072628


                      *****************************
                      * MAYER POPULATION ANALYSIS *
                      *****************************

  NA   - Mulliken gross atomic population
  ZA   - Total nuclear charge
  QA   - Mulliken gross atomic charge
  VA   - Mayer's total valence
  BVA  - Mayer's bonded valence
  FA   - Mayer's free valence

  ATOM       NA         ZA         QA         VA         BVA        FA
  0 O      8.7008     8.0000    -0.7008     2.0941     1.7104     0.3837
  1 H      0.6431     1.0000     0.3569     0.8925     0.8475     0.0450
  2 H      0.6382     1.0000     0.3618     0.8876     0.8402     0.0474
  3 O      8.7232     8.0000    -0.7232     2.0587     1.6744     0.3843
  4 H      0.6357     1.0000     0.3643     0.8997     0.8550     0.0447
  5 H      0.6604     1.0000     0.3396     0.9293     0.8828     0.0464
  6 O      8.6878     8.0000    -0.6878     2.1026     1.7186     0.3841
  7 H      0.6539     1.0000     0.3461     0.9031     0.8563     0.0468
  8 H      0.6588     1.0000     0.3412     0.9123     0.8641     0.0482
  9 O      8.6779     8.0000    -0.6779     2.0930     1.7123     0.3807
 10 H      0.6710     1.0000     0.3290     0.9129     0.8645     0.0484
 11 H      0.6487     1.0000     0.3513     0.8992     0.8528     0.0464
 12 O      8.6793     8.0000    -0.6793     2.0902     1.7097     0.3805
 13 H      0.6570     1.0000     0.3430     0.9027     0.8558     0.0469
 14 H      0.6640     1.0000     0.3360     0.9118     0.8642     0.0477

  Mayer bond orders larger than 0.100000
B(  0-O ,  1-H ) :   0.8393 B(  0-O ,  2-H ) :   0.8297 B(  3-O ,  4-H ) :   0.8296 
B(  3-O ,  5-H ) :   0.8339 B(  6-O ,  7-H ) :   0.8427 B(  6-O ,  8-H ) :   0.8406 
B(  9-O , 10-H ) :   0.8560 B(  9-O , 11-H ) :   0.8407 B( 12-O , 13-H ) :   0.8488 
B( 12-O , 14-H ) :   0.8504 


----------------------------------
MP2 DERIVATIVE INTEGRAL GENERATION
----------------------------------


Input Wavefunction Amplitudes       ... 12h2o.su.etal.mol2,3,7,9,11-orca.engrad-mp2.def2tzvp.frozencore.mp2tsaa.tmp
Input Correlated Electron Density   ... 12h2o.su.etal.mol2,3,7,9,11-orca.engrad-mp2.def2tzvp.frozencore.pmp2re
Input Energy Weighted Density       ... 12h2o.su.etal.mol2,3,7,9,11-orca.engrad-mp2.def2tzvp.frozencore.wmp2.tmp
Input SCF Electron Density          ... 12h2o.su.etal.mol2,3,7,9,11-orca.engrad-mp2.def2tzvp.frozencore.scfp

One-Electron Terms    ...
                        ... One-Electron Terms done
Prescreening matrices              ... done

Batch handling in the gradient evaluation:
Memory available                      ... 8000.0 MB
Memory per occupied orbital in Q2     ...    7.1 MB
Memory per occupied orbital in Q3     ...    0.1 MB
Total memory requirement per |i>      ...    7.1 MB
Max. Number of orbitals possible      ...   1121
Number of orbitals treated per batch  ...     20
Number of batches to be done          ...      1
Batch   0: i=    5 ...    24

---------------------------------------
MP2 TOTAL ENERGY:     -381.581549925 Eh
---------------------------------------

The final MP2 gradient
  0:  -0.00922501  -0.02686633  -0.00195015
  1:  -0.00206007  -0.00090913   0.00173361
  2:   0.00931734   0.02754711  -0.00030208
  3:  -0.00389961   0.00479870  -0.00236663
  4:  -0.00122525  -0.00326081   0.00636680
  5:   0.00790311  -0.00255709  -0.00130221
  6:  -0.01563802   0.00830589  -0.01310124
  7:  -0.00164151   0.00028745   0.00835477
  8:   0.01657409  -0.00751507   0.00143724
  9:  -0.00423992  -0.00702941   0.01013179
 10:  -0.00046901  -0.00137685  -0.00934952
 11:   0.00561504   0.00734628  -0.00010520
 12:   0.00595012   0.00795866   0.00803361
 13:  -0.00116444   0.00233286  -0.00778099
 14:  -0.00579684  -0.00906225   0.00020022

-----------------------------------
NORM OF THE MP2 GRADIENT:  0.058431
-----------------------------------

-------------------------   --------------------
FINAL SINGLE POINT ENERGY      -381.581549924949
-------------------------   --------------------


                            ***************************************
                            *     ORCA property calculations      *
                            ***************************************

                                    ---------------------
                                    Active property flags
                                    ---------------------
   (+) Dipole Moment


------------------------------------------------------------------------------
                       ORCA ELECTRIC PROPERTIES CALCULATION
------------------------------------------------------------------------------

Dipole Moment Calculation                       ... on
Quadrupole Moment Calculation                   ... off
Polarizability Calculation                      ... off
GBWName                                         ... 12h2o.su.etal.mol2,3,7,9,11-orca.engrad-mp2.def2tzvp.frozencore.gbw
Electron density file                           ... 12h2o.su.etal.mol2,3,7,9,11-orca.engrad-mp2.def2tzvp.frozencore.scfp
The origin for moment calculation is the CENTER OF MASS  = (-0.929661, -1.311201  0.014590)

-------------
DIPOLE MOMENT
-------------
                                X             Y             Z
Electronic contribution:     -0.06737       0.05596       0.20428
Nuclear contribution   :      1.58851      -0.71062      -0.54442
                        -----------------------------------------
Total Dipole Moment    :      1.52114      -0.65466      -0.34014
                        -----------------------------------------
Magnitude (a.u.)       :      1.69061
Magnitude (Debye)      :      4.29718



--------------------
Rotational spectrum 
--------------------
 
Rotational constants in cm-1:     0.070947     0.024980     0.020895 
Rotational constants in MHz :  2126.939121   748.892433   626.409456 

 Dipole components along the rotational axes: 
x,y,z [a.u.] :    -0.430183    -1.503245    -0.642922 
x,y,z [Debye]:    -1.093439    -3.820945    -1.634179 

 

                         *** MP2 UNRELAXED DENSITY ***

------------------------------------------------------------------------------
                       ORCA ELECTRIC PROPERTIES CALCULATION
------------------------------------------------------------------------------

Dipole Moment Calculation                       ... on
Quadrupole Moment Calculation                   ... off
Polarizability Calculation                      ... off
GBWName                                         ... 12h2o.su.etal.mol2,3,7,9,11-orca.engrad-mp2.def2tzvp.frozencore.gbw
Electron density file                           ... 12h2o.su.etal.mol2,3,7,9,11-orca.engrad-mp2.def2tzvp.frozencore.pmp2ur
The origin for moment calculation is the CENTER OF MASS  = (-0.929661, -1.311201  0.014590)

-------------
DIPOLE MOMENT
-------------
                                X             Y             Z
Electronic contribution:     -0.08206       0.06261       0.21048
Nuclear contribution   :      1.58851      -0.71062      -0.54442
                        -----------------------------------------
Total Dipole Moment    :      1.50645      -0.64801      -0.33394
                        -----------------------------------------
Magnitude (a.u.)       :      1.67357
Magnitude (Debye)      :      4.25388



--------------------
Rotational spectrum 
--------------------
 
Rotational constants in cm-1:     0.070947     0.024980     0.020895 
Rotational constants in MHz :  2126.939121   748.892433   626.409456 

 Dipole components along the rotational axes: 
x,y,z [a.u.] :    -0.423133    -1.488933    -0.636299 
x,y,z [Debye]:    -1.075518    -3.784566    -1.617344 

 

                           *** MP2 RELAXED DENSITY ***

------------------------------------------------------------------------------
                       ORCA ELECTRIC PROPERTIES CALCULATION
------------------------------------------------------------------------------

Dipole Moment Calculation                       ... on
Quadrupole Moment Calculation                   ... off
Polarizability Calculation                      ... off
GBWName                                         ... 12h2o.su.etal.mol2,3,7,9,11-orca.engrad-mp2.def2tzvp.frozencore.gbw
Electron density file                           ... 12h2o.su.etal.mol2,3,7,9,11-orca.engrad-mp2.def2tzvp.frozencore.pmp2re
The origin for moment calculation is the CENTER OF MASS  = (-0.929661, -1.311201  0.014590)

-------------
DIPOLE MOMENT
-------------
                                X             Y             Z
Electronic contribution:     -0.08796       0.07040       0.21707
Nuclear contribution   :      1.58851      -0.71062      -0.54442
                        -----------------------------------------
Total Dipole Moment    :      1.50055      -0.64021      -0.32736
                        -----------------------------------------
Magnitude (a.u.)       :      1.66394
Magnitude (Debye)      :      4.22940



--------------------
Rotational spectrum 
--------------------
 
Rotational constants in cm-1:     0.070947     0.024980     0.020895 
Rotational constants in MHz :  2126.939121   748.892433   626.409456 

 Dipole components along the rotational axes: 
x,y,z [a.u.] :    -0.415019    -1.480383    -0.636334 
x,y,z [Debye]:    -1.054896    -3.762835    -1.617434 

 

Timings for individual modules:

Sum of individual times         ...       44.608 sec (=   0.743 min)
GTO integral calculation        ...        4.303 sec (=   0.072 min)   9.6 %
SCF iterations                  ...       12.125 sec (=   0.202 min)  27.2 %
MP2 module                      ...       28.180 sec (=   0.470 min)  63.2 %
                             ****ORCA TERMINATED NORMALLY****
TOTAL RUN TIME: 0 days 0 hours 0 minutes 47 seconds 735 msec
