22
Energy:   -575.79301012
O   -0.91757776   0.56835750  -2.10093065
H   -0.35650313   0.19951744  -2.78312132
H   -1.68566427   0.89256818  -2.57120970
O   -1.81851713  -0.72012754   0.73299224
H   -1.71901569  -1.65857161   0.89316104
H   -2.65879054  -0.49616383   1.13300811
O    3.63578793  -1.13934200  -0.98592715
H    3.84530251  -1.38362336  -1.88740488
H    4.48113109  -1.13069130  -0.53698176
O    1.01486590  -0.98554501  -0.20897593
H    0.78704705  -1.87916371   0.04749247
H    1.94414304  -1.03001395  -0.43413886
O    0.01295118  -3.42049800   0.63097770
H    0.35235803  -3.77444075   1.45302355
H    0.05340378  -4.15503696   0.01856613
O   -0.08968218   2.00106469   0.72597768
H    0.65608526   2.33957892   1.22142787
H   -0.77297391   2.66172250   0.83944799
O   -1.95667620   3.90456144   1.19630825
H   -2.07319006   4.72888769   0.72392853
H   -2.28807263   4.08334732   2.07633317
Li  -0.43035217   0.31558881  -0.20160326
