22
Energy:   -584.36151102
O   -2.33962604  -0.20864568  -2.92397391
H   -2.96106596  -0.82869877  -3.30552134
H   -2.46270890   0.59553967  -3.42832339
O   -1.28028641  -2.44064262  -0.91246068
H   -1.84545510  -2.80076872  -0.22899496
H   -0.67625103  -3.15238685  -1.12410486
O    2.38740461  -0.08290484  -0.09376164
H    1.96376458   0.49717907   0.53890228
H    3.28896355  -0.16079534   0.21825825
O   -1.25807016   0.66313090  -0.03933653
H   -2.02951909   1.12207846   0.29302701
H   -0.53841351   0.97487243   0.50942879
O    0.84465058   1.55773842   1.49505497
H    1.10527275   2.47836624   1.52248373
H    0.80713270   1.29146871   2.41370871
O    0.80316567  -0.50177994  -2.22931540
H    1.30395950  -0.46402708  -3.04418478
H    1.45508177  -0.37116080  -1.54071110
O    0.76625357   0.87078555   4.12949032
H    1.37259301   0.29613899   4.59678644
H    0.23036279   1.26482543   4.81781110
Li  -1.01005668  -0.58949772  -1.52355898
