22
Energy:   -571.74727891
O    2.18911507   1.84518034  -0.49580445
H    2.24787581   2.72930958  -0.13373470
H    3.03990207   1.69803142  -0.90901205
O   -0.65939039   0.43286754  -1.74558926
H   -1.20254226   1.10818919  -1.33919221
H   -0.67131468   0.64480344  -2.67895566
O   -1.61897238  -0.58416383   2.06121270
H   -1.95495739  -1.02957697   1.28342541
H   -2.21572278  -0.84392853   2.76309810
O    1.02431984  -0.75309146   1.32528813
H    1.65440277  -0.89035939   2.03266700
H    0.16920372  -0.86622408   1.74026919
O   -0.60299147   1.62282310   0.75475985
H   -1.06552652   1.00897524   1.32527188
H   -0.73910403   2.47823891   1.16215280
O   -2.16380106  -1.59564386  -0.40103206
H   -1.76277118  -1.10818667  -1.12060997
H   -2.71554957  -2.24862623  -0.83163565
O    1.93765733  -0.98577325  -1.39736867
H    2.18890812  -1.23292360  -2.28732462
H    2.11394833  -1.76666291  -0.87261667
Li   0.84540284   0.39081408  -0.32788585
