22
Energy:   -593.45145526
O   -2.19986724   1.35779087  -0.81739988
H   -3.04207407   0.91132936  -0.90452973
H   -2.38088605   2.26310907  -1.07011115
O    0.80508242   0.09000069  -1.40636915
H    1.60935148   0.33919491  -0.95108313
H    1.08679278  -0.11016762  -2.29900781
O    0.16051221   0.75256752   1.42898426
H    0.02981844   0.97631713   2.35044348
H    1.10068577   0.86206280   1.28644896
O    4.52313150  -0.95866760   1.25228893
H    4.80266046  -1.12894286   2.15178976
H    5.12986160  -1.46531069   0.71245266
O   -4.29965843  -0.50308820  -0.85989360
H   -4.70262219  -0.77848025  -1.68330800
H   -5.02983096  -0.44213186  -0.24396809
O   -1.79314088  -1.48064689  -0.06163908
H   -1.71226927  -2.40516405   0.17279567
H   -2.71474774  -1.37233822  -0.29646217
O    2.72980891   0.90651895   0.40873843
H    3.34494118   0.23578469   0.70531842
H    3.25670368   1.70289552   0.34242011
Li  -0.74874423   0.17772180  -0.21174714
