22
Energy:   -590.39960882
O   -0.92647227  -1.11523424  -1.54076791
H   -0.70444987  -1.63618999  -2.31248224
H   -1.86247294  -1.26696752  -1.40995660
O    2.59198107   0.21690057   2.79452351
H    2.62201590   0.84934566   3.51239743
H    3.29560504  -0.40185030   2.99020824
O    0.59228369  -1.42331207   0.74385298
H    0.04371510  -1.41385613  -0.04050340
H    0.50446541  -2.31240039   1.08742504
O   -3.59173896  -1.56747244  -1.23628423
H   -4.29336427  -1.22373737  -1.78927607
H   -4.02390187  -2.20680653  -0.66996367
O   -0.08418344   1.55752114   1.39090842
H   -0.70847172   2.01739972   1.95216386
H   -0.35851083   1.77336682   0.49962453
O    2.25818612   0.96304906  -0.40898309
H    3.07098500   1.20762805  -0.85144319
H    1.56504695   1.29456002  -0.97985122
O   -0.27772743   1.55985251  -1.38723655
H   -0.59548604   0.67326363  -1.55817945
H   -0.67684709   2.09435778  -2.07370539
Li   1.41258292   0.28890419   1.23305707
