
                                 *****************
                                 * O   R   C   A *
                                 *****************

           --- An Ab Initio, DFT and Semiempirical electronic structure package ---

                  #######################################################
                  #                        -***-                        #
                  #  Department of molecular theory and spectroscopy    #
                  #              Directorship: Frank Neese              #
                  # Max Planck Institute for Chemical Energy Conversion #
                  #                  D-45470 Muelheim/Ruhr              #
                  #                       Germany                       #
                  #                                                     #
                  #                  All rights reserved                #
                  #                        -***-                        #
                  #######################################################


                         Program Version 3.0.3 - RELEASE   -


 With contributions from (in alphabetic order):
   Ute Becker             : Parallelization
   Dmytro Bykov           : SCF Hessian
   Dmitry Ganyushin       : Spin-Orbit,Spin-Spin,Magnetic field MRCI
   Andreas Hansen         : Spin unrestricted coupled pair/coupled cluster methods
   Dimitrios Liakos       : Extrapolation schemes; parallel MDCI
   Robert Izsak           : Overlap fitted RIJCOSX, COSX-SCS-MP3
   Christian Kollmar      : KDIIS, OOCD, Brueckner-CCSD(T), CCSD density
   Simone Kossmann        : Meta GGA functionals, TD-DFT gradient, OOMP2, MP2 Hessian
   Taras Petrenko         : DFT Hessian,TD-DFT gradient, ASA and ECA modules, normal mode analysis, Resonance Raman, ABS, FL, XAS/XES, NRVS
   Christoph Reimann      : Effective Core Potentials
   Michael Roemelt        : Restricted open shell CIS
   Christoph Riplinger    : Improved optimizer, TS searches, QM/MM, DLPNO-CCSD
   Barbara Sandhoefer     : DKH picture change effects
   Igor Schapiro          : Molecular dynamics
   Kantharuban Sivalingam : CASSCF convergence, NEVPT2
   Boris Wezisla          : Elementary symmetry handling
   Frank Wennmohs         : Technical directorship


 We gratefully acknowledge several colleagues who have allowed us to
 interface, adapt or use parts of their codes:
   Stefan Grimme, W. Hujo, H. Kruse, T. Risthaus : VdW corrections, initial TS optimization,
                                                   DFT functionals, gCP
   Ed Valeev                                     : LibInt (2-el integral package), F12 methods
   Garnet Chan, S. Sharma, R. Olivares           : DMRG
   Ulf Ekstrom                                   : XCFun DFT Library
   Mihaly Kallay                                 : mrcc  (arbitrary order and MRCC methods)
   Andreas Klamt, Michael Diedenhofen            : otool_cosmo (COSMO solvation model)
   Frank Weinhold                                : gennbo (NPA and NBO analysis)
   Christopher J. Cramer and Donald G. Truhlar   : smd solvation model


 Your calculation uses the libint2 library for the computation of 2-el integrals
 For citations please refer to: http://libint.valeyev.net

 This ORCA versions uses:
   CBLAS   interface :  Fast vector & matrix operations
   LAPACKE interface :  Fast linear algebra routines
   SCALAPACK package :  Parallel linear algebra routines


Your calculation utilizes the basis: Ahlrichs-TZV
Cite in your paper:
H - Kr: A. Schaefer, H. Horn and R. Ahlrichs, J. Chem. Phys. 97, 2571 (1992).

The def2-TZV basis will be loaded
Cite in your paper:
 	F. Weigend, R. Ahlrichs, Phys. Chem. Chem. Phys. 2005, 7, 3297.

Your calculation utilizes the atom-pairwise dispersion correction
with the Becke-Johnson damping scheme (D3BJ)
Cite in your paper:
S.Grimme, S.Ehrlich, L.Goerigk, J Comput Chem, (2011), 32, 1456–1465 
S.Grimme, J.Antony, S.Ehrlich and H.Krieg, J.Chem.Phys., 132, (2010), 154104 
   

================================================================================
                                        WARNINGS
                       Please study these warnings very carefully!
================================================================================
Now building the actual basis set


INFO   : the flag for use of LIBINT has been found!

================================================================================
                                       INPUT FILE
================================================================================
NAME = 4_B3LYP_SMD_onB3LYP_SMD_2_waters.inp
|  1> ! B3LYP Def2-TZVP def2-TZVP/J RIJCOSX TightSCF Grid4 D3BJ COSMO
|  2> 
|  3> %pal nprocs 12 end
|  4> 
|  5> %scf
|  6>         maxiter 400
|  7> end
|  8> 
|  9> %cosmo
| 10>         SMD true
| 11>         solvent "WATER"
| 12> end
| 13> 
| 14> * xyz  0  1
| 15> O  1.215488	0.211080	0.927561
| 16> H  0.407983	0.176872	0.367895
| 17> H  1.906941	0.413446	0.279585
| 18> O  -0.992985	0.007122	-0.711643
| 19> H  -0.933447	-0.934080	-0.939707
| 20> H  -1.766187	0.044807	-0.125906
| 21> **                         ****END OF INPUT****
================================================================================

                       ****************************
                       * Single Point Calculation *
                       ****************************

---------------------------------
CARTESIAN COORDINATES (ANGSTROEM)
---------------------------------
  O      1.215488    0.211080    0.927561
  H      0.407983    0.176872    0.367895
  H      1.906941    0.413446    0.279585
  O     -0.992985    0.007122   -0.711643
  H     -0.933447   -0.934080   -0.939707
  H     -1.766187    0.044807   -0.125906

----------------------------
CARTESIAN COORDINATES (A.U.)
----------------------------
  NO LB      ZA    FRAG    MASS        X           Y           Z
   0 O     8.0000    0    15.999          2.296939439067674          0.398883392348098          1.752836262506130
   1 H     1.0000    0     1.008          0.770976137295594          0.334239640758920          0.695220796038959
   2 H     1.0000    0     1.008          3.603596243545926          0.781299711165206          0.528339081152373
   3 O     8.0000    0    15.999         -1.876469705091794          0.013458629525787         -1.344810375122121
   4 H     1.0000    0     1.008         -1.763959190530391         -1.765155387173163         -1.775788876128737
   5 H     1.0000    0     1.008         -3.337609731291974          0.084672958882610         -0.237927858617489

--------------------------------
INTERNAL COORDINATES (ANGSTROEM)
--------------------------------
 O      0   0   0   0.000000     0.000     0.000
 H      1   0   0   0.983087     0.000     0.000
 H      1   2   0   0.968985   102.281     0.000
 O      2   1   3   1.776775   175.473    62.392
 H      4   2   1   0.970268   100.784    26.542
 H      4   2   1   0.970747   104.935   133.484

---------------------------
INTERNAL COORDINATES (A.U.)
---------------------------
 O      0   0   0   0.000000     0.000     0.000
 H      1   0   0   1.857766     0.000     0.000
 H      1   2   0   1.831116   102.281     0.000
 O      2   1   3   3.357618   175.473    62.392
 H      4   2   1   1.833540   100.784    26.542
 H      4   2   1   1.834446   104.935   133.484

---------------------
BASIS SET INFORMATION
---------------------
There are 2 groups of distinct atoms

 Group   1 Type O   : 11s6p2d1f contracted to 5s3p2d1f pattern {62111/411/11/1}
 Group   2 Type H   : 5s1p contracted to 3s1p pattern {311/1}

Atom   0O    basis set group =>   1
Atom   1H    basis set group =>   2
Atom   2H    basis set group =>   2
Atom   3O    basis set group =>   1
Atom   4H    basis set group =>   2
Atom   5H    basis set group =>   2
-------------------------------
AUXILIARY BASIS SET INFORMATION
-------------------------------
There are 2 groups of distinct atoms

 Group   1 Type O   : 12s5p4d2f1g contracted to 6s4p3d1f1g pattern {711111/2111/211/2/1}
 Group   2 Type H   : 5s2p1d contracted to 3s1p1d pattern {311/2/1}

Atom   0O    basis set group =>   1
Atom   1H    basis set group =>   2
Atom   2H    basis set group =>   2
Atom   3O    basis set group =>   1
Atom   4H    basis set group =>   2
Atom   5H    basis set group =>   2
smp-n75.crc.pitt.edu.80091hfi_wait_for_device: The /dev/hfi1_0 device failed to appear after 15.0 seconds: Connection timed out
smp-n75.crc.pitt.edu.80089hfi_wait_for_device: The /dev/hfi1_0 device failed to appear after 15.0 seconds: Connection timed out
smp-n75.crc.pitt.edu.80093hfi_wait_for_device: The /dev/hfi1_0 device failed to appear after 15.0 seconds: Connection timed out
smp-n75.crc.pitt.edu.80095hfi_wait_for_device: The /dev/hfi1_0 device failed to appear after 15.0 seconds: Connection timed out
smp-n75.crc.pitt.edu.80098hfi_wait_for_device: The /dev/hfi1_0 device failed to appear after 15.0 seconds: Connection timed out
smp-n75.crc.pitt.edu.80099hfi_wait_for_device: The /dev/hfi1_0 device failed to appear after 15.0 seconds: Connection timed out
smp-n75.crc.pitt.edu.80096hfi_wait_for_device: The /dev/hfi1_0 device failed to appear after 15.0 seconds: Connection timed out
smp-n75.crc.pitt.edu.80097hfi_wait_for_device: The /dev/hfi1_0 device failed to appear after 15.0 seconds: Connection timed out
smp-n75.crc.pitt.edu.80094hfi_wait_for_device: The /dev/hfi1_0 device failed to appear after 15.0 seconds: Connection timed out
smp-n75.crc.pitt.edu.80090hfi_wait_for_device: The /dev/hfi1_0 device failed to appear after 15.0 seconds: Connection timed out
smp-n75.crc.pitt.edu.80100hfi_wait_for_device: The /dev/hfi1_0 device failed to appear after 15.0 seconds: Connection timed out
smp-n75.crc.pitt.edu.80092hfi_wait_for_device: The /dev/hfi1_0 device failed to appear after 15.0 seconds: Connection timed out


           ************************************************************
           *        Program running with 12 parallel MPI-processes    *
           *              working on a common directory               *
           ************************************************************
------------------------------------------------------------------------------
                           ORCA GTO INTEGRAL CALCULATION
                           -- RI-GTO INTEGRALS CHOSEN --
------------------------------------------------------------------------------

                         BASIS SET STATISTICS AND STARTUP INFO

Gaussian basis set:
 # of primitive gaussian shells          ...   64
 # of primitive gaussian functions       ...  124
 # of contracted shells                  ...   38
 # of contracted basis functions         ...   86
 Highest angular momentum                ...    3
 Maximum contraction depth               ...    6
Auxiliary gaussian basis set:
 # of primitive gaussian shells          ...   80
 # of primitive gaussian functions       ...  204
 # of contracted shells                  ...   50
 # of contracted aux-basis functions     ...  142
 Highest angular momentum                ...    4
 Maximum contraction depth               ...    7
Ratio of auxiliary to basis functions    ...  1.65
Integral package used                  ... LIBINT
 One Electron integrals                  ... done
 Ordering auxiliary basis shells         ... done
 Integral threshhold             Thresh  ...  2.500e-11
 Primitive cut-off               TCut    ...  2.500e-12
 Pre-screening matrix                    ... done
 Shell pair data                         ... 
 Ordering of the shell pairs             ... done (   0.000 sec) 718 of 741 pairs
 Determination of significant pairs      ... done (   0.000 sec)
 Creation of shell pair data             ... done (   0.000 sec)
 Storage of shell pair data              ... done (   0.000 sec)
 Shell pair data done in (   0.000 sec)
 Computing two index integrals           ... done
 Cholesky decomposition of the V-matrix  ... done


Timings:
 Total evaluation time                   ...   0.101 sec (  0.002 min)
 One electron matrix time                ...   0.005 sec (  0.000 min) =  5.1%
 Schwartz matrix evaluation time         ...   0.073 sec (  0.001 min) = 72.5%
 Two index repulsion integral time       ...   0.008 sec (  0.000 min) =  7.6%
 Cholesky decomposition of V             ...   0.000 sec (  0.000 min) =  0.4%
 Three index repulsion integral time     ...   0.000 sec (  0.000 min) =  0.0%

           ************************************************************
           *              Shut down parallel processing               *
           ************************************************************
smp-n75.crc.pitt.edu.80123hfi_wait_for_device: The /dev/hfi1_0 device failed to appear after 15.0 seconds: Connection timed out
smp-n75.crc.pitt.edu.80124hfi_wait_for_device: The /dev/hfi1_0 device failed to appear after 15.0 seconds: Connection timed out
smp-n75.crc.pitt.edu.80115hfi_wait_for_device: The /dev/hfi1_0 device failed to appear after 15.0 seconds: Connection timed out
smp-n75.crc.pitt.edu.80116hfi_wait_for_device: The /dev/hfi1_0 device failed to appear after 15.0 seconds: Connection timed out
smp-n75.crc.pitt.edu.80117hfi_wait_for_device: The /dev/hfi1_0 device failed to appear after 15.0 seconds: Connection timed out
smp-n75.crc.pitt.edu.80118hfi_wait_for_device: The /dev/hfi1_0 device failed to appear after 15.0 seconds: Connection timed out
smp-n75.crc.pitt.edu.80119hfi_wait_for_device: The /dev/hfi1_0 device failed to appear after 15.0 seconds: Connection timed out
smp-n75.crc.pitt.edu.80120hfi_wait_for_device: The /dev/hfi1_0 device failed to appear after 15.0 seconds: Connection timed out
smp-n75.crc.pitt.edu.80121hfi_wait_for_device: The /dev/hfi1_0 device failed to appear after 15.0 seconds: Connection timed out
smp-n75.crc.pitt.edu.80126hfi_wait_for_device: The /dev/hfi1_0 device failed to appear after 15.0 seconds: Connection timed out
smp-n75.crc.pitt.edu.80125hfi_wait_for_device: The /dev/hfi1_0 device failed to appear after 15.0 seconds: Connection timed out
smp-n75.crc.pitt.edu.80122hfi_wait_for_device: The /dev/hfi1_0 device failed to appear after 15.0 seconds: Connection timed out


           ************************************************************
           *        Program running with 12 parallel MPI-processes    *
           *              working on a common directory               *
           ************************************************************
-------------------------------------------------------------------------------
                                 ORCA SCF
-------------------------------------------------------------------------------

------------
SCF SETTINGS
------------
Hamiltonian:
 Density Functional     Method          .... DFT(GTOs)
 Exchange Functional    Exchange        .... B88
   X-Alpha parameter    XAlpha          ....  0.666667
   Becke's b parameter  XBeta           ....  0.004200
 Correlation Functional Correlation     .... LYP
 LDA part of GGA corr.  LDAOpt          .... VWN-5
 Gradients option       PostSCFGGA      .... off
 Hybrid DFT is turned on
   Fraction HF Exchange ScalHFX         ....  0.200000
   Scaling of DF-GGA-X  ScalDFX         ....  0.720000
   Scaling of DF-GGA-C  ScalDFC         ....  0.810000
   Scaling of DF-LDA-C  ScalLDAC        ....  1.000000
   Perturbative correction              ....  0.000000
   NL short-range parameter             ....  4.800000
 RI-approximation to the Coulomb term is turned on
   Number of auxiliary basis functions  .... 142
   RIJ-COSX (HFX calculated with COS-X)).... on


General Settings:
 Integral files         IntName         .... 4_B3LYP_SMD_onB3LYP_SMD_2_waters
 Hartree-Fock type      HFTyp           .... RHF
 Total Charge           Charge          ....    0
 Multiplicity           Mult            ....    1
 Number of Electrons    NEL             ....   20
 Basis Dimension        Dim             ....   86
 Nuclear Repulsion      ENuc            ....     37.6233134776 Eh

Convergence Acceleration:
 DIIS                   CNVDIIS         .... on
   Start iteration      DIISMaxIt       ....    12
   Startup error        DIISStart       ....  0.200000
   # of expansion vecs  DIISMaxEq       ....     5
   Bias factor          DIISBfac        ....   1.050
   Max. coefficient     DIISMaxC        ....  10.000
 Newton-Raphson         CNVNR           .... off
 SOSCF                  CNVSOSCF        .... on
   Start iteration      SOSCFMaxIt      ....   150
   Startup grad/error   SOSCFStart      ....  0.003300
 Level Shifting         CNVShift        .... on
   Level shift para.    LevelShift      ....    0.2500
   Turn off err/grad.   ShiftErr        ....    0.0010
 Zerner damping         CNVZerner       .... off
 Static damping         CNVDamp         .... on
   Fraction old density DampFac         ....    0.7000
   Max. Damping (<1)    DampMax         ....    0.9800
   Min. Damping (>=0)   DampMin         ....    0.0000
   Turn off err/grad.   DampErr         ....    0.1000
 Fernandez-Rico         CNVRico         .... off

SCF Procedure:
 Maximum # iterations   MaxIter         ....   400
 SCF integral mode      SCFMode         .... Direct
   Integral package                     .... LIBINT
 Reset frequeny         DirectResetFreq ....    20
 Integral Threshold     Thresh          ....  2.500e-11 Eh
 Primitive CutOff       TCut            ....  2.500e-12 Eh

Convergence Tolerance:
 Convergence Check Mode ConvCheckMode   .... Total+1el-Energy
 Energy Change          TolE            ....  1.000e-08 Eh
 1-El. energy change                    ....  1.000e-05 Eh
 Orbital Gradient       TolG            ....  1.000e-05
 Orbital Rotation angle TolX            ....  1.000e-05
 DIIS Error             TolErr          ....  5.000e-07


Diagonalization of the overlap matrix:
Smallest eigenvalue                        ... 5.034e-03
Time for diagonalization                   ...    0.001 sec
Threshold for overlap eigenvalues          ... 1.000e-08
Number of eigenvalues below threshold      ... 0
Time for construction of square roots      ...    0.000 sec
Total time needed                          ...    0.002 sec

-------------------
DFT GRID GENERATION
-------------------

General Integration Accuracy     IntAcc      ...  4.670
Radial Grid Type                 RadialGrid  ... Gauss-Chebyshev
Angular Grid (max. acc.)         AngularGrid ... Lebedev-302
Angular grid pruning method      GridPruning ... 3 (G Style)
Weight generation scheme         WeightScheme... Becke
Basis function cutoff            BFCut       ...    1.0000e-11
Integration weight cutoff        WCut        ...    1.0000e-14
Grids for H and He will be reduced by one unit

# of grid points (after initial pruning)     ...  26000 (   0.0 sec)
# of grid points (after weights+screening)   ...  25377 (   0.0 sec)
nearest neighbour list constructed           ...    0.0 sec
Grid point re-assignment to atoms done       ...    0.0 sec
Grid point division into batches done        ...    0.1 sec
Reduced shell lists constructed in    0.1 sec

Total number of grid points                  ...    25377
Total number of batches                      ...      399
Average number of points per batch           ...       63
Average number of grid points per atom       ...     4230
Average number of shells per batch           ...    20.00 (52.63%)
Average number of basis functions per batch  ...    43.26 (50.30%)
Average number of large shells per batch     ...    15.89 (79.43%)
Average number of large basis fcns per batch ...    33.49 (77.41%)
Maximum spatial batch extension              ...  13.20, 19.40, 11.76 au
Average spatial batch extension              ...   0.42,  0.47,  0.40 au

Time for grid setup =    0.087 sec

------------------------------
INITIAL GUESS: MODEL POTENTIAL
------------------------------
Loading Hartree-Fock densities                     ... done
Calculating cut-offs                               ... done
Setting up the integral package                    ... done
Initializing the effective Hamiltonian             ... done
Starting the Coulomb interaction                   ... done (   0.0 sec)
Reading the grid                                   ... done
Mapping shells                                     ... done
Starting the XC term evaluation                    ... done (   0.0 sec)
  promolecular density results
     # of electrons  =     19.998040475
     EX              =    -17.566474600
     EC              =     -0.675934189
     EX+EC           =    -18.242408790
Transforming the Hamiltonian                       ... done (   0.0 sec)
Diagonalizing the Hamiltonian                      ... done (   0.0 sec)
Back transforming the eigenvectors                 ... done (   0.0 sec)
Now organizing SCF variables                       ... done
                      ------------------
                      INITIAL GUESS DONE (   0.2 sec)
                      ------------------
--------------------
COSX GRID GENERATION
--------------------

General Integration Accuracy     IntAcc      ...  3.340
Radial Grid Type                 RadialGrid  ... Gauss-Chebyshev
Angular Grid (max. acc.)         AngularGrid ... Lebedev-50
Angular grid pruning method      GridPruning ... 3 (G Style)
Weight generation scheme         WeightScheme... Becke
Basis function cutoff            BFCut       ...    1.0000e-11
Integration weight cutoff        WCut        ...    1.0000e-14
Grids for H and He will be reduced by one unit

# of grid points (after initial pruning)     ...   2440 (   0.0 sec)
# of grid points (after weights+screening)   ...   2380 (   0.0 sec)
nearest neighbour list constructed           ...    0.0 sec
Grid point re-assignment to atoms done       ...    0.0 sec
Grid point division into batches done        ...    0.0 sec
Reduced shell lists constructed in    0.0 sec

Total number of grid points                  ...     2380
Total number of batches                      ...       40
Average number of points per batch           ...       59
Average number of grid points per atom       ...      397
Average number of shells per batch           ...    23.80 (62.63%)
Average number of basis functions per batch  ...    53.40 (62.09%)
Average number of large shells per batch     ...    20.20 (84.87%)
Average number of large basis fcns per batch ...    43.00 (80.52%)
Maximum spatial batch extension              ...  15.99, 20.72, 12.22 au
Average spatial batch extension              ...   0.88,  1.08,  0.73 au

Overlap Fitting                  UseSFitting ... on
Constructing numerical overlap ... done (      0.0 sec)
Inverting numerical overlap    ... done (      0.0 sec)
Obtaining analytic overlap     ... done (      0.0 sec)
Final contraction and storage  ... done (      0.0 sec)


General Integration Accuracy     IntAcc      ...  3.670
Radial Grid Type                 RadialGrid  ... Gauss-Chebyshev
Angular Grid (max. acc.)         AngularGrid ... Lebedev-50
Angular grid pruning method      GridPruning ... 3 (G Style)
Weight generation scheme         WeightScheme... Becke
Basis function cutoff            BFCut       ...    1.0000e-11
Integration weight cutoff        WCut        ...    1.0000e-14
Grids for H and He will be reduced by one unit

# of grid points (after initial pruning)     ...   3204 (   0.0 sec)
# of grid points (after weights+screening)   ...   3121 (   0.0 sec)
nearest neighbour list constructed           ...    0.0 sec
Grid point re-assignment to atoms done       ...    0.0 sec
Grid point division into batches done        ...    0.0 sec
Reduced shell lists constructed in    0.0 sec

Total number of grid points                  ...     3121
Total number of batches                      ...       52
Average number of points per batch           ...       60
Average number of grid points per atom       ...      520
Average number of shells per batch           ...    24.83 (65.35%)
Average number of basis functions per batch  ...    55.50 (64.53%)
Average number of large shells per batch     ...    20.17 (81.21%)
Average number of large basis fcns per batch ...    42.83 (77.18%)
Maximum spatial batch extension              ...  16.97, 22.67, 13.23 au
Average spatial batch extension              ...   0.85,  1.09,  0.76 au

Overlap Fitting                  UseSFitting ... on
Constructing numerical overlap ... done (      0.0 sec)
Inverting numerical overlap    ... done (      0.0 sec)
Obtaining analytic overlap     ... done (      0.0 sec)
Final contraction and storage  ... done (      0.0 sec)


General Integration Accuracy     IntAcc      ...  4.010
Radial Grid Type                 RadialGrid  ... Gauss-Chebyshev
Angular Grid (max. acc.)         AngularGrid ... Lebedev-110
Angular grid pruning method      GridPruning ... 3 (G Style)
Weight generation scheme         WeightScheme... Becke
Basis function cutoff            BFCut       ...    1.0000e-11
Integration weight cutoff        WCut        ...    1.0000e-14
Grids for H and He will be reduced by one unit

# of grid points (after initial pruning)     ...   5516 (   0.0 sec)
# of grid points (after weights+screening)   ...   5393 (   0.0 sec)
nearest neighbour list constructed           ...    0.0 sec
Grid point re-assignment to atoms done       ...    0.0 sec
Grid point division into batches done        ...    0.0 sec
Reduced shell lists constructed in    0.0 sec

Total number of grid points                  ...     5393
Total number of batches                      ...       86
Average number of points per batch           ...       62
Average number of grid points per atom       ...      899
Average number of shells per batch           ...    24.11 (63.45%)
Average number of basis functions per batch  ...    54.11 (62.92%)
Average number of large shells per batch     ...    19.33 (80.18%)
Average number of large basis fcns per batch ...    40.89 (75.56%)
Maximum spatial batch extension              ...  14.61, 17.95, 12.33 au
Average spatial batch extension              ...   0.72,  0.78,  0.70 au

Overlap Fitting                  UseSFitting ... on
Constructing numerical overlap ... done (      0.0 sec)
Inverting numerical overlap    ... done (      0.0 sec)
Obtaining analytic overlap     ... done (      0.0 sec)
Final contraction and storage  ... done (      0.0 sec)

Time for X-Grid setup             =    0.084 sec

--------------------
COSMO INITIALIZATION
--------------------

Epsilon                                      ...   78.3550
Refractive Index                             ...    1.3300
Potential Evaluation                         ...  ANALYTIC
Technical COSMO parameters:
  rsolv                                      ...    1.3000
  routf                                      ...    0.8500
  disex                                      ...   10.0000
  nppa                                       ... 1082   
  nspa                                       ...   92   
Solvent:                                     ... WATER
Solvent:                                     ... WATER
SMD-CDS solvent descriptors:
  Soln                                       ...    1.3328
  Soln25                                     ...    1.3323
  Sola                                       ...    0.0000
  Solb                                       ...    0.0000
  Solg                                       ...    0.0000
  Solc                                       ...    0.0000
  Solh                                       ...    0.0000
Radii:
 Radius for O  used is    2.8724 Bohr (=   1.5200 Ang.)
 Radius for H  used is    2.2677 Bohr (=   1.2000 Ang.)
Initializing COSMO package            ... done
Setting COSMO radii                   ... done
Setting atoms and making cavity       ...  USING 1082 GRID
done
Cholesky decomposition of A           ... done
--------------
SCF ITERATIONS
--------------
ITER       Energy         Delta-E        Max-DP      RMS-DP      [F,P]     Damp
               ***  Starting incremental Fock matrix formation  ***
  0   -152.7102691737   0.000000000000 0.06684646  0.00260448  0.3506722 0.7000
  1   -152.7982984853  -0.088029311612 0.04088011  0.00152427  0.1432341 0.7000
                               ***Turning on DIIS***
  2   -152.8262185745  -0.027920089207 0.03981319  0.00169032  0.0286550 0.0000
  3   -152.8768344605  -0.050615885903 0.02538821  0.00089168  0.0836275 0.0000
  4   -152.8859603011  -0.009125840666 0.00615103  0.00023982  0.0163022 0.0000
                      *** Initiating the SOSCF procedure ***
                           *** Shutting down DIIS ***
                      *** Re-Reading the Fockian *** 
                      *** Removing any level shift *** 
ITER      Energy       Delta-E        Grad      Rot      Max-DP    RMS-DP
  5   -152.88635628  -0.0003959776  0.000615  0.000615  0.001318  0.000067
               *** Restarting incremental Fock matrix formation ***
  6   -152.88637087  -0.0000145896  0.000291  0.000556  0.000686  0.000038
  7   -152.88637099  -0.0000001195  0.000394  0.000170  0.000290  0.000012
  8   -152.88637206  -0.0000010735  0.000031  0.000053  0.000071  0.000004
  9   -152.88637207  -0.0000000112  0.000018  0.000016  0.000028  0.000001
 10   -152.88637207   0.0000000009  0.000017  0.000009  0.000016  0.000001
                 **** Energy Check signals convergence ****
              ***Rediagonalizing the Fockian in SOSCF/NRSCF***

               *****************************************************
               *                     SUCCESS                       *
               *           SCF CONVERGED AFTER  11 CYCLES          *
               *****************************************************

Setting up the final grid:

General Integration Accuracy     IntAcc      ...  5.010
Radial Grid Type                 RadialGrid  ... Gauss-Chebyshev
Angular Grid (max. acc.)         AngularGrid ... Lebedev-434
Angular grid pruning method      GridPruning ... 3 (G Style)
Weight generation scheme         WeightScheme... Becke
Basis function cutoff            BFCut       ...    1.0000e-11
Integration weight cutoff        WCut        ...    1.0000e-14
Grids for H and He will be reduced by one unit

# of grid points (after initial pruning)     ...  48452 (   0.0 sec)
# of grid points (after weights+screening)   ...  47230 (   0.0 sec)
nearest neighbour list constructed           ...    0.0 sec
Grid point re-assignment to atoms done       ...    0.0 sec
Grid point division into batches done        ...    0.2 sec
Reduced shell lists constructed in    0.3 sec

Total number of grid points                  ...    47230
Total number of batches                      ...      741
Average number of points per batch           ...       63
Average number of grid points per atom       ...     7872
Average number of shells per batch           ...    19.21 (50.54%)
Average number of basis functions per batch  ...    41.05 (47.73%)
Average number of large shells per batch     ...    15.05 (78.35%)
Average number of large basis fcns per batch ...    31.56 (76.88%)
Maximum spatial batch extension              ...  13.02, 14.82, 13.95 au
Average spatial batch extension              ...   0.34,  0.38,  0.33 au

Final grid set up in    0.3 sec
Final integration                            ... done (   0.0 sec)
Change in XC energy                          ...    -0.000002108
Integrated number of electrons               ...    20.000000116
Previous integrated no of electrons          ...    20.000019201
Old exchange energy                            =     -3.571637362 Eh
New exchange energy                            =     -3.571489425 Eh
Exchange energy change after final integration =      0.000147937 Eh
Total energy after final integration           =   -152.886226243 Eh
Final COS-X integration done in                =     0.072 sec
  0.188821090629951      -7.850106115972455E-002   2.01037327698702     
  3.383799807693982E-003  0.241497304996985       1.401174976977993E-002
Total Energy after outlying charge correction =   -152.888791089 Eh

SMD CDS free energy correction energy :                 2.38400     Kcal/mol
Total Energy after SMD CDS correction =              -152.882427098 Eh

----------------
TOTAL SCF ENERGY
----------------

Total Energy       :         -152.88242710 Eh           -4160.14234 eV
Total Energy       :         -152.88242710 Eh           -4160.14234 eV
COSMO(ediel)       :           -0.03138747 Eh              -0.85410 eV
SMD CDS (Gcds)     :            0.00379915 Eh               0.10338 eV

Components:
Nuclear Repulsion  :           37.62331348 Eh            1023.78241 eV
Electronic Energy  :         -190.50574058 Eh           -5183.92475 eV

One Electron Energy:         -284.79684755 Eh           -7749.71621 eV
Two Electron Energy:           94.29110697 Eh            2565.79146 eV

Virial components:
Potential Energy   :         -305.14405142 Eh           -8303.39178 eV
Kinetic Energy     :          152.26162432 Eh            4143.24944 eV
Virial Ratio       :            2.00407721


DFT components:
N(Alpha)           :       10.000000057946 electrons
N(Beta)            :       10.000000057946 electrons
N(Total)           :       20.000000115893 electrons
E(X)               :      -14.230682412160 Eh       
E(C)               :       -0.808456174649 Eh       
E(XC)              :      -15.039138586809 Eh       

---------------
SCF CONVERGENCE
---------------

  Last Energy change         ...   -5.1003e-10  Tolerance :   1.0000e-08
  Last MAX-Density change    ...    6.2242e-15  Tolerance :   1.0000e-07
  Last RMS-Density change    ...    1.0707e-16  Tolerance :   5.0000e-09
  Last Orbital Gradient      ...    9.6672e-07  Tolerance :   1.0000e-05
  Last Orbital Rotation      ...    2.0810e-06  Tolerance :   1.0000e-05

             **** THE GBW FILE WAS UPDATED (4_B3LYP_SMD_onB3LYP_SMD_2_waters.gbw) ****
             **** DENSITY FILE WAS UPDATED (4_B3LYP_SMD_onB3LYP_SMD_2_waters.scfp.tmp) ****
             **** ENERGY FILE WAS UPDATED (4_B3LYP_SMD_onB3LYP_SMD_2_waters.en.tmp) ****
----------------
ORBITAL ENERGIES
----------------

  NO   OCC          E(Eh)            E(eV) 
   0   2.0000     -19.138398      -520.7823 
   1   2.0000     -19.109116      -519.9855 
   2   2.0000      -1.021724       -27.8025 
   3   2.0000      -0.991120       -26.9698 
   4   2.0000      -0.530625       -14.4390 
   5   2.0000      -0.510436       -13.8897 
   6   2.0000      -0.416724       -11.3396 
   7   2.0000      -0.386016       -10.5040 
   8   2.0000      -0.327818        -8.9204 
   9   2.0000      -0.308896        -8.4055 
  10   0.0000       0.028310         0.7704 
  11   0.0000       0.076618         2.0849 
  12   0.0000       0.116858         3.1799 
  13   0.0000       0.196762         5.3542 
  14   0.0000       0.324878         8.8404 
  15   0.0000       0.350347         9.5334 
  16   0.0000       0.358218         9.7476 
  17   0.0000       0.409510        11.1433 
  18   0.0000       0.422222        11.4892 
  19   0.0000       0.446363        12.1462 
  20   0.0000       0.470437        12.8012 
  21   0.0000       0.555803        15.1242 
  22   0.0000       0.566063        15.4034 
  23   0.0000       0.584344        15.9008 
  24   0.0000       0.723368        19.6838 
  25   0.0000       0.829739        22.5784 
  26   0.0000       1.124215        30.5915 
  27   0.0000       1.160082        31.5674 
  28   0.0000       1.191687        32.4275 
  29   0.0000       1.234803        33.6007 
  30   0.0000       1.303709        35.4757 
  31   0.0000       1.319580        35.9076 
  32   0.0000       1.550513        42.1916 
  33   0.0000       1.572563        42.7916 
  34   0.0000       1.615979        43.9730 
  35   0.0000       1.746727        47.5309 
  36   0.0000       1.796267        48.8789 
  37   0.0000       1.842143        50.1273 
  38   0.0000       2.001812        54.4721 
  39   0.0000       2.026022        55.1309 
  40   0.0000       2.058122        56.0044 
  41   0.0000       2.084908        56.7332 
  42   0.0000       2.144330        58.3502 
  43   0.0000       2.220738        60.4294 
  44   0.0000       2.294320        62.4316 
  45   0.0000       2.326591        63.3098 
  46   0.0000       2.354267        64.0629 
  47   0.0000       2.392440        65.1016 
  48   0.0000       2.512994        68.3821 
  49   0.0000       2.565448        69.8094 
  50   0.0000       2.597195        70.6733 
  51   0.0000       2.622275        71.3557 
  52   0.0000       2.639733        71.8308 
  53   0.0000       2.803304        76.2818 
  54   0.0000       2.831845        77.0584 
  55   0.0000       3.024399        82.2981 
  56   0.0000       3.649147        99.2984 
  57   0.0000       3.710800       100.9760 
  58   0.0000       3.893096       105.9365 
  59   0.0000       3.935427       107.0884 
  60   0.0000       5.077391       138.1628 
  61   0.0000       5.102925       138.8576 
  62   0.0000       5.208339       141.7261 
  63   0.0000       5.214902       141.9047 
  64   0.0000       5.354761       145.7105 
  65   0.0000       5.368629       146.0878 
  66   0.0000       5.382558       146.4669 
  67   0.0000       5.414317       147.3311 
  68   0.0000       5.420155       147.4899 
  69   0.0000       5.435264       147.9010 
  70   0.0000       5.991899       163.0479 
  71   0.0000       5.997230       163.1929 
  72   0.0000       6.156455       167.5257 
  73   0.0000       6.233905       169.6332 
  74   0.0000       6.303861       171.5368 
  75   0.0000       6.339202       172.4985 
  76   0.0000       6.371339       173.3729 
  77   0.0000       6.405556       174.3040 
  78   0.0000       6.457554       175.7190 
  79   0.0000       6.487831       176.5429 
  80   0.0000       6.838332       186.0805 
  81   0.0000       6.951732       189.1663 
  82   0.0000       6.991083       190.2370 
  83   0.0000       7.068249       192.3368 
  84   0.0000      43.293119      1178.0657 
  85   0.0000      43.345286      1179.4852 

                    ********************************
                    * MULLIKEN POPULATION ANALYSIS *
                    ********************************

-----------------------
MULLIKEN ATOMIC CHARGES
-----------------------
   0 O :   -0.779080
   1 H :    0.360315
   2 H :    0.367573
   3 O :   -0.723811
   4 H :    0.386526
   5 H :    0.388478
Sum of atomic charges:   -0.0000000

--------------------------------
MULLIKEN REDUCED ORBITAL CHARGES
--------------------------------
  0 O s       :     3.808332  s :     3.808332
      pz      :     1.637502  p :     4.950999
      px      :     1.367635
      py      :     1.945862
      dz2     :     0.002455  d :     0.018581
      dxz     :     0.011770
      dyz     :     0.002172
      dx2y2   :     0.001820
      dxy     :     0.000363
      f0      :     0.000030  f :     0.001168
      f+1     :     0.000092
      f-1     :     0.000037
      f+2     :     0.000508
      f-2     :     0.000089
      f+3     :     0.000271
      f-3     :     0.000141
  1 H s       :     0.585075  s :     0.585075
      pz      :     0.016993  p :     0.054610
      px      :     0.024011
      py      :     0.013606
  2 H s       :     0.588035  s :     0.588035
      pz      :     0.014689  p :     0.044392
      px      :     0.014975
      py      :     0.014728
  3 O s       :     3.807736  s :     3.807736
      pz      :     1.750171  p :     4.895416
      px      :     1.627255
      py      :     1.517991
      dz2     :     0.002448  d :     0.019476
      dxz     :     0.006103
      dyz     :     0.001159
      dx2y2   :     0.008992
      dxy     :     0.000774
      f0      :     0.000208  f :     0.001184
      f+1     :     0.000142
      f-1     :     0.000131
      f+2     :     0.000412
      f-2     :     0.000053
      f+3     :     0.000034
      f-3     :     0.000204
  4 H s       :     0.570091  s :     0.570091
      pz      :     0.012643  p :     0.043384
      px      :     0.011109
      py      :     0.019632
  5 H s       :     0.568130  s :     0.568130
      pz      :     0.015859  p :     0.043393
      px      :     0.017699
      py      :     0.009835


                     *******************************
                     * LOEWDIN POPULATION ANALYSIS *
                     *******************************

----------------------
LOEWDIN ATOMIC CHARGES
----------------------
   0 O :   -0.395292
   1 H :    0.139203
   2 H :    0.174724
   3 O :   -0.297481
   4 H :    0.188644
   5 H :    0.190203

-------------------------------
LOEWDIN REDUCED ORBITAL CHARGES
-------------------------------
  0 O s       :     3.469153  s :     3.469153
      pz      :     1.643880  p :     4.897284
      px      :     1.361924
      py      :     1.891479
      dz2     :     0.001229  d :     0.026693
      dxz     :     0.019220
      dyz     :     0.001300
      dx2y2   :     0.004199
      dxy     :     0.000744
      f0      :     0.000186  f :     0.002163
      f+1     :     0.000509
      f-1     :     0.000033
      f+2     :     0.000868
      f-2     :     0.000177
      f+3     :     0.000304
      f-3     :     0.000086
  1 H s       :     0.674544  s :     0.674544
      pz      :     0.061318  p :     0.186253
      px      :     0.082956
      py      :     0.041978
  2 H s       :     0.665775  s :     0.665775
      pz      :     0.060049  p :     0.159501
      px      :     0.053028
      py      :     0.046424
  3 O s       :     3.457762  s :     3.457762
      pz      :     1.700981  p :     4.809237
      px      :     1.593539
      py      :     1.514717
      dz2     :     0.002732  d :     0.028250
      dxz     :     0.009446
      dyz     :     0.001465
      dx2y2   :     0.014377
      dxy     :     0.000230
      f0      :     0.000327  f :     0.002232
      f+1     :     0.000178
      f-1     :     0.000217
      f+2     :     0.000754
      f-2     :     0.000015
      f+3     :     0.000177
      f-3     :     0.000564
  4 H s       :     0.653790  s :     0.653790
      pz      :     0.040020  p :     0.157566
      px      :     0.033404
      py      :     0.084142
  5 H s       :     0.652440  s :     0.652440
      pz      :     0.057748  p :     0.157357
      px      :     0.070808
      py      :     0.028801


                      *****************************
                      * MAYER POPULATION ANALYSIS *
                      *****************************

  NA   - Mulliken gross atomic population
  ZA   - Total nuclear charge
  QA   - Mulliken gross atomic charge
  VA   - Mayer's total valence
  BVA  - Mayer's bonded valence
  FA   - Mayer's free valence

  ATOM       NA         ZA         QA         VA         BVA        FA
  0 O      8.7791     8.0000    -0.7791     1.6841     1.6841     0.0000
  1 H      0.6397     1.0000     0.3603     0.9330     0.9330     0.0000
  2 H      0.6324     1.0000     0.3676     0.8781     0.8781     0.0000
  3 O      8.7238     8.0000    -0.7238     1.8197     1.8197    -0.0000
  4 H      0.6135     1.0000     0.3865     0.8654     0.8654     0.0000
  5 H      0.6115     1.0000     0.3885     0.8622     0.8622    -0.0000

  Mayer bond orders larger than 0.1
B(  0-O ,  1-H ) :   0.8151 B(  0-O ,  2-H ) :   0.8747 B(  1-H ,  3-O ) :   0.1168 
B(  3-O ,  4-H ) :   0.8567 B(  3-O ,  5-H ) :   0.8561 

-------
TIMINGS
-------

Total SCF time: 0 days 0 hours 0 min 3 sec 

Total time                  ....       3.861 sec
Sum of individual times     ....       5.416 sec  (140.3%)

Fock matrix formation       ....       2.990 sec  ( 77.4%)
  Coulomb formation         ....       2.790 sec  ( 93.3% of F)
  Split-RI-J                ....       0.731 sec  ( 24.4% of F)
  Chain of spheres X        ....       0.653 sec  ( 21.8% of F)
  COS-X 1 center corr.      ....       0.000 sec  (  0.0% of F)
  XC integration            ....       0.196 sec  (  6.6% of F)
    Basis function eval.    ....       0.050 sec  ( 25.3% of XC)
    Density eval.           ....       0.026 sec  ( 13.5% of XC)
    XC-Functional eval.     ....       0.018 sec  (  9.0% of XC)
    XC-Potential eval.      ....       0.049 sec  ( 24.9% of XC)
Diagonalization             ....       0.010 sec  (  0.3%)
Density matrix formation    ....       0.024 sec  (  0.6%)
Population analysis         ....       0.003 sec  (  0.1%)
Initial guess               ....       0.168 sec  (  4.4%)
Orbital Transformation      ....       0.000 sec  (  0.0%)
Orbital Orthonormalization  ....       0.000 sec  (  0.0%)
DIIS solution               ....       0.002 sec  (  0.1%)
SOSCF solution              ....       0.052 sec  (  1.3%)
Grid generation             ....       0.449 sec  ( 11.6%)
COSMO(total)                ....       1.718 sec  ( 44.5%)
   Initialization           ....       0.256 sec  ( 14.9% of COSMO)
   Potential evaluation     ....       0.709 sec  ( 41.3% of COSMO)
   Charge calculation       ....       0.111 sec  (  6.4% of COSMO)
   Fock-Matrix contrib.     ....       0.692 sec  ( 40.3% of COSMO)
   Outer-lying charge       ....       0.078 sec  (  4.5% of COSMO)
           ************************************************************
           *              Shut down parallel processing               *
           ************************************************************

Entering the calculation of the dispersion correction...

Checking the input atom types...

Done


-------------------------------------------------------------------------------
                          DFT DISPERSION CORRECTION                            
                                                                               
                                DFTD3 V2.1  Rev 6                               
                          USING Becke-Johnson damping                          
-------------------------------------------------------------------------------
The B3LYP functional is recognized
Active option DFTDOPT                   ...         4   

molecular C6(AA) [au] = 178.112307 


            DFT-D V3
 parameters
 s6 scaling factor         :     1.0000 
 a1 scaling factor         :     0.3981 
 s8 scaling factor         :     1.9889 
 a2 scaling factor         :     4.4211 
 ad hoc parameters k1-k3   :    16.0000     1.3333    -4.0000 

 Edisp/kcal,au: -1.459596443717  -0.002326014743 
 E6   /kcal   :  -0.786422495 
 E8   /kcal   :  -0.673173949 
 % E8         :  46.120552846 

-------------------------   ----------------
Dispersion correction           -0.002326015
-------------------------   ----------------


-------------------------   --------------------
FINAL SINGLE POINT ENERGY      -152.884753112488
-------------------------   --------------------


                            ***************************************
                            *     ORCA property calculations      *
                            ***************************************

                                    ---------------------
                                    Active property flags
                                    ---------------------
   (+) Dipole Moment


------------------------------------------------------------------------------
                       ORCA ELECTRIC PROPERTIES CALCULATION
------------------------------------------------------------------------------

Dipole Moment Calculation                       ... on
Quadrupole Moment Calculation                   ... off
Polarizability Calculation                      ... off
GBWName                                         ... 4_B3LYP_SMD_onB3LYP_SMD_2_waters.gbw
Electron density file                           ... 4_B3LYP_SMD_onB3LYP_SMD_2_waters.scfp.tmp

-------------
DIPOLE MOMENT
-------------
                                X             Y             Z
Electronic contribution:     -0.21579      -0.02719      -0.14381
Nuclear contribution   :     -0.69062      -0.61208      -0.70748
                        -----------------------------------------
Total Dipole Moment    :     -0.90642      -0.63928      -0.85129
                        -----------------------------------------
Magnitude (a.u.)       :      1.39820
Magnitude (Debye)      :      3.55394

smp-n75.crc.pitt.edu.80158hfi_wait_for_device: The /dev/hfi1_0 device failed to appear after 15.0 seconds: Connection timed out
smp-n75.crc.pitt.edu.80160hfi_wait_for_device: The /dev/hfi1_0 device failed to appear after 15.0 seconds: Connection timed out
smp-n75.crc.pitt.edu.80162hfi_wait_for_device: The /dev/hfi1_0 device failed to appear after 15.0 seconds: Connection timed out
smp-n75.crc.pitt.edu.80164hfi_wait_for_device: The /dev/hfi1_0 device failed to appear after 15.0 seconds: Connection timed out
smp-n75.crc.pitt.edu.80165hfi_wait_for_device: The /dev/hfi1_0 device failed to appear after 15.0 seconds: Connection timed out
smp-n75.crc.pitt.edu.80166hfi_wait_for_device: The /dev/hfi1_0 device failed to appear after 15.0 seconds: Connection timed out
smp-n75.crc.pitt.edu.80168hfi_wait_for_device: The /dev/hfi1_0 device failed to appear after 15.0 seconds: Connection timed out
smp-n75.crc.pitt.edu.80159hfi_wait_for_device: The /dev/hfi1_0 device failed to appear after 15.0 seconds: Connection timed out
smp-n75.crc.pitt.edu.80161hfi_wait_for_device: The /dev/hfi1_0 device failed to appear after 15.0 seconds: Connection timed out
smp-n75.crc.pitt.edu.80163hfi_wait_for_device: The /dev/hfi1_0 device failed to appear after 15.0 seconds: Connection timed out
smp-n75.crc.pitt.edu.80169hfi_wait_for_device: The /dev/hfi1_0 device failed to appear after 15.0 seconds: Connection timed out
smp-n75.crc.pitt.edu.80167hfi_wait_for_device: The /dev/hfi1_0 device failed to appear after 15.0 seconds: Connection timed out

Timings for individual modules:

Sum of individual times         ...       34.904 sec (=   0.582 min)
GTO integral calculation        ...       15.453 sec (=   0.258 min)  44.3 %
SCF iterations                  ...       19.451 sec (=   0.324 min)  55.7 %
                             ****ORCA TERMINATED NORMALLY****
TOTAL RUN TIME: 0 days 0 hours 0 minutes 50 seconds 340 msec
cp: cannot stat ‘/scratch/slurm-1328818/*.{prop}’: No such file or directory
