
                                 *****************
                                 * O   R   C   A *
                                 *****************

           --- An Ab Initio, DFT and Semiempirical electronic structure package ---

                  #######################################################
                  #                        -***-                        #
                  #  Department of molecular theory and spectroscopy    #
                  #              Directorship: Frank Neese              #
                  # Max Planck Institute for Chemical Energy Conversion #
                  #                  D-45470 Muelheim/Ruhr              #
                  #                       Germany                       #
                  #                                                     #
                  #                  All rights reserved                #
                  #                        -***-                        #
                  #######################################################


                         Program Version 3.0.3 - RELEASE   -


 With contributions from (in alphabetic order):
   Ute Becker             : Parallelization
   Dmytro Bykov           : SCF Hessian
   Dmitry Ganyushin       : Spin-Orbit,Spin-Spin,Magnetic field MRCI
   Andreas Hansen         : Spin unrestricted coupled pair/coupled cluster methods
   Dimitrios Liakos       : Extrapolation schemes; parallel MDCI
   Robert Izsak           : Overlap fitted RIJCOSX, COSX-SCS-MP3
   Christian Kollmar      : KDIIS, OOCD, Brueckner-CCSD(T), CCSD density
   Simone Kossmann        : Meta GGA functionals, TD-DFT gradient, OOMP2, MP2 Hessian
   Taras Petrenko         : DFT Hessian,TD-DFT gradient, ASA and ECA modules, normal mode analysis, Resonance Raman, ABS, FL, XAS/XES, NRVS
   Christoph Reimann      : Effective Core Potentials
   Michael Roemelt        : Restricted open shell CIS
   Christoph Riplinger    : Improved optimizer, TS searches, QM/MM, DLPNO-CCSD
   Barbara Sandhoefer     : DKH picture change effects
   Igor Schapiro          : Molecular dynamics
   Kantharuban Sivalingam : CASSCF convergence, NEVPT2
   Boris Wezisla          : Elementary symmetry handling
   Frank Wennmohs         : Technical directorship


 We gratefully acknowledge several colleagues who have allowed us to
 interface, adapt or use parts of their codes:
   Stefan Grimme, W. Hujo, H. Kruse, T. Risthaus : VdW corrections, initial TS optimization,
                                                   DFT functionals, gCP
   Ed Valeev                                     : LibInt (2-el integral package), F12 methods
   Garnet Chan, S. Sharma, R. Olivares           : DMRG
   Ulf Ekstrom                                   : XCFun DFT Library
   Mihaly Kallay                                 : mrcc  (arbitrary order and MRCC methods)
   Andreas Klamt, Michael Diedenhofen            : otool_cosmo (COSMO solvation model)
   Frank Weinhold                                : gennbo (NPA and NBO analysis)
   Christopher J. Cramer and Donald G. Truhlar   : smd solvation model


 Your calculation uses the libint2 library for the computation of 2-el integrals
 For citations please refer to: http://libint.valeyev.net

 This ORCA versions uses:
   CBLAS   interface :  Fast vector & matrix operations
   LAPACKE interface :  Fast linear algebra routines
   SCALAPACK package :  Parallel linear algebra routines


Your calculation utilizes the basis: Ahlrichs-TZV
Cite in your paper:
H - Kr: A. Schaefer, H. Horn and R. Ahlrichs, J. Chem. Phys. 97, 2571 (1992).

The def2-TZV basis will be loaded
Cite in your paper:
 	F. Weigend, R. Ahlrichs, Phys. Chem. Chem. Phys. 2005, 7, 3297.

Your calculation utilizes the atom-pairwise dispersion correction
with the Becke-Johnson damping scheme (D3BJ)
Cite in your paper:
S.Grimme, S.Ehrlich, L.Goerigk, J Comput Chem, (2011), 32, 1456–1465 
S.Grimme, J.Antony, S.Ehrlich and H.Krieg, J.Chem.Phys., 132, (2010), 154104 
   

================================================================================
                                        WARNINGS
                       Please study these warnings very carefully!
================================================================================
Now building the actual basis set


INFO   : the flag for use of LIBINT has been found!

================================================================================
                                       INPUT FILE
================================================================================
NAME = 4_B3LYP_GasPhase_onB3LYP_2_waters.inp
|  1> ! B3LYP Def2-TZVP def2-TZVP/J RIJCOSX TightSCF Grid4 D3BJ
|  2> 
|  3> %pal nprocs 12 end
|  4> 
|  5> %scf
|  6>         maxiter 400
|  7> end
|  8> 
|  9> * xyz  0  1
| 10> O  1.262170	0.248030	0.965932
| 11> H  0.501233	0.123737	0.369476
| 12> H  1.965632	0.510107	0.357762
| 13> O  -1.008031	-0.071195	-0.738221
| 14> H  -1.146448	-0.981140	-1.035673
| 15> H  -1.736762	0.089708	-0.121490
| 16> **                         ****END OF INPUT****
================================================================================

                       ****************************
                       * Single Point Calculation *
                       ****************************

---------------------------------
CARTESIAN COORDINATES (ANGSTROEM)
---------------------------------
  O      1.262170    0.248030    0.965932
  H      0.501233    0.123737    0.369476
  H      1.965632    0.510107    0.357762
  O     -1.008031   -0.071195   -0.738221
  H     -1.146448   -0.981140   -1.035673
  H     -1.736762    0.089708   -0.121490

----------------------------
CARTESIAN COORDINATES (A.U.)
----------------------------
  NO LB      ZA    FRAG    MASS        X           Y           Z
   0 O     8.0000    0    15.999          2.385155634451386          0.468708772996488          1.825346943990823
   1 H     1.0000    0     1.008          0.947193099283751          0.233829042633014          0.698208453056688
   2 H     1.0000    0     1.008          3.714506160071898          0.963962528996168          0.676072201123935
   3 O     8.0000    0    15.999         -1.904902524502773         -0.134539052104523         -1.395035516309480
   4 H     1.0000    0     1.008         -2.166472746781751         -1.854085899035497         -1.957138334296625
   5 H     1.0000    0     1.008         -3.282004539801341          0.169523552021808         -0.229582828010093

--------------------------------
INTERNAL COORDINATES (ANGSTROEM)
--------------------------------
 O      0   0   0   0.000000     0.000     0.000
 H      1   0   0   0.974799     0.000     0.000
 H      1   2   0   0.966133   102.580     0.000
 O      2   1   3   1.882251   177.729   231.919
 H      4   2   1   0.967283   113.150   222.214
 H      4   2   1   0.968140   102.208   333.596

---------------------------
INTERNAL COORDINATES (A.U.)
---------------------------
 O      0   0   0   0.000000     0.000     0.000
 H      1   0   0   1.842104     0.000     0.000
 H      1   2   0   1.825728   102.580     0.000
 O      2   1   3   3.556939   177.729   231.919
 H      4   2   1   1.827900   113.150   222.214
 H      4   2   1   1.829520   102.208   333.596

---------------------
BASIS SET INFORMATION
---------------------
There are 2 groups of distinct atoms

 Group   1 Type O   : 11s6p2d1f contracted to 5s3p2d1f pattern {62111/411/11/1}
 Group   2 Type H   : 5s1p contracted to 3s1p pattern {311/1}

Atom   0O    basis set group =>   1
Atom   1H    basis set group =>   2
Atom   2H    basis set group =>   2
Atom   3O    basis set group =>   1
Atom   4H    basis set group =>   2
Atom   5H    basis set group =>   2
-------------------------------
AUXILIARY BASIS SET INFORMATION
-------------------------------
There are 2 groups of distinct atoms

 Group   1 Type O   : 12s5p4d2f1g contracted to 6s4p3d1f1g pattern {711111/2111/211/2/1}
 Group   2 Type H   : 5s2p1d contracted to 3s1p1d pattern {311/2/1}

Atom   0O    basis set group =>   1
Atom   1H    basis set group =>   2
Atom   2H    basis set group =>   2
Atom   3O    basis set group =>   1
Atom   4H    basis set group =>   2
Atom   5H    basis set group =>   2
smp-n88.crc.pitt.edu.350264hfi_wait_for_device: The /dev/hfi1_0 device failed to appear after 15.0 seconds: Connection timed out
smp-n88.crc.pitt.edu.350265hfi_wait_for_device: The /dev/hfi1_0 device failed to appear after 15.0 seconds: Connection timed out
smp-n88.crc.pitt.edu.350268hfi_wait_for_device: The /dev/hfi1_0 device failed to appear after 15.0 seconds: Connection timed out
smp-n88.crc.pitt.edu.350271hfi_wait_for_device: The /dev/hfi1_0 device failed to appear after 15.0 seconds: Connection timed out
smp-n88.crc.pitt.edu.350272hfi_wait_for_device: The /dev/hfi1_0 device failed to appear after 15.0 seconds: Connection timed out
smp-n88.crc.pitt.edu.350270hfi_wait_for_device: The /dev/hfi1_0 device failed to appear after 15.0 seconds: Connection timed out
smp-n88.crc.pitt.edu.350266hfi_wait_for_device: The /dev/hfi1_0 device failed to appear after 15.0 seconds: Connection timed out
smp-n88.crc.pitt.edu.350267hfi_wait_for_device: The /dev/hfi1_0 device failed to appear after 15.0 seconds: Connection timed out
smp-n88.crc.pitt.edu.350269hfi_wait_for_device: The /dev/hfi1_0 device failed to appear after 15.0 seconds: Connection timed out
smp-n88.crc.pitt.edu.350274hfi_wait_for_device: The /dev/hfi1_0 device failed to appear after 15.0 seconds: Connection timed out
smp-n88.crc.pitt.edu.350273hfi_wait_for_device: The /dev/hfi1_0 device failed to appear after 15.0 seconds: Connection timed out
smp-n88.crc.pitt.edu.350278hfi_wait_for_device: The /dev/hfi1_0 device failed to appear after 15.0 seconds: Connection timed out


           ************************************************************
           *        Program running with 12 parallel MPI-processes    *
           *              working on a common directory               *
           ************************************************************
------------------------------------------------------------------------------
                           ORCA GTO INTEGRAL CALCULATION
                           -- RI-GTO INTEGRALS CHOSEN --
------------------------------------------------------------------------------

                         BASIS SET STATISTICS AND STARTUP INFO

Gaussian basis set:
 # of primitive gaussian shells          ...   64
 # of primitive gaussian functions       ...  124
 # of contracted shells                  ...   38
 # of contracted basis functions         ...   86
 Highest angular momentum                ...    3
 Maximum contraction depth               ...    6
Auxiliary gaussian basis set:
 # of primitive gaussian shells          ...   80
 # of primitive gaussian functions       ...  204
 # of contracted shells                  ...   50
 # of contracted aux-basis functions     ...  142
 Highest angular momentum                ...    4
 Maximum contraction depth               ...    7
Ratio of auxiliary to basis functions    ...  1.65
Integral package used                  ... LIBINT
 One Electron integrals                  ... done
 Ordering auxiliary basis shells         ... done
 Integral threshhold             Thresh  ...  2.500e-11
 Primitive cut-off               TCut    ...  2.500e-12
 Pre-screening matrix                    ... done
 Shell pair data                         ... 
 Ordering of the shell pairs             ... done (   0.000 sec) 710 of 741 pairs
 Determination of significant pairs      ... done (   0.000 sec)
 Creation of shell pair data             ... done (   0.000 sec)
 Storage of shell pair data              ... done (   0.000 sec)
 Shell pair data done in (   0.000 sec)
 Computing two index integrals           ... done
 Cholesky decomposition of the V-matrix  ... done


Timings:
 Total evaluation time                   ...   0.100 sec (  0.002 min)
 One electron matrix time                ...   0.005 sec (  0.000 min) =  4.7%
 Schwartz matrix evaluation time         ...   0.074 sec (  0.001 min) = 74.2%
 Two index repulsion integral time       ...   0.006 sec (  0.000 min) =  6.2%
 Cholesky decomposition of V             ...   0.000 sec (  0.000 min) =  0.4%
 Three index repulsion integral time     ...   0.000 sec (  0.000 min) =  0.0%

           ************************************************************
           *              Shut down parallel processing               *
           ************************************************************
smp-n88.crc.pitt.edu.350316hfi_wait_for_device: The /dev/hfi1_0 device failed to appear after 15.0 seconds: Connection timed out
smp-n88.crc.pitt.edu.350320hfi_wait_for_device: The /dev/hfi1_0 device failed to appear after 15.0 seconds: Connection timed out
smp-n88.crc.pitt.edu.350322hfi_wait_for_device: The /dev/hfi1_0 device failed to appear after 15.0 seconds: Connection timed out
smp-n88.crc.pitt.edu.350317hfi_wait_for_device: The /dev/hfi1_0 device failed to appear after 15.0 seconds: Connection timed out
smp-n88.crc.pitt.edu.350326hfi_wait_for_device: The /dev/hfi1_0 device failed to appear after 15.0 seconds: Connection timed out
smp-n88.crc.pitt.edu.350318hfi_wait_for_device: The /dev/hfi1_0 device failed to appear after 15.0 seconds: Connection timed out
smp-n88.crc.pitt.edu.350324hfi_wait_for_device: The /dev/hfi1_0 device failed to appear after 15.0 seconds: Connection timed out
smp-n88.crc.pitt.edu.350319hfi_wait_for_device: The /dev/hfi1_0 device failed to appear after 15.0 seconds: Connection timed out
smp-n88.crc.pitt.edu.350323hfi_wait_for_device: The /dev/hfi1_0 device failed to appear after 15.0 seconds: Connection timed out
smp-n88.crc.pitt.edu.350321hfi_wait_for_device: The /dev/hfi1_0 device failed to appear after 15.0 seconds: Connection timed out
smp-n88.crc.pitt.edu.350325hfi_wait_for_device: The /dev/hfi1_0 device failed to appear after 15.0 seconds: Connection timed out
smp-n88.crc.pitt.edu.350327hfi_wait_for_device: The /dev/hfi1_0 device failed to appear after 15.0 seconds: Connection timed out


           ************************************************************
           *        Program running with 12 parallel MPI-processes    *
           *              working on a common directory               *
           ************************************************************
-------------------------------------------------------------------------------
                                 ORCA SCF
-------------------------------------------------------------------------------

------------
SCF SETTINGS
------------
Hamiltonian:
 Density Functional     Method          .... DFT(GTOs)
 Exchange Functional    Exchange        .... B88
   X-Alpha parameter    XAlpha          ....  0.666667
   Becke's b parameter  XBeta           ....  0.004200
 Correlation Functional Correlation     .... LYP
 LDA part of GGA corr.  LDAOpt          .... VWN-5
 Gradients option       PostSCFGGA      .... off
 Hybrid DFT is turned on
   Fraction HF Exchange ScalHFX         ....  0.200000
   Scaling of DF-GGA-X  ScalDFX         ....  0.720000
   Scaling of DF-GGA-C  ScalDFC         ....  0.810000
   Scaling of DF-LDA-C  ScalLDAC        ....  1.000000
   Perturbative correction              ....  0.000000
   NL short-range parameter             ....  4.800000
 RI-approximation to the Coulomb term is turned on
   Number of auxiliary basis functions  .... 142
   RIJ-COSX (HFX calculated with COS-X)).... on


General Settings:
 Integral files         IntName         .... 4_B3LYP_GasPhase_onB3LYP_2_waters
 Hartree-Fock type      HFTyp           .... RHF
 Total Charge           Charge          ....    0
 Multiplicity           Mult            ....    1
 Number of Electrons    NEL             ....   20
 Basis Dimension        Dim             ....   86
 Nuclear Repulsion      ENuc            ....     36.9045013917 Eh

Convergence Acceleration:
 DIIS                   CNVDIIS         .... on
   Start iteration      DIISMaxIt       ....    12
   Startup error        DIISStart       ....  0.200000
   # of expansion vecs  DIISMaxEq       ....     5
   Bias factor          DIISBfac        ....   1.050
   Max. coefficient     DIISMaxC        ....  10.000
 Newton-Raphson         CNVNR           .... off
 SOSCF                  CNVSOSCF        .... on
   Start iteration      SOSCFMaxIt      ....   150
   Startup grad/error   SOSCFStart      ....  0.003300
 Level Shifting         CNVShift        .... on
   Level shift para.    LevelShift      ....    0.2500
   Turn off err/grad.   ShiftErr        ....    0.0010
 Zerner damping         CNVZerner       .... off
 Static damping         CNVDamp         .... on
   Fraction old density DampFac         ....    0.7000
   Max. Damping (<1)    DampMax         ....    0.9800
   Min. Damping (>=0)   DampMin         ....    0.0000
   Turn off err/grad.   DampErr         ....    0.1000
 Fernandez-Rico         CNVRico         .... off

SCF Procedure:
 Maximum # iterations   MaxIter         ....   400
 SCF integral mode      SCFMode         .... Direct
   Integral package                     .... LIBINT
 Reset frequeny         DirectResetFreq ....    20
 Integral Threshold     Thresh          ....  2.500e-11 Eh
 Primitive CutOff       TCut            ....  2.500e-12 Eh

Convergence Tolerance:
 Convergence Check Mode ConvCheckMode   .... Total+1el-Energy
 Energy Change          TolE            ....  1.000e-08 Eh
 1-El. energy change                    ....  1.000e-05 Eh
 Orbital Gradient       TolG            ....  1.000e-05
 Orbital Rotation angle TolX            ....  1.000e-05
 DIIS Error             TolErr          ....  5.000e-07


Diagonalization of the overlap matrix:
Smallest eigenvalue                        ... 5.497e-03
Time for diagonalization                   ...    0.001 sec
Threshold for overlap eigenvalues          ... 1.000e-08
Number of eigenvalues below threshold      ... 0
Time for construction of square roots      ...    0.000 sec
Total time needed                          ...    0.002 sec

-------------------
DFT GRID GENERATION
-------------------

General Integration Accuracy     IntAcc      ...  4.670
Radial Grid Type                 RadialGrid  ... Gauss-Chebyshev
Angular Grid (max. acc.)         AngularGrid ... Lebedev-302
Angular grid pruning method      GridPruning ... 3 (G Style)
Weight generation scheme         WeightScheme... Becke
Basis function cutoff            BFCut       ...    1.0000e-11
Integration weight cutoff        WCut        ...    1.0000e-14
Grids for H and He will be reduced by one unit

# of grid points (after initial pruning)     ...  26000 (   0.0 sec)
# of grid points (after weights+screening)   ...  25410 (   0.0 sec)
nearest neighbour list constructed           ...    0.0 sec
Grid point re-assignment to atoms done       ...    0.0 sec
Grid point division into batches done        ...    0.1 sec
Reduced shell lists constructed in    0.1 sec

Total number of grid points                  ...    25410
Total number of batches                      ...      399
Average number of points per batch           ...       63
Average number of grid points per atom       ...     4235
Average number of shells per batch           ...    19.60 (51.58%)
Average number of basis functions per batch  ...    41.94 (48.77%)
Average number of large shells per batch     ...    15.49 (79.01%)
Average number of large basis fcns per batch ...    32.51 (77.52%)
Maximum spatial batch extension              ...  13.32, 15.73, 14.54 au
Average spatial batch extension              ...   0.41,  0.48,  0.41 au

Time for grid setup =    0.085 sec

------------------------------
INITIAL GUESS: MODEL POTENTIAL
------------------------------
Loading Hartree-Fock densities                     ... done
Calculating cut-offs                               ... done
Setting up the integral package                    ... done
Initializing the effective Hamiltonian             ... done
Starting the Coulomb interaction                   ... done (   0.0 sec)
Reading the grid                                   ... done
Mapping shells                                     ... done
Starting the XC term evaluation                    ... done (   0.0 sec)
  promolecular density results
     # of electrons  =     19.998034818
     EX              =    -17.565974274
     EC              =     -0.674962209
     EX+EC           =    -18.240936483
Transforming the Hamiltonian                       ... done (   0.0 sec)
Diagonalizing the Hamiltonian                      ... done (   0.0 sec)
Back transforming the eigenvectors                 ... done (   0.0 sec)
Now organizing SCF variables                       ... done
                      ------------------
                      INITIAL GUESS DONE (   0.2 sec)
                      ------------------
--------------------
COSX GRID GENERATION
--------------------

General Integration Accuracy     IntAcc      ...  3.340
Radial Grid Type                 RadialGrid  ... Gauss-Chebyshev
Angular Grid (max. acc.)         AngularGrid ... Lebedev-50
Angular grid pruning method      GridPruning ... 3 (G Style)
Weight generation scheme         WeightScheme... Becke
Basis function cutoff            BFCut       ...    1.0000e-11
Integration weight cutoff        WCut        ...    1.0000e-14
Grids for H and He will be reduced by one unit

# of grid points (after initial pruning)     ...   2440 (   0.0 sec)
# of grid points (after weights+screening)   ...   2389 (   0.0 sec)
nearest neighbour list constructed           ...    0.0 sec
Grid point re-assignment to atoms done       ...    0.0 sec
Grid point division into batches done        ...    0.0 sec
Reduced shell lists constructed in    0.0 sec

Total number of grid points                  ...     2389
Total number of batches                      ...       41
Average number of points per batch           ...       58
Average number of grid points per atom       ...      398
Average number of shells per batch           ...    24.20 (63.68%)
Average number of basis functions per batch  ...    55.00 (63.95%)
Average number of large shells per batch     ...    20.00 (82.64%)
Average number of large basis fcns per batch ...    43.20 (78.55%)
Maximum spatial batch extension              ...  12.87, 20.72, 12.22 au
Average spatial batch extension              ...   0.82,  1.11,  0.82 au

Overlap Fitting                  UseSFitting ... on
Constructing numerical overlap ... done (      0.0 sec)
Inverting numerical overlap    ... done (      0.0 sec)
Obtaining analytic overlap     ... done (      0.0 sec)
Final contraction and storage  ... done (      0.0 sec)


General Integration Accuracy     IntAcc      ...  3.670
Radial Grid Type                 RadialGrid  ... Gauss-Chebyshev
Angular Grid (max. acc.)         AngularGrid ... Lebedev-50
Angular grid pruning method      GridPruning ... 3 (G Style)
Weight generation scheme         WeightScheme... Becke
Basis function cutoff            BFCut       ...    1.0000e-11
Integration weight cutoff        WCut        ...    1.0000e-14
Grids for H and He will be reduced by one unit

# of grid points (after initial pruning)     ...   3204 (   0.0 sec)
# of grid points (after weights+screening)   ...   3135 (   0.0 sec)
nearest neighbour list constructed           ...    0.0 sec
Grid point re-assignment to atoms done       ...    0.0 sec
Grid point division into batches done        ...    0.0 sec
Reduced shell lists constructed in    0.0 sec

Total number of grid points                  ...     3135
Total number of batches                      ...       53
Average number of points per batch           ...       59
Average number of grid points per atom       ...      522
Average number of shells per batch           ...    24.17 (63.60%)
Average number of basis functions per batch  ...    54.50 (63.37%)
Average number of large shells per batch     ...    20.00 (82.76%)
Average number of large basis fcns per batch ...    43.00 (78.90%)
Maximum spatial batch extension              ...  13.84, 22.67, 13.15 au
Average spatial batch extension              ...   0.75,  1.03,  0.73 au

Overlap Fitting                  UseSFitting ... on
Constructing numerical overlap ... done (      0.0 sec)
Inverting numerical overlap    ... done (      0.0 sec)
Obtaining analytic overlap     ... done (      0.0 sec)
Final contraction and storage  ... done (      0.0 sec)


General Integration Accuracy     IntAcc      ...  4.010
Radial Grid Type                 RadialGrid  ... Gauss-Chebyshev
Angular Grid (max. acc.)         AngularGrid ... Lebedev-110
Angular grid pruning method      GridPruning ... 3 (G Style)
Weight generation scheme         WeightScheme... Becke
Basis function cutoff            BFCut       ...    1.0000e-11
Integration weight cutoff        WCut        ...    1.0000e-14
Grids for H and He will be reduced by one unit

# of grid points (after initial pruning)     ...   5516 (   0.0 sec)
# of grid points (after weights+screening)   ...   5411 (   0.0 sec)
nearest neighbour list constructed           ...    0.0 sec
Grid point re-assignment to atoms done       ...    0.0 sec
Grid point division into batches done        ...    0.0 sec
Reduced shell lists constructed in    0.0 sec

Total number of grid points                  ...     5411
Total number of batches                      ...       88
Average number of points per batch           ...       61
Average number of grid points per atom       ...      902
Average number of shells per batch           ...    23.67 (62.28%)
Average number of basis functions per batch  ...    53.22 (61.89%)
Average number of large shells per batch     ...    19.89 (84.04%)
Average number of large basis fcns per batch ...    42.33 (79.54%)
Maximum spatial batch extension              ...  14.64, 18.55, 12.33 au
Average spatial batch extension              ...   0.62,  0.76,  0.60 au

Overlap Fitting                  UseSFitting ... on
Constructing numerical overlap ... done (      0.0 sec)
Inverting numerical overlap    ... done (      0.0 sec)
Obtaining analytic overlap     ... done (      0.0 sec)
Final contraction and storage  ... done (      0.0 sec)

Time for X-Grid setup             =    0.078 sec
--------------
SCF ITERATIONS
--------------
ITER       Energy         Delta-E        Max-DP      RMS-DP      [F,P]     Damp
               ***  Starting incremental Fock matrix formation  ***
  0   -152.6669708240   0.000000000000 0.06183617  0.00273803  0.3468278 0.7000
  1   -152.7641128953  -0.097142071305 0.03610941  0.00160089  0.1369863 0.7000
                               ***Turning on DIIS***
  2   -152.7943309032  -0.030218007939 0.02972057  0.00175934  0.0258988 0.0000
  3   -152.8500439671  -0.055713063877 0.02453713  0.00097609  0.0844351 0.0000
  4   -152.8600384063  -0.009994439185 0.00532155  0.00023824  0.0132597 0.0000
                      *** Initiating the SOSCF procedure ***
                           *** Shutting down DIIS ***
                      *** Re-Reading the Fockian *** 
                      *** Removing any level shift *** 
ITER      Energy       Delta-E        Grad      Rot      Max-DP    RMS-DP
  5   -152.86034078  -0.0003023697  0.000461  0.000461  0.001040  0.000061
               *** Restarting incremental Fock matrix formation ***
  6   -152.86035163  -0.0000108521  0.000180  0.000431  0.000556  0.000034
  7   -152.86035211  -0.0000004820  0.000196  0.000127  0.000184  0.000011
  8   -152.86035235  -0.0000002374  0.000089  0.000094  0.000131  0.000008
  9   -152.86035243  -0.0000000785  0.000008  0.000011  0.000018  0.000001
 10   -152.86035242   0.0000000022  0.000010  0.000005  0.000008  0.000000
                 **** Energy Check signals convergence ****
              ***Rediagonalizing the Fockian in SOSCF/NRSCF***

               *****************************************************
               *                     SUCCESS                       *
               *           SCF CONVERGED AFTER  11 CYCLES          *
               *****************************************************

Setting up the final grid:

General Integration Accuracy     IntAcc      ...  5.010
Radial Grid Type                 RadialGrid  ... Gauss-Chebyshev
Angular Grid (max. acc.)         AngularGrid ... Lebedev-434
Angular grid pruning method      GridPruning ... 3 (G Style)
Weight generation scheme         WeightScheme... Becke
Basis function cutoff            BFCut       ...    1.0000e-11
Integration weight cutoff        WCut        ...    1.0000e-14
Grids for H and He will be reduced by one unit

# of grid points (after initial pruning)     ...  48452 (   0.0 sec)
# of grid points (after weights+screening)   ...  47272 (   0.0 sec)
nearest neighbour list constructed           ...    0.0 sec
Grid point re-assignment to atoms done       ...    0.0 sec
Grid point division into batches done        ...    0.2 sec
Reduced shell lists constructed in    0.3 sec

Total number of grid points                  ...    47272
Total number of batches                      ...      742
Average number of points per batch           ...       63
Average number of grid points per atom       ...     7879
Average number of shells per batch           ...    19.03 (50.08%)
Average number of basis functions per batch  ...    40.71 (47.34%)
Average number of large shells per batch     ...    14.94 (78.48%)
Average number of large basis fcns per batch ...    31.25 (76.76%)
Maximum spatial batch extension              ...  13.72, 16.27, 13.39 au
Average spatial batch extension              ...   0.34,  0.37,  0.33 au

Final grid set up in    0.3 sec
Final integration                            ... done (   0.0 sec)
Change in XC energy                          ...    -0.000001565
Integrated number of electrons               ...    20.000001703
Previous integrated no of electrons          ...    20.000016937
Old exchange energy                            =     -3.571177400 Eh
New exchange energy                            =     -3.571014760 Eh
Exchange energy change after final integration =      0.000162640 Eh
Total energy after final integration           =   -152.860191350 Eh
Final COS-X integration done in                =     0.069 sec

----------------
TOTAL SCF ENERGY
----------------

Total Energy       :         -152.86019135 Eh           -4159.53727 eV

Components:
Nuclear Repulsion  :           36.90450139 Eh            1004.22254 eV
Electronic Energy  :         -189.76469274 Eh           -5163.75981 eV

One Electron Energy:         -283.27001540 Eh           -7708.16899 eV
Two Electron Energy:           93.50532266 Eh            2544.40918 eV

Virial components:
Potential Energy   :         -305.16788554 Eh           -8304.04033 eV
Kinetic Energy     :          152.30769419 Eh            4144.50306 eV
Virial Ratio       :            2.00362751


DFT components:
N(Alpha)           :       10.000000851487 electrons
N(Beta)            :       10.000000851487 electrons
N(Total)           :       20.000001702974 electrons
E(X)               :      -14.230082588820 Eh       
E(C)               :       -0.807289153099 Eh       
E(XC)              :      -15.037371741919 Eh       

---------------
SCF CONVERGENCE
---------------

  Last Energy change         ...   -1.0050e-09  Tolerance :   1.0000e-08
  Last MAX-Density change    ...    4.2232e-15  Tolerance :   1.0000e-07
  Last RMS-Density change    ...    7.4095e-17  Tolerance :   5.0000e-09
  Last Orbital Gradient      ...    1.4371e-06  Tolerance :   1.0000e-05
  Last Orbital Rotation      ...    1.7701e-06  Tolerance :   1.0000e-05

             **** THE GBW FILE WAS UPDATED (4_B3LYP_GasPhase_onB3LYP_2_waters.gbw) ****
             **** DENSITY FILE WAS UPDATED (4_B3LYP_GasPhase_onB3LYP_2_waters.scfp.tmp) ****
             **** ENERGY FILE WAS UPDATED (4_B3LYP_GasPhase_onB3LYP_2_waters.en.tmp) ****
----------------
ORBITAL ENERGIES
----------------

  NO   OCC          E(Eh)            E(eV) 
   0   2.0000     -19.159062      -521.3446 
   1   2.0000     -19.090662      -519.4833 
   2   2.0000      -1.043273       -28.3889 
   3   2.0000      -0.976370       -26.5684 
   4   2.0000      -0.559386       -15.2217 
   5   2.0000      -0.498084       -13.5536 
   6   2.0000      -0.425640       -11.5822 
   7   2.0000      -0.366840        -9.9822 
   8   2.0000      -0.338548        -9.2124 
   9   2.0000      -0.283158        -7.7051 
  10   0.0000      -0.003958        -0.1077 
  11   0.0000       0.061779         1.6811 
  12   0.0000       0.074961         2.0398 
  13   0.0000       0.190435         5.1820 
  14   0.0000       0.316202         8.6043 
  15   0.0000       0.350548         9.5389 
  16   0.0000       0.371698        10.1144 
  17   0.0000       0.402869        10.9626 
  18   0.0000       0.439535        11.9603 
  19   0.0000       0.459884        12.5141 
  20   0.0000       0.472969        12.8702 
  21   0.0000       0.532829        14.4990 
  22   0.0000       0.547420        14.8961 
  23   0.0000       0.593531        16.1508 
  24   0.0000       0.692181        18.8352 
  25   0.0000       0.836204        22.7543 
  26   0.0000       1.119931        30.4749 
  27   0.0000       1.154631        31.4191 
  28   0.0000       1.190117        32.3847 
  29   0.0000       1.233453        33.5640 
  30   0.0000       1.293842        35.2072 
  31   0.0000       1.320820        35.9413 
  32   0.0000       1.521161        41.3929 
  33   0.0000       1.583566        43.0910 
  34   0.0000       1.615529        43.9608 
  35   0.0000       1.718877        46.7730 
  36   0.0000       1.795434        48.8562 
  37   0.0000       1.825180        49.6657 
  38   0.0000       1.999606        54.4121 
  39   0.0000       2.015077        54.8330 
  40   0.0000       2.036464        55.4150 
  41   0.0000       2.098532        57.1040 
  42   0.0000       2.141287        58.2674 
  43   0.0000       2.174811        59.1796 
  44   0.0000       2.256291        61.3968 
  45   0.0000       2.328809        63.3701 
  46   0.0000       2.355912        64.1076 
  47   0.0000       2.404628        65.4333 
  48   0.0000       2.536072        69.0100 
  49   0.0000       2.541856        69.1674 
  50   0.0000       2.571612        69.9771 
  51   0.0000       2.633197        71.6529 
  52   0.0000       2.667183        72.5777 
  53   0.0000       2.708986        73.7152 
  54   0.0000       2.815277        76.6076 
  55   0.0000       2.982821        81.1667 
  56   0.0000       3.613982        98.3414 
  57   0.0000       3.703822       100.7861 
  58   0.0000       3.879827       105.5755 
  59   0.0000       3.943485       107.3077 
  60   0.0000       5.064448       137.8106 
  61   0.0000       5.127757       139.5334 
  62   0.0000       5.176604       140.8625 
  63   0.0000       5.239055       142.5619 
  64   0.0000       5.344335       145.4267 
  65   0.0000       5.361278       145.8878 
  66   0.0000       5.399383       146.9247 
  67   0.0000       5.413980       147.3219 
  68   0.0000       5.436948       147.9469 
  69   0.0000       5.463038       148.6568 
  70   0.0000       5.971197       162.4845 
  71   0.0000       6.020330       163.8215 
  72   0.0000       6.166098       167.7881 
  73   0.0000       6.208654       168.9461 
  74   0.0000       6.316495       171.8806 
  75   0.0000       6.341470       172.5602 
  76   0.0000       6.373248       173.4249 
  77   0.0000       6.398537       174.1130 
  78   0.0000       6.444905       175.3748 
  79   0.0000       6.473812       176.1614 
  80   0.0000       6.843989       186.2344 
  81   0.0000       6.933660       188.6745 
  82   0.0000       6.967421       189.5932 
  83   0.0000       7.073446       192.4782 
  84   0.0000      43.256433      1177.0674 
  85   0.0000      43.359951      1179.8843 

                    ********************************
                    * MULLIKEN POPULATION ANALYSIS *
                    ********************************

-----------------------
MULLIKEN ATOMIC CHARGES
-----------------------
   0 O :   -0.663523
   1 H :    0.327553
   2 H :    0.303941
   3 O :   -0.637124
   4 H :    0.332247
   5 H :    0.336907
Sum of atomic charges:    0.0000000

--------------------------------
MULLIKEN REDUCED ORBITAL CHARGES
--------------------------------
  0 O s       :     3.804662  s :     3.804662
      pz      :     1.594118  p :     4.837093
      px      :     1.331154
      py      :     1.911821
      dz2     :     0.003117  d :     0.020532
      dxz     :     0.012246
      dyz     :     0.003238
      dx2y2   :     0.001375
      dxy     :     0.000556
      f0      :     0.000029  f :     0.001236
      f+1     :     0.000081
      f-1     :     0.000033
      f+2     :     0.000465
      f-2     :     0.000172
      f+3     :     0.000230
      f-3     :     0.000225
  1 H s       :     0.618123  s :     0.618123
      pz      :     0.017358  p :     0.054325
      px      :     0.021594
      py      :     0.015372
  2 H s       :     0.648333  s :     0.648333
      pz      :     0.015129  p :     0.047727
      px      :     0.015733
      py      :     0.016866
  3 O s       :     3.806364  s :     3.806364
      pz      :     1.694314  p :     4.809198
      px      :     1.634400
      py      :     1.480484
      dz2     :     0.002381  d :     0.020299
      dxz     :     0.006782
      dyz     :     0.001279
      dx2y2   :     0.007638
      dxy     :     0.002219
      f0      :     0.000218  f :     0.001263
      f+1     :     0.000173
      f-1     :     0.000113
      f+2     :     0.000443
      f-2     :     0.000109
      f+3     :     0.000048
      f-3     :     0.000159
  4 H s       :     0.621096  s :     0.621096
      pz      :     0.014369  p :     0.046658
      px      :     0.012792
      py      :     0.019496
  5 H s       :     0.616808  s :     0.616808
      pz      :     0.017291  p :     0.046285
      px      :     0.017335
      py      :     0.011659


                     *******************************
                     * LOEWDIN POPULATION ANALYSIS *
                     *******************************

----------------------
LOEWDIN ATOMIC CHARGES
----------------------
   0 O :   -0.341048
   1 H :    0.135913
   2 H :    0.150324
   3 O :   -0.277374
   4 H :    0.164843
   5 H :    0.167343

-------------------------------
LOEWDIN REDUCED ORBITAL CHARGES
-------------------------------
  0 O s       :     3.468543  s :     3.468543
      pz      :     1.622048  p :     4.839153
      px      :     1.354488
      py      :     1.862616
      dz2     :     0.001510  d :     0.030967
      dxz     :     0.021761
      dyz     :     0.002579
      dx2y2   :     0.003646
      dxy     :     0.001471
      f0      :     0.000201  f :     0.002386
      f+1     :     0.000513
      f-1     :     0.000046
      f+2     :     0.000843
      f-2     :     0.000335
      f+3     :     0.000225
      f-3     :     0.000223
  1 H s       :     0.687675  s :     0.687675
      pz      :     0.061249  p :     0.176413
      px      :     0.070506
      py      :     0.044658
  2 H s       :     0.690322  s :     0.690322
      pz      :     0.057513  p :     0.159354
      px      :     0.052886
      py      :     0.048955
  3 O s       :     3.461450  s :     3.461450
      pz      :     1.659707  p :     4.781629
      px      :     1.626304
      py      :     1.495618
      dz2     :     0.002814  d :     0.031874
      dxz     :     0.011111
      dyz     :     0.002471
      dx2y2   :     0.013301
      dxy     :     0.002176
      f0      :     0.000390  f :     0.002421
      f+1     :     0.000291
      f-1     :     0.000123
      f+2     :     0.000779
      f-2     :     0.000129
      f+3     :     0.000259
      f-3     :     0.000450
  4 H s       :     0.677082  s :     0.677082
      pz      :     0.041917  p :     0.158076
      px      :     0.037047
      py      :     0.079112
  5 H s       :     0.674931  s :     0.674931
      pz      :     0.058979  p :     0.157727
      px      :     0.067864
      py      :     0.030884


                      *****************************
                      * MAYER POPULATION ANALYSIS *
                      *****************************

  NA   - Mulliken gross atomic population
  ZA   - Total nuclear charge
  QA   - Mulliken gross atomic charge
  VA   - Mayer's total valence
  BVA  - Mayer's bonded valence
  FA   - Mayer's free valence

  ATOM       NA         ZA         QA         VA         BVA        FA
  0 O      8.6635     8.0000    -0.6635     1.7853     1.7853     0.0000
  1 H      0.6724     1.0000     0.3276     0.9435     0.9435     0.0000
  2 H      0.6961     1.0000     0.3039     0.9212     0.9212    -0.0000
  3 O      8.6371     8.0000    -0.6371     1.8578     1.8578     0.0000
  4 H      0.6678     1.0000     0.3322     0.9055     0.9055    -0.0000
  5 H      0.6631     1.0000     0.3369     0.9008     0.9008     0.0000

  Mayer bond orders larger than 0.1
B(  0-O ,  1-H ) :   0.8683 B(  0-O ,  2-H ) :   0.9181 B(  3-O ,  4-H ) :   0.8959 
B(  3-O ,  5-H ) :   0.8938 

-------
TIMINGS
-------

Total SCF time: 0 days 0 hours 0 min 2 sec 

Total time                  ....       2.009 sec
Sum of individual times     ....       2.113 sec  (105.2%)

Fock matrix formation       ....       1.431 sec  ( 71.3%)
  Coulomb formation         ....       1.260 sec  ( 88.1% of F)
  Split-RI-J                ....       0.712 sec  ( 49.8% of F)
  Chain of spheres X        ....       0.609 sec  ( 42.5% of F)
  COS-X 1 center corr.      ....       0.000 sec  (  0.0% of F)
  XC integration            ....       0.167 sec  ( 11.7% of F)
    Basis function eval.    ....       0.047 sec  ( 28.3% of XC)
    Density eval.           ....       0.026 sec  ( 15.2% of XC)
    XC-Functional eval.     ....       0.018 sec  ( 10.6% of XC)
    XC-Potential eval.      ....       0.046 sec  ( 27.6% of XC)
Diagonalization             ....       0.009 sec  (  0.4%)
Density matrix formation    ....       0.058 sec  (  2.9%)
Population analysis         ....       0.002 sec  (  0.1%)
Initial guess               ....       0.163 sec  (  8.1%)
Orbital Transformation      ....       0.000 sec  (  0.0%)
Orbital Orthonormalization  ....       0.000 sec  (  0.0%)
DIIS solution               ....       0.002 sec  (  0.1%)
SOSCF solution              ....       0.017 sec  (  0.8%)
Grid generation             ....       0.431 sec  ( 21.5%)
           ************************************************************
           *              Shut down parallel processing               *
           ************************************************************

Entering the calculation of the dispersion correction...

Checking the input atom types...

Done


-------------------------------------------------------------------------------
                          DFT DISPERSION CORRECTION                            
                                                                               
                                DFTD3 V2.1  Rev 6                               
                          USING Becke-Johnson damping                          
-------------------------------------------------------------------------------
The B3LYP functional is recognized
Active option DFTDOPT                   ...         4   

molecular C6(AA) [au] = 178.122654 


            DFT-D V3
 parameters
 s6 scaling factor         :     1.0000 
 a1 scaling factor         :     0.3981 
 s8 scaling factor         :     1.9889 
 a2 scaling factor         :     4.4211 
 ad hoc parameters k1-k3   :    16.0000     1.3333    -4.0000 

 Edisp/kcal,au: -1.393453100843  -0.002220608628 
 E6   /kcal   :  -0.753097342 
 E8   /kcal   :  -0.640355758 
 % E8         :  45.954597114 

-------------------------   ----------------
Dispersion correction           -0.002220609
-------------------------   ----------------


-------------------------   --------------------
FINAL SINGLE POINT ENERGY      -152.862411958671
-------------------------   --------------------


                            ***************************************
                            *     ORCA property calculations      *
                            ***************************************

                                    ---------------------
                                    Active property flags
                                    ---------------------
   (+) Dipole Moment


------------------------------------------------------------------------------
                       ORCA ELECTRIC PROPERTIES CALCULATION
------------------------------------------------------------------------------

Dipole Moment Calculation                       ... on
Quadrupole Moment Calculation                   ... off
Polarizability Calculation                      ... off
GBWName                                         ... 4_B3LYP_GasPhase_onB3LYP_2_waters.gbw
Electron density file                           ... 4_B3LYP_GasPhase_onB3LYP_2_waters.scfp.tmp

-------------
DIPOLE MOMENT
-------------
                                X             Y             Z
Electronic contribution:     -0.08256       0.05129      -0.00137
Nuclear contribution   :     -0.76962      -0.50879      -0.73693
                        -----------------------------------------
Total Dipole Moment    :     -0.85218      -0.45750      -0.73830
                        -----------------------------------------
Magnitude (a.u.)       :      1.21680
Magnitude (Debye)      :      3.09286

smp-n88.crc.pitt.edu.350353hfi_wait_for_device: The /dev/hfi1_0 device failed to appear after 15.0 seconds: Connection timed out
smp-n88.crc.pitt.edu.350355hfi_wait_for_device: The /dev/hfi1_0 device failed to appear after 15.0 seconds: Connection timed out
smp-n88.crc.pitt.edu.350354hfi_wait_for_device: The /dev/hfi1_0 device failed to appear after 15.0 seconds: Connection timed out
smp-n88.crc.pitt.edu.350356hfi_wait_for_device: The /dev/hfi1_0 device failed to appear after 15.0 seconds: Connection timed out
smp-n88.crc.pitt.edu.350357hfi_wait_for_device: The /dev/hfi1_0 device failed to appear after 15.0 seconds: Connection timed out
smp-n88.crc.pitt.edu.350359hfi_wait_for_device: The /dev/hfi1_0 device failed to appear after 15.0 seconds: Connection timed out
smp-n88.crc.pitt.edu.350361hfi_wait_for_device: The /dev/hfi1_0 device failed to appear after 15.0 seconds: Connection timed out
smp-n88.crc.pitt.edu.350364hfi_wait_for_device: The /dev/hfi1_0 device failed to appear after 15.0 seconds: Connection timed out
smp-n88.crc.pitt.edu.350360hfi_wait_for_device: The /dev/hfi1_0 device failed to appear after 15.0 seconds: Connection timed out
smp-n88.crc.pitt.edu.350363hfi_wait_for_device: The /dev/hfi1_0 device failed to appear after 15.0 seconds: Connection timed out
smp-n88.crc.pitt.edu.350362hfi_wait_for_device: The /dev/hfi1_0 device failed to appear after 15.0 seconds: Connection timed out
smp-n88.crc.pitt.edu.350358hfi_wait_for_device: The /dev/hfi1_0 device failed to appear after 15.0 seconds: Connection timed out

Timings for individual modules:

Sum of individual times         ...       33.001 sec (=   0.550 min)
GTO integral calculation        ...       15.491 sec (=   0.258 min)  46.9 %
SCF iterations                  ...       17.511 sec (=   0.292 min)  53.1 %
                             ****ORCA TERMINATED NORMALLY****
TOTAL RUN TIME: 0 days 0 hours 0 minutes 48 seconds 430 msec
cp: cannot stat ‘/scratch/slurm-1328808/*.{prop}’: No such file or directory
