17
Energy:   -397.68308830
O   -2.21579345   0.08809274   1.15160951
H   -1.38527372   0.08576580   1.62749122
H   -1.97465254   0.29666623   0.24906864
O   -0.84196373  -2.33841052   1.19277535
H   -0.11585963  -1.71492909   1.17617474
H   -1.62662335  -1.79495978   1.12064745
O   -1.31924195  -1.93739796  -1.51848601
H   -1.03506841  -1.02335691  -1.52097510
H   -1.04186265  -2.27263174  -0.66589532
O    3.24737224   2.88789165  -0.80942275
H    2.44951886   3.05873511  -0.30894865
H    3.16950934   1.97312041  -1.08027844
S    0.74601858   0.76731842  -0.14049562
O   -0.46572827   0.56729679  -0.98415487
O    0.67370882  -0.12345614   1.05172582
O    1.96344828   0.43758020  -0.93374063
O    0.81264550   2.18785286   0.30418720
