17
Energy:   -403.27938821
O   -0.46092280  -0.38159761   1.77719409
H    0.39660608  -0.63269683   1.43393728
H   -0.69817350   0.40165627   1.28074942
O   -1.64449312  -1.93316270  -0.14571543
H   -1.36606179  -1.46964287   0.64413089
H   -1.69935059  -1.25261384  -0.81659228
O    1.12374410  -1.60005822  -0.43240266
H    0.19579963  -1.83298727  -0.46231851
H    1.16787389  -0.73683833  -0.84366392
O    1.95130526   1.59491476   0.96189117
H    1.91830485   1.33994013   0.03986582
H    1.04886532   1.82921656   1.17853991
S   -0.55565348   1.34023170  -1.30750957
O   -0.81541981   2.52794292  -2.16888261
O    0.86208261   0.91084714  -1.46798781
O   -0.80888373   1.69508969   0.11728875
O   -1.46039300   0.22704703  -1.71045661
