17
Energy:   -403.60123219
O   -1.29317796   2.29446897   0.43640622
H   -1.05209809   1.49393294   0.90251178
H   -0.93719524   2.17590463  -0.44419054
O    2.26313670   1.27505120   1.67982409
H    2.44495403   0.44799507   1.23355908
H    1.32244912   1.25134411   1.85525697
O    0.33143547   1.58832126  -1.72461426
H    0.00214553   0.69811674  -1.60077612
H    0.97661947   1.70473535  -1.02717808
O   -1.78642258  -3.26082705  -1.17752647
H   -1.45610193  -2.42630193  -1.51022445
H   -1.40895227  -3.33610914  -0.30112438
S    0.19358108  -1.11504409   0.47539651
O   -0.28387816  -0.02067708   1.36674017
O   -0.29657341  -2.42451025   0.99032072
O   -0.32853859  -0.89645681  -0.90290341
O    1.68331450  -1.11853220   0.44742855
