25
Energy:  -1300.65984103
O   -2.54238522  -1.33823952   0.64930740
H   -2.74221544  -1.56734435   1.55694758
H   -3.35818328  -1.50054348   0.17563789
O    0.51016077   2.22604725  -2.43119923
H    0.24155934   3.14413611  -2.39658759
H    0.96131049   2.13948624  -3.27096287
O    1.06603862   0.39173991  -0.39709402
H    1.15422739   1.05880986  -1.07788200
H    1.72584618   0.62619115   0.25553025
O    2.52949403   1.00550110   1.82393309
H    2.91914939   1.87536778   1.91186781
H    3.22346836   0.40340790   2.09247590
O   -0.42908485  -1.75492969  -1.76422491
H    0.33577420  -1.63759661  -2.32765674
H   -1.00675591  -2.33409271  -2.26131463
O   -1.58661408   0.74354235  -1.24244376
H   -1.00895407   1.30727798  -1.75697548
H   -2.47027291   1.00899953  -1.49722094
O   -0.26393609   0.40145516   2.19163609
H   -0.74551716   0.64812395   2.98123474
H    0.57214877   0.86136740   2.26696663
O    0.38197360  -2.11733252   1.19132790
H    0.46127359  -1.77142303   2.08031045
H    0.77852956  -2.98737365   1.23609013
Ca  -0.59159485  -0.66676913  -0.00147029
