25
Energy:  -1304.20989718
O    2.59762846   0.80101632   1.39181434
H    2.97811795   0.76904089   2.26955984
H    3.11142752   1.46464509   0.93155440
O   -0.66187871  -1.52890616   0.29075790
H   -1.22488228  -1.17884151  -0.39968657
H   -1.06549845  -2.36336637   0.52950279
O   -1.93637778  -0.20659151  -1.72774643
H   -2.04623658  -0.92648588  -2.34896698
H   -2.65666213   0.39229851  -1.92460441
O   -3.37033961   2.27685864  -3.03329104
H   -3.62104064   2.09494820  -3.93898936
H   -3.72880979   3.14632168  -2.85506370
O    0.82879202   0.48443460  -1.05725430
H    1.42352673   0.54035529  -1.80518167
H   -0.04136049   0.62149399  -1.43179560
O   -0.28201989   1.16938189   1.58960714
H   -0.13749748   2.11548009   1.60520565
H   -1.19488483   1.06162209   1.85662266
O    2.14328450  -1.87683980   0.10478987
H    3.07532007  -1.80157347  -0.09984768
H    1.90403077  -2.75684808  -0.18602782
O    0.93324287  -1.19561253   2.74630849
H    1.40007293  -1.98276568   3.02682848
H    0.60055960  -0.81192861   3.55769024
Ca   0.94041978  -0.30061053   0.83661579
