
                                 *****************
                                 * O   R   C   A *
                                 *****************

           --- An Ab Initio, DFT and Semiempirical electronic structure package ---

                  #######################################################
                  #                        -***-                        #
                  #          Department of theory and spectroscopy      #
                  #               Directorship: Frank Neese             #
                  #        Max Planck Institute fuer Kohlenforschung    #
                  #                Kaiser Wilhelm Platz 1               #
                  #                 D-45470 Muelheim/Ruhr               #
                  #                      Germany                        #
                  #                                                     #
                  #                  All rights reserved                #
                  #                        -***-                        #
                  #######################################################


                         Program Version 4.2.0 -  RELEASE  -


 With contributions from (in alphabetic order):
   Daniel Aravena         : Magnetic Suceptibility
   Michael Atanasov       : Ab Initio Ligand Field Theory (pilot matlab implementation)
   Alexander A. Auer      : GIAO ZORA, VPT2
   Ute Becker             : Parallelization
   Giovanni Bistoni       : ED, misc. LED, open-shell LED, HFLED
   Martin Brehm           : Molecular dynamics
   Dmytro Bykov           : SCF Hessian
   Vijay G. Chilkuri      : MRCI spin determinant printing, contributions to CSF-ICE
   Dipayan Datta          : RHF DLPNO-CCSD density
   Achintya Kumar Dutta   : EOM-CC, STEOM-CC
   Dmitry Ganyushin       : Spin-Orbit,Spin-Spin,Magnetic field MRCI
   Miquel Garcia          : C-PCM Hessian, Gaussian charge scheme
   Yang Guo               : DLPNO-NEVPT2, CIM, IAO-localization
   Andreas Hansen         : Spin unrestricted coupled pair/coupled cluster methods
   Benjamin Helmich-Paris : CASSCF linear response (MC-RPA)
   Lee Huntington         : MR-EOM, pCC
   Robert Izsak           : Overlap fitted RIJCOSX, COSX-SCS-MP3, EOM
   Christian Kollmar      : KDIIS, OOCD, Brueckner-CCSD(T), CCSD density
   Simone Kossmann        : Meta GGA functionals, TD-DFT gradient, OOMP2, MP2 Hessian
   Martin Krupicka        : AUTO-CI
   Lucas Lang             : DCDCAS
   Dagmar Lenk            : GEPOL surface, SMD
   Dimitrios Liakos       : Extrapolation schemes; Compound Job, initial MDCI parallelization
   Dimitrios Manganas     : Further ROCIS development; embedding schemes
   Dimitrios Pantazis     : SARC Basis sets
   Taras Petrenko         : DFT Hessian,TD-DFT gradient, ASA, ECA, R-Raman, ABS, FL, XAS/XES, NRVS
   Peter Pinski           : DLPNO-MP2, DLPNO-MP2 Gradient
   Christoph Reimann      : Effective Core Potentials
   Marius Retegan         : Local ZFS, SOC
   Christoph Riplinger    : Optimizer, TS searches, QM/MM, DLPNO-CCSD(T), (RO)-DLPNO pert. Triples
   Tobias Risthaus        : Range-separated hybrids, TD-DFT gradient, RPA, STAB
   Michael Roemelt        : Original ROCIS implementation
   Masaaki Saitow         : Open-shell DLPNO-CCSD energy and density
   Barbara Sandhoefer     : DKH picture change effects
   Avijit Sen             : IP-ROCIS
   Kantharuban Sivalingam : CASSCF convergence, NEVPT2, FIC-MRCI
   Bernardo de Souza      : ESD, SOC TD-DFT
   Georgi Stoychev        : AutoAux, RI-MP2 NMR
   Willem Van den Heuvel  : Paramagnetic NMR
   Boris Wezisla          : Elementary symmetry handling
   Frank Wennmohs         : Technical directorship


 We gratefully acknowledge several colleagues who have allowed us to
 interface, adapt or use parts of their codes:
   Stefan Grimme, W. Hujo, H. Kruse,             : VdW corrections, initial TS optimization,
                  C. Bannwarth                     DFT functionals, gCP, sTDA/sTD-DF
   Ed Valeev, F. Pavosevic, A. Kumar             : LibInt (2-el integral package), F12 methods
   Garnet Chan, S. Sharma, J. Yang, R. Olivares  : DMRG
   Ulf Ekstrom                                   : XCFun DFT Library
   Mihaly Kallay                                 : mrcc  (arbitrary order and MRCC methods)
   Andreas Klamt, Michael Diedenhofen            : otool_cosmo (COSMO solvation model)
   Jiri Pittner, Ondrej Demel                    : Mk-CCSD
   Frank Weinhold                                : gennbo (NPA and NBO analysis)
   Christopher J. Cramer and Donald G. Truhlar   : smd solvation model
   Lars Goerigk                                  : TD-DFT with DH, B97 family of functionals
   V. Asgeirsson, H. Jonsson                     : NEB implementation
   FAccTs GmbH                                   : IRC, NEB, NEB-TS, Multilevel, MM, QM/MM, CI optimization
   S Lehtola, MJT Oliveira, MAL Marques          : LibXC Library


 Your calculation uses the libint2 library for the computation of 2-el integrals
 For citations please refer to: http://libint.valeyev.net

 Your ORCA version has been built with support for libXC version: 4.2.3
 For citations please refer to: https://tddft.org/programs/libxc/

 This ORCA versions uses:
   CBLAS   interface :  Fast vector & matrix operations
   LAPACKE interface :  Fast linear algebra routines
   SCALAPACK package :  Parallel linear algebra routines


----- Orbital basis set information -----
Your calculation utilizes the basis: def2-TZVP
   F. Weigend and R. Ahlrichs, Phys. Chem. Chem. Phys. 7, 3297 (2005).

================================================================================
                                        WARNINGS
                       Please study these warnings very carefully!
================================================================================


WARNING: The frozen-core approximation for MP2-gradient calculations is turned on by default.

INFO   : the flag for use of LIBINT has been found!

================================================================================
                                       INPUT FILE
================================================================================
NAME = 12mecn.remya.etal.2.mol5,7-orca.engrad-mp2.def2tzvp.frozencore.inp
|  1> # 12mecn.remya.etal.2.mol5,7
|  2> ! MP2 def2-TZVP EnGrad TightSCF
|  3> 
|  4> %pal
|  5>     nprocs 6
|  6> end
|  7> 
|  8> %maxcore 8000
|  9> 
| 10> %scf
| 11>     ConvForced true
| 12> end
| 13> 
| 14> *xyz 0 1
| 15> C  -1.955700000   2.515080000   1.698463000
| 16> H  -2.923830000   2.883163000   2.049269000
| 17> H  -1.154850000   3.171830000   2.050990000
| 18> H  -1.790380000   1.506115000   2.087896000
| 19> C  -1.948230000   2.482156000   0.253672000
| 20> N  -1.937550000   2.462523000  -0.913150000
| 21> C   1.502241000   0.651296000   1.710523000
| 22> H   1.309219000   1.637164000   2.143202000
| 23> H   2.493408000   0.297996000   2.009069000
| 24> H   0.746597000  -0.059850000   2.055508000
| 25> C   1.447974000   0.738517000   0.269805000
| 26> N   1.405612000   0.808047000  -0.894380000
| 27> *
| 28> 
| 29>                          ****END OF INPUT****
================================================================================

                     *******************************
                     * Energy+Gradient Calculation *
                     *******************************

---------------------------------
CARTESIAN COORDINATES (ANGSTROEM)
---------------------------------
  C     -1.955700    2.515080    1.698463
  H     -2.923830    2.883163    2.049269
  H     -1.154850    3.171830    2.050990
  H     -1.790380    1.506115    2.087896
  C     -1.948230    2.482156    0.253672
  N     -1.937550    2.462523   -0.913150
  C      1.502241    0.651296    1.710523
  H      1.309219    1.637164    2.143202
  H      2.493408    0.297996    2.009069
  H      0.746597   -0.059850    2.055508
  C      1.447974    0.738517    0.269805
  N      1.405612    0.808047   -0.894380

----------------------------
CARTESIAN COORDINATES (A.U.)
----------------------------
  NO LB      ZA    FRAG     MASS         X           Y           Z
   0 C     6.0000    0    12.011   -3.695737    4.752812    3.209630
   1 H     1.0000    0     1.008   -5.525238    5.448388    3.872557
   2 H     1.0000    0     1.008   -2.182350    5.993890    3.875809
   3 H     1.0000    0     1.008   -3.383328    2.846145    3.945552
   4 C     6.0000    0    12.011   -3.681621    4.690595    0.479371
   5 N     7.0000    0    14.007   -3.661439    4.653494   -1.725603
   6 C     6.0000    0    12.011    2.838824    1.230771    3.232420
   7 H     1.0000    0     1.008    2.474065    3.093792    4.050065
   8 H     1.0000    0     1.008    4.711858    0.563131    3.796590
   9 H     1.0000    0     1.008    1.410864   -0.113100    3.884347
  10 C     6.0000    0    12.011    2.736274    1.395595    0.509858
  11 N     7.0000    0    14.007    2.656222    1.526988   -1.690133

--------------------------------
INTERNAL COORDINATES (ANGSTROEM)
--------------------------------
 C      0   0   0     0.000000000000     0.00000000     0.00000000
 H      1   0   0     1.093538129845     0.00000000     0.00000000
 H      1   2   0     1.094055104064   110.03720822     0.00000000
 H      1   2   3     1.094074556470   109.26890953   119.84628146
 C      1   2   3     1.445185394459   109.44828841   239.76279971
 N      5   1   2     1.167036030623   179.58931694   103.32135777
 C      4   1   2     3.422642101291   109.66037449   194.63763705
 H      7   4   1     1.093802689222    63.99250012    47.70531260
 H      7   4   1     1.093783628514   157.26989584   127.52823072
 H      7   4   1     1.093499491667    57.51074760   187.03164997
 C      7   4   1     1.444375562537    93.36822762   297.64440640
 N     11   7   4     1.167028566132   179.91347457   197.68323012

---------------------------
INTERNAL COORDINATES (A.U.)
---------------------------
 C      0   0   0     0.000000000000     0.00000000     0.00000000
 H      1   0   0     2.066487582408     0.00000000     0.00000000
 H      1   2   0     2.067464522100   110.03720822     0.00000000
 H      1   2   3     2.067501281819   109.26890953   119.84628146
 C      1   2   3     2.731004608270   109.44828841   239.76279971
 N      5   1   2     2.205378486297   179.58931694   103.32135777
 C      4   1   2     6.467856225869   109.66037449   194.63763705
 H      7   4   1     2.066987527176    63.99250012    47.70531260
 H      7   4   1     2.066951507658   157.26989584   127.52823072
 H      7   4   1     2.066414566834    57.51074760   187.03164997
 C      7   4   1     2.729474247723    93.36822762   297.64440640
 N     11   7   4     2.205364380453   179.91347457   197.68323012

---------------------
BASIS SET INFORMATION
---------------------
There are 3 groups of distinct atoms

 Group   1 Type C   : 11s6p2d1f contracted to 5s3p2d1f pattern {62111/411/11/1}
 Group   2 Type H   : 5s1p contracted to 3s1p pattern {311/1}
 Group   3 Type N   : 11s6p2d1f contracted to 5s3p2d1f pattern {62111/411/11/1}

Atom   0C    basis set group =>   1
Atom   1H    basis set group =>   2
Atom   2H    basis set group =>   2
Atom   3H    basis set group =>   2
Atom   4C    basis set group =>   1
Atom   5N    basis set group =>   3
Atom   6C    basis set group =>   1
Atom   7H    basis set group =>   2
Atom   8H    basis set group =>   2
Atom   9H    basis set group =>   2
Atom  10C    basis set group =>   1
Atom  11N    basis set group =>   3


           ************************************************************
           *        Program running with 6 parallel MPI-processes     *
           *              working on a common directory               *
           ************************************************************
------------------------------------------------------------------------------
                           ORCA GTO INTEGRAL CALCULATION
------------------------------------------------------------------------------

                         BASIS SET STATISTICS AND STARTUP INFO

 # of primitive gaussian shells          ...  156
 # of primitive gaussian functions       ...  324
 # of contracted shells                  ...   90
 # of contracted basis functions         ...  222
 Highest angular momentum                ...    3
 Maximum contraction depth               ...    6
 Integral package used                   ... LIBINT
 Integral threshhold            Thresh   ...  2.500e-11
 Primitive cut-off              TCut     ...  2.500e-12


------------------------------ INTEGRAL EVALUATION ----------------------------


 * One electron integrals 
 Pre-screening matrix                    ... done
 Shell pair data                         ... done (   0.001 sec)



           ************************************************************
           *        Program running with 6 parallel MPI-processes     *
           *              working on a common directory               *
           ************************************************************
-------------------------------------------------------------------------------
                                 ORCA SCF
-------------------------------------------------------------------------------

------------
SCF SETTINGS
------------
Hamiltonian:
 Ab initio Hamiltonian  Method          .... Hartree-Fock(GTOs)


General Settings:
 Integral files         IntName         .... 12mecn.remya.etal.2.mol5,7-orca.engrad-mp2.def2tzvp.frozencore
 Hartree-Fock type      HFTyp           .... RHF
 Total Charge           Charge          ....    0
 Multiplicity           Mult            ....    1
 Number of Electrons    NEL             ....   44
 Basis Dimension        Dim             ....  222
 Nuclear Repulsion      ENuc            ....    178.8166577007 Eh

Convergence Acceleration:
 DIIS                   CNVDIIS         .... on
   Start iteration      DIISMaxIt       ....    12
   Startup error        DIISStart       ....  0.200000
   # of expansion vecs  DIISMaxEq       ....     5
   Bias factor          DIISBfac        ....   1.050
   Max. coefficient     DIISMaxC        ....  10.000
 Newton-Raphson         CNVNR           .... off
 SOSCF                  CNVSOSCF        .... on
   Start iteration      SOSCFMaxIt      ....   150
   Startup grad/error   SOSCFStart      ....  0.003300
 Level Shifting         CNVShift        .... on
   Level shift para.    LevelShift      ....    0.2500
   Turn off err/grad.   ShiftErr        ....    0.0010
 Zerner damping         CNVZerner       .... off
 Static damping         CNVDamp         .... on
   Fraction old density DampFac         ....    0.7000
   Max. Damping (<1)    DampMax         ....    0.9800
   Min. Damping (>=0)   DampMin         ....    0.0000
   Turn off err/grad.   DampErr         ....    0.1000
 Fernandez-Rico         CNVRico         .... off

SCF Procedure:
 Maximum # iterations   MaxIter         ....   125
 SCF integral mode      SCFMode         .... Direct
   Integral package                     .... LIBINT
 Reset frequency        DirectResetFreq ....    20
 Integral Threshold     Thresh          ....  2.500e-11 Eh
 Primitive CutOff       TCut            ....  2.500e-12 Eh

Convergence Tolerance:
 Convergence Check Mode ConvCheckMode   .... Total+1el-Energy
 Convergence forced     ConvForced      .... 1
 Energy Change          TolE            ....  1.000e-08 Eh
 1-El. energy change                    ....  1.000e-05 Eh
 Orbital Gradient       TolG            ....  1.000e-05
 Orbital Rotation angle TolX            ....  1.000e-05
 DIIS Error             TolErr          ....  5.000e-07


Diagonalization of the overlap matrix:
Smallest eigenvalue                        ... 1.453e-04
Time for diagonalization                   ...    0.218 sec
Threshold for overlap eigenvalues          ... 1.000e-08
Number of eigenvalues below threshold      ... 0
Time for construction of square roots      ...    0.004 sec
Total time needed                          ...    0.222 sec

-------------------
DFT GRID GENERATION
-------------------

General Integration Accuracy     IntAcc      ...  4.340
Radial Grid Type                 RadialGrid  ... Gauss-Chebyshev
Angular Grid (max. acc.)         AngularGrid ... Lebedev-110
Angular grid pruning method      GridPruning ... 3 (G Style)
Weight generation scheme         WeightScheme... Becke
Basis function cutoff            BFCut       ...    1.0000e-11
Integration weight cutoff        WCut        ...    1.0000e-14
Grids for H and He will be reduced by one unit

# of grid points (after initial pruning)     ...  14792 (   0.0 sec)
# of grid points (after weights+screening)   ...  14036 (   0.0 sec)
nearest neighbour list constructed           ...    0.0 sec
Grid point re-assignment to atoms done       ...    0.0 sec
Grid point division into batches done        ...    0.0 sec
Reduced shell lists constructed in    0.0 sec

Total number of grid points                  ...    14036
Total number of batches                      ...      226
Average number of points per batch           ...       62
Average number of grid points per atom       ...     1170
Average number of shells per batch           ...    53.00 (58.89%)
Average number of basis functions per batch  ...   127.05 (57.23%)
Average number of large shells per batch     ...    40.62 (76.63%)
Average number of large basis fcns per batch ...    95.33 (75.04%)
Maximum spatial batch extension              ...  15.05, 20.92, 19.63 au
Average spatial batch extension              ...   0.70,  0.82,  0.86 au

Time for grid setup =    0.069 sec

------------------------------
INITIAL GUESS: MODEL POTENTIAL
------------------------------
Loading Hartree-Fock densities                     ... done
Calculating cut-offs                               ... done
Setting up the integral package                    ... done
Initializing the effective Hamiltonian             ... done
Starting the Coulomb interaction                   ... done (   0.0 sec)
Reading the grid                                   ... done
Mapping shells                                     ... done
Starting the XC term evaluation                    ... done (   0.0 sec)
Transforming the Hamiltonian                       ... done (   0.0 sec)
Diagonalizing the Hamiltonian                      ... done (   0.0 sec)
Back transforming the eigenvectors                 ... done (   0.0 sec)
Now organizing SCF variables                       ... done
                      ------------------
                      INITIAL GUESS DONE (   0.2 sec)
                      ------------------
--------------
SCF ITERATIONS
--------------
ITER       Energy         Delta-E        Max-DP      RMS-DP      [F,P]     Damp
               ***  Starting incremental Fock matrix formation  ***
  0   -263.6008028351   0.000000000000 0.03850141  0.00109149  0.2892301 0.7000
  1   -263.7244185680  -0.123615732890 0.02751292  0.00086681  0.1881136 0.7000
                               ***Turning on DIIS***
  2   -263.7958576529  -0.071439084865 0.01628152  0.00056131  0.1423789 0.7000
  3   -264.4219396430  -0.626081990119 0.00993867  0.00036025  0.1057781 0.7000
  4   -264.3988009338   0.023138709182 0.02594572  0.00088500  0.0745152 0.0000
  5   -263.9627257197   0.436075214125 0.00661460  0.00015947  0.0064576 0.0000
                      *** Initiating the SOSCF procedure ***
                           *** Shutting down DIIS ***
                      *** Re-Reading the Fockian *** 
                      *** Removing any level shift *** 
ITER      Energy       Delta-E        Grad      Rot      Max-DP    RMS-DP
  6   -263.95076527   0.0119604510  0.001229  0.001229  0.004424  0.000099
               *** Restarting incremental Fock matrix formation ***
  7   -263.94278267   0.0079825971  0.000469  0.000708  0.003135  0.000069
  8   -263.94279505  -0.0000123819  0.000317  0.000487  0.002556  0.000057
  9   -263.94279743  -0.0000023812  0.000131  0.000158  0.000832  0.000018
 10   -263.94279803  -0.0000005945  0.000012  0.000012  0.000073  0.000002
 11   -263.94279803  -0.0000000057  0.000005  0.000007  0.000020  0.000000
                  ***Gradient check signals convergence***
              ***Rediagonalizing the Fockian in SOSCF/NRSCF***

               *****************************************************
               *                     SUCCESS                       *
               *           SCF CONVERGED AFTER  12 CYCLES          *
               *****************************************************


----------------
TOTAL SCF ENERGY
----------------

Total Energy       :         -263.94279804 Eh           -7182.24867 eV

Components:
Nuclear Repulsion  :          178.81665770 Eh            4865.84863 eV
Electronic Energy  :         -442.75945574 Eh          -12048.09730 eV
One Electron Energy:         -710.17300354 Eh          -19324.78988 eV
Two Electron Energy:          267.41354781 Eh            7276.69258 eV

Virial components:
Potential Energy   :         -527.36264940 Eh          -14350.26724 eV
Kinetic Energy     :          263.41985136 Eh            7168.01857 eV
Virial Ratio       :            2.00198522


---------------
SCF CONVERGENCE
---------------

  Last Energy change         ...   -4.5560e-10  Tolerance :   1.0000e-08
  Last MAX-Density change    ...    7.7557e-06  Tolerance :   1.0000e-07
  Last RMS-Density change    ...    1.5788e-07  Tolerance :   5.0000e-09
  Last Orbital Gradient      ...    9.5072e-07  Tolerance :   1.0000e-05
  Last Orbital Rotation      ...    1.9183e-06  Tolerance :   1.0000e-05

             **** THE GBW FILE WAS UPDATED (12mecn.remya.etal.2.mol5,7-orca.engrad-mp2.def2tzvp.frozencore.gbw) ****
             **** DENSITY FILE WAS UPDATED (12mecn.remya.etal.2.mol5,7-orca.engrad-mp2.def2tzvp.frozencore.scfp) ****
             **** ENERGY FILE WAS UPDATED (12mecn.remya.etal.2.mol5,7-orca.engrad-mp2.def2tzvp.frozencore.en.tmp) ****
             **** THE GBW FILE WAS UPDATED (12mecn.remya.etal.2.mol5,7-orca.engrad-mp2.def2tzvp.frozencore.gbw) ****
             **** DENSITY FILE WAS UPDATED (12mecn.remya.etal.2.mol5,7-orca.engrad-mp2.def2tzvp.frozencore.scfp) ****
----------------
ORBITAL ENERGIES
----------------

  NO   OCC          E(Eh)            E(eV) 
   0   2.0000     -15.572244      -423.7423 
   1   2.0000     -15.571290      -423.7163 
   2   2.0000     -11.290366      -307.2265 
   3   2.0000     -11.289811      -307.2114 
   4   2.0000     -11.276982      -306.8623 
   5   2.0000     -11.276206      -306.8412 
   6   2.0000      -1.212678       -32.9986 
   7   2.0000      -1.211047       -32.9543 
   8   2.0000      -1.048839       -28.5404 
   9   2.0000      -1.046107       -28.4660 
  10   2.0000      -0.703346       -19.1390 
  11   2.0000      -0.700802       -19.0698 
  12   2.0000      -0.643304       -17.5052 
  13   2.0000      -0.639114       -17.3912 
  14   2.0000      -0.634349       -17.2615 
  15   2.0000      -0.630898       -17.1676 
  16   2.0000      -0.553828       -15.0704 
  17   2.0000      -0.551168       -14.9980 
  18   2.0000      -0.462539       -12.5863 
  19   2.0000      -0.456843       -12.4313 
  20   2.0000      -0.453900       -12.3512 
  21   2.0000      -0.447309       -12.1719 
  22   0.0000       0.094620         2.5748 
  23   0.0000       0.141502         3.8505 
  24   0.0000       0.148863         4.0508 
  25   0.0000       0.156278         4.2526 
  26   0.0000       0.183544         4.9945 
  27   0.0000       0.185792         5.0557 
  28   0.0000       0.191876         5.2212 
  29   0.0000       0.206595         5.6217 
  30   0.0000       0.213108         5.7990 
  31   0.0000       0.225045         6.1238 
  32   0.0000       0.244629         6.6567 
  33   0.0000       0.250425         6.8144 
  34   0.0000       0.269424         7.3314 
  35   0.0000       0.282581         7.6894 
  36   0.0000       0.296784         8.0759 
  37   0.0000       0.317952         8.6519 
  38   0.0000       0.334494         9.1021 
  39   0.0000       0.362792         9.8721 
  40   0.0000       0.375457        10.2167 
  41   0.0000       0.398791        10.8516 
  42   0.0000       0.406926        11.0730 
  43   0.0000       0.440761        11.9937 
  44   0.0000       0.474588        12.9142 
  45   0.0000       0.475990        12.9523 
  46   0.0000       0.523786        14.2529 
  47   0.0000       0.524733        14.2787 
  48   0.0000       0.534379        14.5412 
  49   0.0000       0.558115        15.1871 
  50   0.0000       0.579158        15.7597 
  51   0.0000       0.591689        16.1007 
  52   0.0000       0.592718        16.1287 
  53   0.0000       0.611245        16.6328 
  54   0.0000       0.620175        16.8758 
  55   0.0000       0.623879        16.9766 
  56   0.0000       0.640271        17.4226 
  57   0.0000       0.652275        17.7493 
  58   0.0000       0.695124        18.9153 
  59   0.0000       0.718044        19.5390 
  60   0.0000       0.751121        20.4390 
  61   0.0000       0.808123        21.9902 
  62   0.0000       0.812122        22.0990 
  63   0.0000       0.815249        22.1841 
  64   0.0000       0.822340        22.3770 
  65   0.0000       0.824443        22.4342 
  66   0.0000       0.835095        22.7241 
  67   0.0000       0.898547        24.4507 
  68   0.0000       0.919474        25.0202 
  69   0.0000       0.922604        25.1053 
  70   0.0000       0.929021        25.2799 
  71   0.0000       0.967917        26.3384 
  72   0.0000       1.032097        28.0848 
  73   0.0000       1.046963        28.4893 
  74   0.0000       1.118006        30.4225 
  75   0.0000       1.119745        30.4698 
  76   0.0000       1.162931        31.6450 
  77   0.0000       1.175022        31.9740 
  78   0.0000       1.318145        35.8686 
  79   0.0000       1.329135        36.1676 
  80   0.0000       1.418558        38.6009 
  81   0.0000       1.418633        38.6030 
  82   0.0000       1.428421        38.8693 
  83   0.0000       1.447842        39.3978 
  84   0.0000       1.454900        39.5899 
  85   0.0000       1.469766        39.9944 
  86   0.0000       1.473444        40.0944 
  87   0.0000       1.476463        40.1766 
  88   0.0000       1.478380        40.2288 
  89   0.0000       1.506215        40.9862 
  90   0.0000       1.512956        41.1696 
  91   0.0000       1.575901        42.8824 
  92   0.0000       1.693333        46.0779 
  93   0.0000       1.713207        46.6187 
  94   0.0000       1.719363        46.7862 
  95   0.0000       1.733833        47.1800 
  96   0.0000       1.747309        47.5467 
  97   0.0000       1.764208        48.0065 
  98   0.0000       1.768242        48.1163 
  99   0.0000       1.772441        48.2306 
 100   0.0000       1.804744        49.1096 
 101   0.0000       1.805460        49.1291 
 102   0.0000       1.823974        49.6329 
 103   0.0000       1.886189        51.3258 
 104   0.0000       1.930761        52.5387 
 105   0.0000       1.931090        52.5476 
 106   0.0000       1.949848        53.0581 
 107   0.0000       1.963627        53.4330 
 108   0.0000       1.973289        53.6959 
 109   0.0000       2.001526        54.4643 
 110   0.0000       2.219825        60.4045 
 111   0.0000       2.228407        60.6380 
 112   0.0000       2.241748        61.0011 
 113   0.0000       2.243812        61.0572 
 114   0.0000       2.261648        61.5426 
 115   0.0000       2.270641        61.7873 
 116   0.0000       2.381311        64.7988 
 117   0.0000       2.413959        65.6872 
 118   0.0000       2.538018        69.0630 
 119   0.0000       2.543452        69.2108 
 120   0.0000       2.553824        69.4931 
 121   0.0000       2.574451        70.0544 
 122   0.0000       2.594231        70.5926 
 123   0.0000       2.618059        71.2410 
 124   0.0000       2.620284        71.3016 
 125   0.0000       2.627058        71.4859 
 126   0.0000       2.654433        72.2308 
 127   0.0000       2.657819        72.3229 
 128   0.0000       2.707675        73.6796 
 129   0.0000       2.725341        74.1603 
 130   0.0000       2.739496        74.5455 
 131   0.0000       2.741844        74.6094 
 132   0.0000       2.754908        74.9649 
 133   0.0000       2.775487        75.5248 
 134   0.0000       2.914155        79.2982 
 135   0.0000       2.915744        79.3414 
 136   0.0000       2.916263        79.3556 
 137   0.0000       2.917227        79.3818 
 138   0.0000       2.939932        79.9996 
 139   0.0000       2.949455        80.2588 
 140   0.0000       2.952618        80.3448 
 141   0.0000       2.967949        80.7620 
 142   0.0000       3.011985        81.9603 
 143   0.0000       3.030832        82.4731 
 144   0.0000       3.084151        83.9240 
 145   0.0000       3.091142        84.1142 
 146   0.0000       3.096969        84.2728 
 147   0.0000       3.104240        84.4707 
 148   0.0000       3.221386        87.6584 
 149   0.0000       3.237200        88.0887 
 150   0.0000       3.244847        88.2968 
 151   0.0000       3.248173        88.3873 
 152   0.0000       3.253833        88.5413 
 153   0.0000       3.299386        89.7809 
 154   0.0000       3.323384        90.4339 
 155   0.0000       3.332768        90.6892 
 156   0.0000       3.336838        90.8000 
 157   0.0000       3.384027        92.0840 
 158   0.0000       3.439114        93.5831 
 159   0.0000       3.454234        93.9945 
 160   0.0000       3.464809        94.2823 
 161   0.0000       3.472566        94.4933 
 162   0.0000       3.505287        95.3837 
 163   0.0000       3.528482        96.0149 
 164   0.0000       3.628470        98.7357 
 165   0.0000       3.652872        99.3997 
 166   0.0000       3.655803        99.4795 
 167   0.0000       3.661459        99.6334 
 168   0.0000       3.800133       103.4069 
 169   0.0000       3.801953       103.4564 
 170   0.0000       3.803062       103.4866 
 171   0.0000       3.808361       103.6308 
 172   0.0000       3.927321       106.8678 
 173   0.0000       3.933627       107.0394 
 174   0.0000       3.941675       107.2584 
 175   0.0000       3.944409       107.3328 
 176   0.0000       3.957514       107.6894 
 177   0.0000       3.985733       108.4573 
 178   0.0000       4.236623       115.2844 
 179   0.0000       4.242906       115.4553 
 180   0.0000       4.255117       115.7876 
 181   0.0000       4.267467       116.1237 
 182   0.0000       4.345130       118.2370 
 183   0.0000       4.346080       118.2629 
 184   0.0000       4.349636       118.3596 
 185   0.0000       4.350514       118.3835 
 186   0.0000       4.560074       124.0859 
 187   0.0000       4.574766       124.4857 
 188   0.0000       4.732770       128.7852 
 189   0.0000       4.743753       129.0841 
 190   0.0000       4.751078       129.2834 
 191   0.0000       4.788776       130.3092 
 192   0.0000       4.828290       131.3844 
 193   0.0000       4.873656       132.6189 
 194   0.0000       4.962986       135.0497 
 195   0.0000       4.964223       135.0834 
 196   0.0000       4.964615       135.0940 
 197   0.0000       4.975058       135.3782 
 198   0.0000       5.067800       137.9019 
 199   0.0000       5.069525       137.9488 
 200   0.0000       5.071096       137.9915 
 201   0.0000       5.082421       138.2997 
 202   0.0000       5.194202       141.3414 
 203   0.0000       5.237738       142.5261 
 204   0.0000       5.556899       151.2109 
 205   0.0000       5.559399       151.2789 
 206   0.0000       5.566777       151.4797 
 207   0.0000       5.594182       152.2254 
 208   0.0000       6.021342       163.8491 
 209   0.0000       6.031934       164.1373 
 210   0.0000       6.086835       165.6312 
 211   0.0000       6.092757       165.7923 
 212   0.0000       6.098027       165.9357 
 213   0.0000       6.120632       166.5509 
 214   0.0000       6.460899       175.8100 
 215   0.0000       6.476602       176.2373 
 216   0.0000      23.466886       638.5664 
 217   0.0000      23.515363       639.8856 
 218   0.0000      24.379604       663.4027 
 219   0.0000      24.409092       664.2052 
 220   0.0000      33.396416       908.7627 
 221   0.0000      33.447596       910.1554 

                    ********************************
                    * MULLIKEN POPULATION ANALYSIS *
                    ********************************

-----------------------
MULLIKEN ATOMIC CHARGES
-----------------------
   0 C :   -0.175081
   1 H :    0.166947
   2 H :    0.151354
   3 H :    0.146034
   4 C :   -0.118843
   5 N :   -0.170584
   6 C :   -0.173756
   7 H :    0.145230
   8 H :    0.166742
   9 H :    0.152697
  10 C :   -0.121198
  11 N :   -0.169543
Sum of atomic charges:   -0.0000000

--------------------------------
MULLIKEN REDUCED ORBITAL CHARGES
--------------------------------
  0 C s       :     3.147709  s :     3.147709
      pz      :     0.799740  p :     2.960280
      px      :     1.093905
      py      :     1.066635
      dz2     :     0.017919  d :     0.063612
      dxz     :     0.011849
      dyz     :     0.012146
      dx2y2   :     0.010714
      dxy     :     0.010984
      f0      :     0.001705  f :     0.003479
      f+1     :     0.000218
      f-1     :     0.000213
      f+2     :     0.000074
      f-2     :     0.000058
      f+3     :     0.000265
      f-3     :     0.000947
  1 H s       :     0.810652  s :     0.810652
      pz      :     0.004704  p :     0.022401
      px      :     0.012741
      py      :     0.004957
  2 H s       :     0.826423  s :     0.826423
      pz      :     0.004725  p :     0.022223
      px      :     0.009673
      py      :     0.007825
  3 H s       :     0.831777  s :     0.831777
      pz      :     0.005034  p :     0.022189
      px      :     0.003887
      py      :     0.013269
  4 C s       :     3.234147  s :     3.234147
      pz      :     0.960168  p :     2.754758
      px      :     0.897183
      py      :     0.897408
      dz2     :     0.027378  d :     0.112540
      dxz     :     0.041921
      dyz     :     0.042671
      dx2y2   :     0.000207
      dxy     :     0.000362
      f0      :     0.004141  f :     0.017398
      f+1     :     0.006598
      f-1     :     0.006586
      f+2     :     0.000027
      f-2     :     0.000045
      f+3     :     0.000000
      f-3     :     0.000000
  5 N s       :     3.721122  s :     3.721122
      pz      :     1.284139  p :     3.391026
      px      :     1.052161
      py      :     1.054726
      dz2     :     0.011799  d :     0.055470
      dxz     :     0.021807
      dyz     :     0.021823
      dx2y2   :     0.000019
      dxy     :     0.000021
      f0      :     0.000620  f :     0.002966
      f+1     :     0.001174
      f-1     :     0.001170
      f+2     :     0.000001
      f-2     :     0.000001
      f+3     :     0.000000
      f-3     :     0.000000
  6 C s       :     3.149701  s :     3.149701
      pz      :     0.798435  p :     2.957263
      px      :     1.095154
      py      :     1.063674
      dz2     :     0.017971  d :     0.063318
      dxz     :     0.010807
      dyz     :     0.012753
      dx2y2   :     0.010290
      dxy     :     0.011496
      f0      :     0.001649  f :     0.003474
      f+1     :     0.000234
      f-1     :     0.000240
      f+2     :     0.000078
      f-2     :     0.000057
      f+3     :     0.000396
      f-3     :     0.000821
  7 H s       :     0.832579  s :     0.832579
      pz      :     0.005399  p :     0.022191
      px      :     0.003947
      py      :     0.012845
  8 H s       :     0.810846  s :     0.810846
      pz      :     0.004360  p :     0.022412
      px      :     0.013198
      py      :     0.004853
  9 H s       :     0.825043  s :     0.825043
      pz      :     0.004695  p :     0.022260
      px      :     0.008997
      py      :     0.008568
 10 C s       :     3.234895  s :     3.234895
      pz      :     0.960704  p :     2.756144
      px      :     0.896972
      py      :     0.898468
      dz2     :     0.027329  d :     0.112745
      dxz     :     0.041747
      dyz     :     0.042706
      dx2y2   :     0.000332
      dxy     :     0.000632
      f0      :     0.004204  f :     0.017415
      f+1     :     0.006500
      f-1     :     0.006489
      f+2     :     0.000097
      f-2     :     0.000123
      f+3     :     0.000000
      f-3     :     0.000001
 11 N s       :     3.722135  s :     3.722135
      pz      :     1.282366  p :     3.388966
      px      :     1.052317
      py      :     1.054283
      dz2     :     0.011943  d :     0.055483
      dxz     :     0.021639
      dyz     :     0.021626
      dx2y2   :     0.000135
      dxy     :     0.000140
      f0      :     0.000634  f :     0.002959
      f+1     :     0.001152
      f-1     :     0.001144
      f+2     :     0.000014
      f-2     :     0.000014
      f+3     :     0.000000
      f-3     :     0.000000


                     *******************************
                     * LOEWDIN POPULATION ANALYSIS *
                     *******************************

----------------------
LOEWDIN ATOMIC CHARGES
----------------------
   0 C :   -0.249904
   1 H :    0.145086
   2 H :    0.141458
   3 H :    0.139765
   4 C :   -0.206586
   5 N :    0.030002
   6 C :   -0.249636
   7 H :    0.139513
   8 H :    0.145752
   9 H :    0.142084
  10 C :   -0.208116
  11 N :    0.030581

-------------------------------
LOEWDIN REDUCED ORBITAL CHARGES
-------------------------------
  0 C s       :     2.813675  s :     2.813675
      pz      :     1.029839  p :     3.145178
      px      :     1.060085
      py      :     1.055255
      dz2     :     0.076812  d :     0.265446
      dxz     :     0.061999
      dyz     :     0.064408
      dx2y2   :     0.030360
      dxy     :     0.031868
      f0      :     0.007288  f :     0.025604
      f+1     :     0.005424
      f-1     :     0.005158
      f+2     :     0.002338
      f-2     :     0.002106
      f+3     :     0.000717
      f-3     :     0.002572
  1 H s       :     0.794221  s :     0.794221
      pz      :     0.012477  p :     0.060693
      px      :     0.033127
      py      :     0.015088
  2 H s       :     0.798188  s :     0.798188
      pz      :     0.012473  p :     0.060354
      px      :     0.026139
      py      :     0.021742
  3 H s       :     0.799969  s :     0.799969
      pz      :     0.013029  p :     0.060267
      px      :     0.012774
      py      :     0.034463
  4 C s       :     2.837350  s :     2.837350
      pz      :     1.190006  p :     2.864888
      px      :     0.837807
      py      :     0.837076
      dz2     :     0.155314  d :     0.445764
      dxz     :     0.144711
      dyz     :     0.144978
      dx2y2   :     0.000207
      dxy     :     0.000553
      f0      :     0.023185  f :     0.058584
      f+1     :     0.017608
      f-1     :     0.017648
      f+2     :     0.000044
      f-2     :     0.000097
      f+3     :     0.000000
      f-3     :     0.000002
  5 N s       :     3.314416  s :     3.314416
      pz      :     1.494540  p :     3.527989
      px      :     1.015949
      py      :     1.017500
      dz2     :     0.046037  d :     0.113090
      dxz     :     0.033581
      dyz     :     0.033413
      dx2y2   :     0.000027
      dxy     :     0.000033
      f0      :     0.006224  f :     0.014502
      f+1     :     0.004149
      f-1     :     0.004121
      f+2     :     0.000004
      f-2     :     0.000004
      f+3     :     0.000000
      f-3     :     0.000000
  6 C s       :     2.813596  s :     2.813596
      pz      :     1.030249  p :     3.144885
      px      :     1.061047
      py      :     1.053588
      dz2     :     0.077060  d :     0.265466
      dxz     :     0.058286
      dyz     :     0.067309
      dx2y2   :     0.029216
      dxy     :     0.033596
      f0      :     0.007248  f :     0.025689
      f+1     :     0.005734
      f-1     :     0.004961
      f+2     :     0.002356
      f-2     :     0.002060
      f+3     :     0.001087
      f-3     :     0.002243
  7 H s       :     0.800218  s :     0.800218
      pz      :     0.013774  p :     0.060269
      px      :     0.012939
      py      :     0.033555
  8 H s       :     0.793595  s :     0.793595
      pz      :     0.011825  p :     0.060652
      px      :     0.034074
      py      :     0.014754
  9 H s       :     0.797446  s :     0.797446
      pz      :     0.012434  p :     0.060470
      px      :     0.024715
      py      :     0.023321
 10 C s       :     2.837170  s :     2.837170
      pz      :     1.188994  p :     2.865478
      px      :     0.838074
      py      :     0.838410
      dz2     :     0.155236  d :     0.446894
      dxz     :     0.144492
      dyz     :     0.145115
      dx2y2   :     0.000712
      dxy     :     0.001339
      f0      :     0.023019  f :     0.058574
      f+1     :     0.017412
      f-1     :     0.017607
      f+2     :     0.000232
      f-2     :     0.000300
      f+3     :     0.000001
      f-3     :     0.000003
 11 N s       :     3.314388  s :     3.314388
      pz      :     1.492403  p :     3.527329
      px      :     1.016600
      py      :     1.018326
      dz2     :     0.045897  d :     0.113202
      dxz     :     0.033477
      dyz     :     0.033432
      dx2y2   :     0.000192
      dxy     :     0.000204
      f0      :     0.006166  f :     0.014500
      f+1     :     0.004117
      f-1     :     0.004118
      f+2     :     0.000050
      f-2     :     0.000049
      f+3     :     0.000000
      f-3     :     0.000000


                      *****************************
                      * MAYER POPULATION ANALYSIS *
                      *****************************

  NA   - Mulliken gross atomic population
  ZA   - Total nuclear charge
  QA   - Mulliken gross atomic charge
  VA   - Mayer's total valence
  BVA  - Mayer's bonded valence
  FA   - Mayer's free valence

  ATOM       NA         ZA         QA         VA         BVA        FA
  0 C      6.1751     6.0000    -0.1751     3.8149     3.8149    -0.0000
  1 H      0.8331     1.0000     0.1669     0.9606     0.9606    -0.0000
  2 H      0.8486     1.0000     0.1514     0.9622     0.9622     0.0000
  3 H      0.8540     1.0000     0.1460     0.9609     0.9609     0.0000
  4 C      6.1188     6.0000    -0.1188     3.9063     3.9063    -0.0000
  5 N      7.1706     7.0000    -0.1706     3.0320     3.0320    -0.0000
  6 C      6.1738     6.0000    -0.1738     3.8131     3.8131    -0.0000
  7 H      0.8548     1.0000     0.1452     0.9614     0.9614     0.0000
  8 H      0.8333     1.0000     0.1667     0.9608     0.9608    -0.0000
  9 H      0.8473     1.0000     0.1527     0.9623     0.9623    -0.0000
 10 C      6.1212     6.0000    -0.1212     3.9003     3.9003     0.0000
 11 N      7.1695     7.0000    -0.1695     3.0313     3.0313     0.0000

  Mayer bond orders larger than 0.100000
B(  0-C ,  1-H ) :   0.9576 B(  0-C ,  2-H ) :   0.9707 B(  0-C ,  3-H ) :   0.9679 
B(  0-C ,  4-C ) :   0.9250 B(  4-C ,  5-N ) :   3.0077 B(  6-C ,  7-H ) :   0.9678 
B(  6-C ,  8-H ) :   0.9581 B(  6-C ,  9-H ) :   0.9709 B(  6-C , 10-C ) :   0.9221 
B( 10-C , 11-N ) :   3.0064 

-------
TIMINGS
-------

Total SCF time: 0 days 0 hours 0 min 15 sec 

Total time                  ....      15.645 sec
Sum of individual times     ....      15.205 sec  ( 97.2%)

Fock matrix formation       ....      14.876 sec  ( 95.1%)
Diagonalization             ....       0.053 sec  (  0.3%)
Density matrix formation    ....       0.007 sec  (  0.0%)
Population analysis         ....       0.022 sec  (  0.1%)
Initial guess               ....       0.130 sec  (  0.8%)
Orbital Transformation      ....       0.000 sec  (  0.0%)
Orbital Orthonormalization  ....       0.000 sec  (  0.0%)
DIIS solution               ....       0.021 sec  (  0.1%)
SOSCF solution              ....       0.027 sec  (  0.2%)


           ************************************************************
           *        Program running with 6 parallel MPI-processes     *
           *              working on a common directory               *
           ************************************************************

------------------------------------------------------------------------------
                                ORCA  MP2 
------------------------------------------------------------------------------

Freezing NCore=12 chemical core electrons
MP2 will be done in the AO integral direct mode
The Q1-step will be done using symmetric double matrices
Dimension of the basis                    ...  222
Memory devoted for MP2                    ... 8000 MB   
Memory needed for all in one shot         ...  127 MB
Number of MOs that can be treated together...  189      
MP2 density construction                  ... relaxed
The MP2 gradient is requested => amplitudes will be stored on disk
Total number of MOs              ...   16
Number of MOs treated per batch  ...    3 
Number of batches necessary      ...    1 
OPERATORS   0/  0 PASS   0
-----------------------------------------------
 MP2 CORRELATION ENERGY   :     -1.021178751 Eh
-----------------------------------------------


---------------------
MP2 DENSITY FORMATION
---------------------

Completing the external part of the density      ... done
Storing the unrelaxed density                    ... done

Calculating G(D)                                 ... done
Completing the Lagrangian                        ... done
Solving the Z-vector equations                   ... 

------------------------------------------------------------------------------
                           ORCA CP-SCF CALCULATION
------------------------------------------------------------------------------

Input orbitals are from        ... 12mecn.remya.etal.2.mol5,7-orca.engrad-mp2.def2tzvp.frozencore.gbw
Input Perturbation             ... 12mecn.remya.etal.2.mol5,7-orca.engrad-mp2.def2tzvp.frozencore.pin.tmp
Wavefunction output            ... 12mecn.remya.etal.2.mol5,7-orca.engrad-mp2.def2tzvp.frozencore.pout.tmp
Perturbation mode              ... Real perturbation (singlet)
Solver                         ... POPLE
Max. number of iterations      ... 128
Convergence tolerance          ... 1.000e-08
Integral handling              ... Direct
Number of perturbations        ... 1
Number of operators            ... 1
Orbital ranges used for CP-SCF:
 Operator 0:  Orbitals   0... 21  to  22...221
Variables per vector in CP-SCF ... 4400
Number of vectors sought       ... 1
     CP-SCF ITERATION   0: 
     CP-SCF ITERATION   1:      0.000979590786
     CP-SCF ITERATION   2:      0.000198812766
     CP-SCF ITERATION   3:      0.000004149914
     CP-SCF ITERATION   4:      0.000000271642
     CP-SCF ITERATION   5:      0.000000035247
     CP-SCF ITERATION   6:      0.000000004511
                                                 ... done
Finalizing the relaxed density                   ... done
Transforming P to the AO basis                   ... done
Storing the relaxed density                      ... done

------------------------------------
ENERGY WEIGHTED DENSITY FINALIZATION
------------------------------------

Gathering the parts of the W-matrix              ...                                                      done
Forming the Z-density                            ... done
Transforming Z to the AO basis                   ... done
Calculating G(Z)                                 ... done
Finalizing the W-matrix                          ...                                                      done
Transforming W to the AO basis and storing       ... done

                *********************************************
                * UNRELAXED MP2 DENSITY POPULATION ANALYSIS *
                *********************************************

------------------------------------------------------------------------------
                           ORCA POPULATION ANALYSIS
------------------------------------------------------------------------------
Input electron density              ... 12mecn.remya.etal.2.mol5,7-orca.engrad-mp2.def2tzvp.frozencore.pmp2ur
BaseName (.gbw .S,...)              ... 12mecn.remya.etal.2.mol5,7-orca.engrad-mp2.def2tzvp.frozencore

                    ********************************
                    * MULLIKEN POPULATION ANALYSIS *
                    ********************************

-----------------------
MULLIKEN ATOMIC CHARGES
-----------------------
   0 C :   -0.188782
   1 H :    0.169650
   2 H :    0.154045
   3 H :    0.148678
   4 C :   -0.126878
   5 N :   -0.156894
   6 C :   -0.187359
   7 H :    0.147862
   8 H :    0.169441
   9 H :    0.155382
  10 C :   -0.129240
  11 N :   -0.155906
Sum of atomic charges:   -0.0000000

--------------------------------
MULLIKEN REDUCED ORBITAL CHARGES
--------------------------------
  0 C s       :     3.146231  s :     3.146231
      pz      :     0.798331  p :     2.945954
      px      :     1.087496
      py      :     1.060127
      dz2     :     0.020408  d :     0.089257
      dxz     :     0.018013
      dyz     :     0.018197
      dx2y2   :     0.016194
      dxy     :     0.016445
      f0      :     0.002102  f :     0.007341
      f+1     :     0.000888
      f-1     :     0.000882
      f+2     :     0.000613
      f-2     :     0.000600
      f+3     :     0.000821
      f-3     :     0.001435
  1 H s       :     0.805144  s :     0.805144
      pz      :     0.005702  p :     0.025206
      px      :     0.013540
      py      :     0.005964
  2 H s       :     0.820867  s :     0.820867
      pz      :     0.005737  p :     0.025088
      px      :     0.010580
      py      :     0.008771
  3 H s       :     0.826247  s :     0.826247
      pz      :     0.006042  p :     0.025075
      px      :     0.004953
      py      :     0.014080
  4 C s       :     3.233908  s :     3.233908
      pz      :     0.951299  p :     2.744070
      px      :     0.896205
      py      :     0.896567
      dz2     :     0.029864  d :     0.128526
      dxz     :     0.044116
      dyz     :     0.044845
      dx2y2   :     0.004774
      dxy     :     0.004926
      f0      :     0.004603  f :     0.020373
      f+1     :     0.007041
      f-1     :     0.007029
      f+2     :     0.000583
      f-2     :     0.000600
      f+3     :     0.000258
      f-3     :     0.000259
  5 N s       :     3.708162  s :     3.708162
      pz      :     1.271793  p :     3.365876
      px      :     1.045802
      py      :     1.048281
      dz2     :     0.015951  d :     0.077203
      dxz     :     0.025752
      dyz     :     0.025777
      dx2y2   :     0.004859
      dxy     :     0.004864
      f0      :     0.001046  f :     0.005654
      f+1     :     0.001615
      f-1     :     0.001613
      f+2     :     0.000415
      f-2     :     0.000415
      f+3     :     0.000275
      f-3     :     0.000275
  6 C s       :     3.148170  s :     3.148170
      pz      :     0.797005  p :     2.942910
      px      :     1.088713
      py      :     1.057191
      dz2     :     0.020490  d :     0.088939
      dxz     :     0.016996
      dyz     :     0.018718
      dx2y2   :     0.015807
      dxy     :     0.016930
      f0      :     0.002055  f :     0.007339
      f+1     :     0.000895
      f-1     :     0.000907
      f+2     :     0.000616
      f-2     :     0.000602
      f+3     :     0.000941
      f-3     :     0.001324
  7 H s       :     0.827067  s :     0.827067
      pz      :     0.006396  p :     0.025071
      px      :     0.005011
      py      :     0.013665
  8 H s       :     0.805345  s :     0.805345
      pz      :     0.005369  p :     0.025214
      px      :     0.013982
      py      :     0.005863
  9 H s       :     0.819498  s :     0.819498
      pz      :     0.005707  p :     0.025120
      px      :     0.009921
      py      :     0.009492
 10 C s       :     3.234684  s :     3.234684
      pz      :     0.951799  p :     2.745403
      px      :     0.896035
      py      :     0.897568
      dz2     :     0.029814  d :     0.128759
      dxz     :     0.043960
      dyz     :     0.044897
      dx2y2   :     0.004895
      dxy     :     0.005193
      f0      :     0.004666  f :     0.020395
      f+1     :     0.006944
      f-1     :     0.006934
      f+2     :     0.000650
      f-2     :     0.000677
      f+3     :     0.000261
      f-3     :     0.000261
 11 N s       :     3.709176  s :     3.709176
      pz      :     1.270042  p :     3.363869
      px      :     1.045954
      py      :     1.047873
      dz2     :     0.016093  d :     0.077213
      dxz     :     0.025586
      dyz     :     0.025583
      dx2y2   :     0.004972
      dxy     :     0.004981
      f0      :     0.001060  f :     0.005647
      f+1     :     0.001594
      f-1     :     0.001586
      f+2     :     0.000428
      f-2     :     0.000427
      f+3     :     0.000276
      f-3     :     0.000276


                     *******************************
                     * LOEWDIN POPULATION ANALYSIS *
                     *******************************

----------------------
LOEWDIN ATOMIC CHARGES
----------------------
   0 C :   -0.258087
   1 H :    0.146787
   2 H :    0.143105
   3 H :    0.141395
   4 C :   -0.211418
   5 N :    0.038034
   6 C :   -0.257814
   7 H :    0.141149
   8 H :    0.147445
   9 H :    0.143731
  10 C :   -0.212917
  11 N :    0.038591

-------------------------------
LOEWDIN REDUCED ORBITAL CHARGES
-------------------------------
  0 C s       :     2.811899  s :     2.811899
      pz      :     1.021263  p :     3.120652
      px      :     1.052105
      py      :     1.047284
      dz2     :     0.082074  d :     0.293898
      dxz     :     0.067862
      dyz     :     0.070243
      dx2y2   :     0.036109
      dxy     :     0.037611
      f0      :     0.008409  f :     0.031639
      f+1     :     0.006491
      f-1     :     0.006218
      f+2     :     0.003014
      f-2     :     0.002777
      f+3     :     0.001384
      f-3     :     0.003346
  1 H s       :     0.787785  s :     0.787785
      pz      :     0.013876  p :     0.065428
      px      :     0.035157
      py      :     0.016395
  2 H s       :     0.791715  s :     0.791715
      pz      :     0.013891  p :     0.065180
      px      :     0.027954
      py      :     0.023334
  3 H s       :     0.793482  s :     0.793482
      pz      :     0.014481  p :     0.065122
      px      :     0.014017
      py      :     0.036624
  4 C s       :     2.834140  s :     2.834140
      pz      :     1.177424  p :     2.845170
      px      :     0.834218
      py      :     0.833528
      dz2     :     0.162727  d :     0.465763
      dxz     :     0.146450
      dyz     :     0.146707
      dx2y2   :     0.004769
      dxy     :     0.005109
      f0      :     0.024793  f :     0.066345
      f+1     :     0.019758
      f-1     :     0.019794
      f+2     :     0.000713
      f-2     :     0.000767
      f+3     :     0.000259
      f-3     :     0.000261
  5 N s       :     3.306505  s :     3.306505
      pz      :     1.478575  p :     3.494110
      px      :     1.007009
      py      :     1.008526
      dz2     :     0.052845  d :     0.142434
      dxz     :     0.040072
      dyz     :     0.039910
      dx2y2   :     0.004799
      dxy     :     0.004807
      f0      :     0.007296  f :     0.018917
      f+1     :     0.005112
      f-1     :     0.005084
      f+2     :     0.000438
      f-2     :     0.000437
      f+3     :     0.000275
      f-3     :     0.000275
  6 C s       :     2.811818  s :     2.811818
      pz      :     1.021668  p :     3.120360
      px      :     1.053061
      py      :     1.045631
      dz2     :     0.082326  d :     0.293909
      dxz     :     0.064145
      dyz     :     0.073129
      dx2y2   :     0.034967
      dxy     :     0.039342
      f0      :     0.008366  f :     0.031728
      f+1     :     0.006800
      f-1     :     0.006018
      f+2     :     0.003034
      f-2     :     0.002734
      f+3     :     0.001776
      f-3     :     0.002999
  7 H s       :     0.793738  s :     0.793738
      pz      :     0.015259  p :     0.065114
      px      :     0.014191
      py      :     0.035664
  8 H s       :     0.787167  s :     0.787167
      pz      :     0.013188  p :     0.065388
      px      :     0.036145
      py      :     0.016054
  9 H s       :     0.790979  s :     0.790979
      pz      :     0.013844  p :     0.065290
      px      :     0.026460
      py      :     0.024986
 10 C s       :     2.833955  s :     2.833955
      pz      :     1.176444  p :     2.845741
      px      :     0.834487
      py      :     0.834810
      dz2     :     0.162579  d :     0.466871
      dxz     :     0.146247
      dyz     :     0.146890
      dx2y2   :     0.005273
      dxy     :     0.005883
      f0      :     0.024644  f :     0.066351
      f+1     :     0.019544
      f-1     :     0.019733
      f+2     :     0.000915
      f-2     :     0.000987
      f+3     :     0.000263
      f-3     :     0.000265
 11 N s       :     3.306473  s :     3.306473
      pz      :     1.476470  p :     3.493479
      px      :     1.007647
      py      :     1.009361
      dz2     :     0.052698  d :     0.142542
      dxz     :     0.039964
      dyz     :     0.039920
      dx2y2   :     0.004972
      dxy     :     0.004987
      f0      :     0.007234  f :     0.018915
      f+1     :     0.005075
      f-1     :     0.005077
      f+2     :     0.000489
      f-2     :     0.000488
      f+3     :     0.000276
      f-3     :     0.000276


                      *****************************
                      * MAYER POPULATION ANALYSIS *
                      *****************************

  NA   - Mulliken gross atomic population
  ZA   - Total nuclear charge
  QA   - Mulliken gross atomic charge
  VA   - Mayer's total valence
  BVA  - Mayer's bonded valence
  FA   - Mayer's free valence

  ATOM       NA         ZA         QA         VA         BVA        FA
  0 C      6.1888     6.0000    -0.1888     3.9342     3.6483     0.2858
  1 H      0.8303     1.0000     0.1697     0.9677     0.9209     0.0468
  2 H      0.8460     1.0000     0.1540     0.9697     0.9218     0.0479
  3 H      0.8513     1.0000     0.1487     0.9688     0.9203     0.0485
  4 C      6.1269     6.0000    -0.1269     4.0095     3.5664     0.4431
  5 N      7.1569     7.0000    -0.1569     3.2249     2.7384     0.4865
  6 C      6.1874     6.0000    -0.1874     3.9320     3.6467     0.2853
  7 H      0.8521     1.0000     0.1479     0.9693     0.9209     0.0485
  8 H      0.8306     1.0000     0.1694     0.9679     0.9211     0.0468
  9 H      0.8446     1.0000     0.1554     0.9698     0.9220     0.0478
 10 C      6.1292     6.0000    -0.1292     4.0040     3.5607     0.4433
 11 N      7.1559     7.0000    -0.1559     3.2242     2.7379     0.4863

  Mayer bond orders larger than 0.100000
B(  0-C ,  1-H ) :   0.9205 B(  0-C ,  2-H ) :   0.9329 B(  0-C ,  3-H ) :   0.9298 
B(  0-C ,  4-C ) :   0.8734 B(  4-C ,  5-N ) :   2.7212 B(  6-C ,  7-H ) :   0.9298 
B(  6-C ,  8-H ) :   0.9210 B(  6-C ,  9-H ) :   0.9331 B(  6-C , 10-C ) :   0.8705 
B( 10-C , 11-N ) :   2.7199 


                *******************************************
                * RELAXED MP2 DENSITY POPULATION ANALYSIS *
                *******************************************

------------------------------------------------------------------------------
                           ORCA POPULATION ANALYSIS
------------------------------------------------------------------------------
Input electron density              ... 12mecn.remya.etal.2.mol5,7-orca.engrad-mp2.def2tzvp.frozencore.pmp2re
BaseName (.gbw .S,...)              ... 12mecn.remya.etal.2.mol5,7-orca.engrad-mp2.def2tzvp.frozencore

                    ********************************
                    * MULLIKEN POPULATION ANALYSIS *
                    ********************************

-----------------------
MULLIKEN ATOMIC CHARGES
-----------------------
   0 C :   -0.289764
   1 H :    0.181833
   2 H :    0.168178
   3 H :    0.163997
   4 C :   -0.151196
   5 N :   -0.073191
   6 C :   -0.287978
   7 H :    0.162970
   8 H :    0.181762
   9 H :    0.169523
  10 C :   -0.153102
  11 N :   -0.073031
Sum of atomic charges:   -0.0000000

--------------------------------
MULLIKEN REDUCED ORBITAL CHARGES
--------------------------------
  0 C s       :     3.184009  s :     3.184009
      pz      :     0.843738  p :     3.020004
      px      :     1.100572
      py      :     1.075695
      dz2     :     0.016121  d :     0.078665
      dxz     :     0.018165
      dyz     :     0.018218
      dx2y2   :     0.012995
      dxy     :     0.013165
      f0      :     0.001866  f :     0.007085
      f+1     :     0.000949
      f-1     :     0.000944
      f+2     :     0.000599
      f-2     :     0.000588
      f+3     :     0.000795
      f-3     :     0.001344
  1 H s       :     0.794100  s :     0.794100
      pz      :     0.005773  p :     0.024068
      px      :     0.012310
      py      :     0.005985
  2 H s       :     0.807839  s :     0.807839
      pz      :     0.005804  p :     0.023983
      px      :     0.009836
      py      :     0.008343
  3 H s       :     0.812027  s :     0.812027
      pz      :     0.006058  p :     0.023975
      px      :     0.005142
      py      :     0.012776
  4 C s       :     3.213149  s :     3.213149
      pz      :     0.984525  p :     2.814881
      px      :     0.914711
      py      :     0.915645
      dz2     :     0.025485  d :     0.104149
      dxz     :     0.034175
      dyz     :     0.034832
      dx2y2   :     0.004755
      dxy     :     0.004902
      f0      :     0.004416  f :     0.019017
      f+1     :     0.006455
      f-1     :     0.006455
      f+2     :     0.000580
      f-2     :     0.000595
      f+3     :     0.000258
      f-3     :     0.000259
  5 N s       :     3.651641  s :     3.651641
      pz      :     1.260595  p :     3.348223
      px      :     1.042891
      py      :     1.044736
      dz2     :     0.014965  d :     0.068150
      dxz     :     0.021711
      dyz     :     0.021758
      dx2y2   :     0.004856
      dxy     :     0.004860
      f0      :     0.000930  f :     0.005176
      f+1     :     0.001434
      f-1     :     0.001433
      f+2     :     0.000415
      f-2     :     0.000415
      f+3     :     0.000275
      f-3     :     0.000275
  6 C s       :     3.185775  s :     3.185775
      pz      :     0.842281  p :     3.016731
      px      :     1.101487
      py      :     1.072963
      dz2     :     0.016270  d :     0.078387
      dxz     :     0.017313
      dyz     :     0.018525
      dx2y2   :     0.012707
      dxy     :     0.013572
      f0      :     0.001828  f :     0.007086
      f+1     :     0.000952
      f-1     :     0.000964
      f+2     :     0.000602
      f-2     :     0.000592
      f+3     :     0.000902
      f-3     :     0.001245
  7 H s       :     0.813055  s :     0.813055
      pz      :     0.006358  p :     0.023975
      px      :     0.005187
      py      :     0.012430
  8 H s       :     0.794163  s :     0.794163
      pz      :     0.005503  p :     0.024075
      px      :     0.012682
      py      :     0.005890
  9 H s       :     0.806466  s :     0.806466
      pz      :     0.005784  p :     0.024010
      px      :     0.009295
      py      :     0.008931
 10 C s       :     3.214194  s :     3.214194
      pz      :     0.983823  p :     2.815571
      px      :     0.915328
      py      :     0.916419
      dz2     :     0.025417  d :     0.104303
      dxz     :     0.034017
      dyz     :     0.034907
      dx2y2   :     0.004841
      dxy     :     0.005121
      f0      :     0.004469  f :     0.019035
      f+1     :     0.006365
      f-1     :     0.006372
      f+2     :     0.000641
      f-2     :     0.000665
      f+3     :     0.000261
      f-3     :     0.000261
 11 N s       :     3.653190  s :     3.653190
      pz      :     1.258828  p :     3.346504
      px      :     1.042945
      py      :     1.044730
      dz2     :     0.015064  d :     0.068167
      dxz     :     0.021594
      dyz     :     0.021611
      dx2y2   :     0.004946
      dxy     :     0.004952
      f0      :     0.000943  f :     0.005171
      f+1     :     0.001416
      f-1     :     0.001410
      f+2     :     0.000425
      f-2     :     0.000425
      f+3     :     0.000276
      f-3     :     0.000276


                     *******************************
                     * LOEWDIN POPULATION ANALYSIS *
                     *******************************

----------------------
LOEWDIN ATOMIC CHARGES
----------------------
   0 C :   -0.288440
   1 H :    0.153406
   2 H :    0.150035
   3 H :    0.148561
   4 C :   -0.224525
   5 N :    0.060816
   6 C :   -0.288143
   7 H :    0.148259
   8 H :    0.154102
   9 H :    0.150664
  10 C :   -0.225845
  11 N :    0.061110

-------------------------------
LOEWDIN REDUCED ORBITAL CHARGES
-------------------------------
  0 C s       :     2.816931  s :     2.816931
      pz      :     1.038771  p :     3.157106
      px      :     1.061167
      py      :     1.057169
      dz2     :     0.074632  d :     0.282577
      dxz     :     0.069306
      dyz     :     0.071517
      dx2y2   :     0.032846
      dxy     :     0.034275
      f0      :     0.007927  f :     0.031826
      f+1     :     0.006904
      f-1     :     0.006632
      f+2     :     0.002991
      f-2     :     0.002755
      f+3     :     0.001359
      f-3     :     0.003258
  1 H s       :     0.780865  s :     0.780865
      pz      :     0.014414  p :     0.065729
      px      :     0.034567
      py      :     0.016748
  2 H s       :     0.784404  s :     0.784404
      pz      :     0.014442  p :     0.065561
      px      :     0.027768
      py      :     0.023352
  3 H s       :     0.785904  s :     0.785904
      pz      :     0.014997  p :     0.065536
      px      :     0.014492
      py      :     0.036047
  4 C s       :     2.839925  s :     2.839925
      pz      :     1.168776  p :     2.867872
      px      :     0.849816
      py      :     0.849281
      dz2     :     0.165092  d :     0.450291
      dxz     :     0.137569
      dyz     :     0.137861
      dx2y2   :     0.004727
      dxy     :     0.005043
      f0      :     0.025773  f :     0.066436
      f+1     :     0.019325
      f-1     :     0.019366
      f+2     :     0.000704
      f-2     :     0.000748
      f+3     :     0.000259
      f-3     :     0.000261
  5 N s       :     3.306853  s :     3.306853
      pz      :     1.465112  p :     3.475166
      px      :     1.004461
      py      :     1.005593
      dz2     :     0.053611  d :     0.137918
      dxz     :     0.037395
      dyz     :     0.037312
      dx2y2   :     0.004796
      dxy     :     0.004803
      f0      :     0.007401  f :     0.019248
      f+1     :     0.005220
      f-1     :     0.005202
      f+2     :     0.000438
      f-2     :     0.000437
      f+3     :     0.000275
      f-3     :     0.000275
  6 C s       :     2.816830  s :     2.816830
      pz      :     1.039228  p :     3.156829
      px      :     1.062184
      py      :     1.055418
      dz2     :     0.074992  d :     0.282567
      dxz     :     0.065726
      dyz     :     0.074103
      dx2y2   :     0.031825
      dxy     :     0.035921
      f0      :     0.007910  f :     0.031917
      f+1     :     0.007203
      f-1     :     0.006408
      f+2     :     0.003017
      f-2     :     0.002717
      f+3     :     0.001739
      f-3     :     0.002923
  7 H s       :     0.786222  s :     0.786222
      pz      :     0.015732  p :     0.065519
      px      :     0.014661
      py      :     0.035126
  8 H s       :     0.780205  s :     0.780205
      pz      :     0.013778  p :     0.065693
      px      :     0.035506
      py      :     0.016409
  9 H s       :     0.783661  s :     0.783661
      pz      :     0.014405  p :     0.065675
      px      :     0.026366
      py      :     0.024905
 10 C s       :     2.839719  s :     2.839719
      pz      :     1.167862  p :     2.868263
      px      :     0.850147
      py      :     0.850254
      dz2     :     0.164832  d :     0.451423
      dxz     :     0.137454
      dyz     :     0.138158
      dx2y2   :     0.005205
      dxy     :     0.005775
      f0      :     0.025590  f :     0.066440
      f+1     :     0.019131
      f-1     :     0.019326
      f+2     :     0.000905
      f-2     :     0.000960
      f+3     :     0.000263
      f-3     :     0.000265
 11 N s       :     3.306819  s :     3.306819
      pz      :     1.463071  p :     3.474823
      px      :     1.005088
      py      :     1.006664
      dz2     :     0.053411  d :     0.138002
      dxz     :     0.037328
      dyz     :     0.037345
      dx2y2   :     0.004953
      dxy     :     0.004965
      f0      :     0.007340  f :     0.019245
      f+1     :     0.005183
      f-1     :     0.005191
      f+2     :     0.000491
      f-2     :     0.000489
      f+3     :     0.000276
      f-3     :     0.000276


                      *****************************
                      * MAYER POPULATION ANALYSIS *
                      *****************************

  NA   - Mulliken gross atomic population
  ZA   - Total nuclear charge
  QA   - Mulliken gross atomic charge
  VA   - Mayer's total valence
  BVA  - Mayer's bonded valence
  FA   - Mayer's free valence

  ATOM       NA         ZA         QA         VA         BVA        FA
  0 C      6.2898     6.0000    -0.2898     3.9362     3.6515     0.2847
  1 H      0.8182     1.0000     0.1818     0.9617     0.9155     0.0462
  2 H      0.8318     1.0000     0.1682     0.9638     0.9165     0.0473
  3 H      0.8360     1.0000     0.1640     0.9629     0.9151     0.0478
  4 C      6.1512     6.0000    -0.1512     4.1288     3.6967     0.4320
  5 N      7.0732     7.0000    -0.0732     3.3367     2.8622     0.4745
  6 C      6.2880     6.0000    -0.2880     3.9340     3.6498     0.2842
  7 H      0.8370     1.0000     0.1630     0.9638     0.9160     0.0478
  8 H      0.8182     1.0000     0.1818     0.9619     0.9157     0.0463
  9 H      0.8305     1.0000     0.1695     0.9636     0.9164     0.0472
 10 C      6.1531     6.0000    -0.1531     4.1234     3.6911     0.4323
 11 N      7.0730     7.0000    -0.0730     3.3355     2.8612     0.4743

  Mayer bond orders larger than 0.100000
B(  0-C ,  1-H ) :   0.9118 B(  0-C ,  2-H ) :   0.9225 B(  0-C ,  3-H ) :   0.9202 
B(  0-C ,  4-C ) :   0.8964 B(  4-C ,  5-N ) :   2.8268 B(  6-C ,  7-H ) :   0.9204 
B(  6-C ,  8-H ) :   0.9122 B(  6-C ,  9-H ) :   0.9228 B(  6-C , 10-C ) :   0.8938 
B( 10-C , 11-N ) :   2.8251 


----------------------------------
MP2 DERIVATIVE INTEGRAL GENERATION
----------------------------------


Input Wavefunction Amplitudes       ... 12mecn.remya.etal.2.mol5,7-orca.engrad-mp2.def2tzvp.frozencore.mp2tsaa.tmp
Input Correlated Electron Density   ... 12mecn.remya.etal.2.mol5,7-orca.engrad-mp2.def2tzvp.frozencore.pmp2re
Input Energy Weighted Density       ... 12mecn.remya.etal.2.mol5,7-orca.engrad-mp2.def2tzvp.frozencore.wmp2.tmp
Input SCF Electron Density          ... 12mecn.remya.etal.2.mol5,7-orca.engrad-mp2.def2tzvp.frozencore.scfp

One-Electron Terms    ...
                        ... One-Electron Terms done
Prescreening matrices              ... done

Batch handling in the gradient evaluation:
Memory available                      ... 8000.0 MB
Memory per occupied orbital in Q2     ...    6.0 MB
Memory per occupied orbital in Q3     ...    0.1 MB
Total memory requirement per |i>      ...    6.1 MB
Max. Number of orbitals possible      ...   1311
Number of orbitals treated per batch  ...     16
Number of batches to be done          ...      1
Batch   0: i=    6 ...    21

---------------------------------------
MP2 TOTAL ENERGY:     -264.963976786 Eh
---------------------------------------

The final MP2 gradient
  0:  -0.00078283   0.00113932  -0.00660377
  1:  -0.00354735   0.00056063  -0.00131139
  2:   0.00352871   0.00119483  -0.00098702
  3:   0.00107052  -0.00308220  -0.00051446
  4:  -0.00047152  -0.00004930   0.00592786
  5:   0.00081060  -0.00005841   0.00356474
  6:  -0.00009279   0.00129941  -0.00586863
  7:  -0.00149182   0.00364619  -0.00108509
  8:   0.00321430  -0.00177190  -0.00205060
  9:  -0.00233853  -0.00207256  -0.00156129
 10:   0.00056058  -0.00085336   0.00678647
 11:  -0.00045987   0.00004735   0.00370317

-----------------------------------
NORM OF THE MP2 GRADIENT:  0.016685
-----------------------------------

-------------------------   --------------------
FINAL SINGLE POINT ENERGY      -264.963976786339
-------------------------   --------------------


                            ***************************************
                            *     ORCA property calculations      *
                            ***************************************

                                    ---------------------
                                    Active property flags
                                    ---------------------
   (+) Dipole Moment


------------------------------------------------------------------------------
                       ORCA ELECTRIC PROPERTIES CALCULATION
------------------------------------------------------------------------------

Dipole Moment Calculation                       ... on
Quadrupole Moment Calculation                   ... off
Polarizability Calculation                      ... off
GBWName                                         ... 12mecn.remya.etal.2.mol5,7-orca.engrad-mp2.def2tzvp.frozencore.gbw
Electron density file                           ... 12mecn.remya.etal.2.mol5,7-orca.engrad-mp2.def2tzvp.frozencore.scfp
The origin for moment calculation is the CENTER OF MASS  = (-0.465753,  3.038937  0.791966)

-------------
DIPOLE MOMENT
-------------
                                X             Y             Z
Electronic contribution:     -0.09680       0.12894      -6.12298
Nuclear contribution   :      0.14892      -0.19897       9.25592
                        -----------------------------------------
Total Dipole Moment    :      0.05212      -0.07003       3.13293
                        -----------------------------------------
Magnitude (a.u.)       :      3.13415
Magnitude (Debye)      :      7.96638



--------------------
Rotational spectrum 
--------------------
 
Rotational constants in cm-1:     0.154711     0.054757     0.041091 
Rotational constants in MHz :  4638.131915  1641.583063  1231.868711 

 Dipole components along the rotational axes: 
x,y,z [a.u.] :    -0.133851     3.131288     0.003967 
x,y,z [Debye]:    -0.340221     7.959102     0.010083 

 

                         *** MP2 UNRELAXED DENSITY ***

------------------------------------------------------------------------------
                       ORCA ELECTRIC PROPERTIES CALCULATION
------------------------------------------------------------------------------

Dipole Moment Calculation                       ... on
Quadrupole Moment Calculation                   ... off
Polarizability Calculation                      ... off
GBWName                                         ... 12mecn.remya.etal.2.mol5,7-orca.engrad-mp2.def2tzvp.frozencore.gbw
Electron density file                           ... 12mecn.remya.etal.2.mol5,7-orca.engrad-mp2.def2tzvp.frozencore.pmp2ur
The origin for moment calculation is the CENTER OF MASS  = (-0.465753,  3.038937  0.791966)

-------------
DIPOLE MOMENT
-------------
                                X             Y             Z
Electronic contribution:     -0.09768       0.13044      -6.19356
Nuclear contribution   :      0.14892      -0.19897       9.25592
                        -----------------------------------------
Total Dipole Moment    :      0.05123      -0.06853       3.06236
                        -----------------------------------------
Magnitude (a.u.)       :      3.06356
Magnitude (Debye)      :      7.78695



--------------------
Rotational spectrum 
--------------------
 
Rotational constants in cm-1:     0.154711     0.054757     0.041091 
Rotational constants in MHz :  4638.131915  1641.583063  1231.868711 

 Dipole components along the rotational axes: 
x,y,z [a.u.] :    -0.131133     3.060748     0.003817 
x,y,z [Debye]:    -0.333312     7.779803     0.009701 

 

                           *** MP2 RELAXED DENSITY ***

------------------------------------------------------------------------------
                       ORCA ELECTRIC PROPERTIES CALCULATION
------------------------------------------------------------------------------

Dipole Moment Calculation                       ... on
Quadrupole Moment Calculation                   ... off
Polarizability Calculation                      ... off
GBWName                                         ... 12mecn.remya.etal.2.mol5,7-orca.engrad-mp2.def2tzvp.frozencore.gbw
Electron density file                           ... 12mecn.remya.etal.2.mol5,7-orca.engrad-mp2.def2tzvp.frozencore.pmp2re
The origin for moment calculation is the CENTER OF MASS  = (-0.465753,  3.038937  0.791966)

-------------
DIPOLE MOMENT
-------------
                                X             Y             Z
Electronic contribution:     -0.10088       0.13419      -6.37747
Nuclear contribution   :      0.14892      -0.19897       9.25592
                        -----------------------------------------
Total Dipole Moment    :      0.04804      -0.06478       2.87845
                        -----------------------------------------
Magnitude (a.u.)       :      2.87958
Magnitude (Debye)      :      7.31931



--------------------
Rotational spectrum 
--------------------
 
Rotational constants in cm-1:     0.154711     0.054757     0.041091 
Rotational constants in MHz :  4638.131915  1641.583063  1231.868711 

 Dipole components along the rotational axes: 
x,y,z [a.u.] :    -0.123316     2.876934     0.003961 
x,y,z [Debye]:    -0.313446     7.312586     0.010068 

 

Timings for individual modules:

Sum of individual times         ...       75.984 sec (=   1.266 min)
GTO integral calculation        ...        5.957 sec (=   0.099 min)   7.8 %
SCF iterations                  ...       20.015 sec (=   0.334 min)  26.3 %
MP2 module                      ...       50.012 sec (=   0.834 min)  65.8 %
                             ****ORCA TERMINATED NORMALLY****
TOTAL RUN TIME: 0 days 0 hours 1 minutes 18 seconds 439 msec
