25
Energy:  -1303.20414208
O   -0.89110651   1.08474607  -1.14186067
H   -1.22532966   1.57372398  -1.89380969
H   -0.83023837   1.73404731  -0.44119325
O    2.29020359   2.53224154   1.57762924
H    2.59241230   3.31298632   1.11358255
H    2.56036543   2.67280416   2.48509085
O   -0.93146600  -0.49961721   1.40543302
H   -0.71608940   0.35557824   1.77756943
H   -1.23747795  -1.01570266   2.15125091
O   -0.23085119  -1.19703605  -2.58216077
H   -0.69619610  -1.77884360  -3.18314825
H    0.46599795  -0.81122859  -3.11299569
O    1.68819053  -0.08254047  -0.07284258
H    1.78822178   0.75838532   0.37332937
H    2.57305542  -0.44655726  -0.10000427
O    0.52206125  -2.66755069  -0.07155165
H    1.02789082  -3.23694505  -0.65134331
H    0.93648564  -2.76850788   0.78535670
O   -0.52871552   2.17381355   1.20691319
H    0.31016010   2.62660282   1.29352395
H   -1.12011853   2.65079627   1.78911747
O   -2.23940092  -1.85319384  -0.65495996
H   -2.52346644  -2.76285137  -0.74474754
H   -3.05277029  -1.34921281  -0.62916782
Ca  -0.40212047  -0.82110030  -0.56057039
