25
Energy:  -1311.58005645
O   -1.05737855   1.12124650   0.11424487
H   -2.00384885   1.04435856  -0.00622941
H   -0.95328673   1.82620907   0.75332586
O   -1.26970234   2.94214702   2.37456347
H   -2.08763970   3.43934380   2.37217766
H   -0.85761818   3.16205315   3.21006319
O    0.27854132  -1.23092124   1.22018040
H    0.71308300  -1.31750638   2.06865456
H   -0.47484898  -1.81879656   1.27529400
O    0.90486563   1.23472416  -2.09477163
H    0.44615903   2.03964222  -2.33545197
H    1.46467963   1.04336109  -2.84724774
O    1.76732729   1.41888103   0.58630413
H    2.13627618   2.16003874   0.10589408
H    2.02172205   1.57212826   1.49626591
O   -0.73486596  -1.18637157  -1.47507827
H   -1.37418522  -1.62233561  -0.91166182
H   -0.83344328  -1.61416079  -2.32567261
O    2.24773354  -1.17075316  -0.96631744
H    3.19197668  -1.01398525  -0.97410028
H    2.13074164  -1.95782562  -1.49835285
O   -1.87214670  -3.07045682   0.17297452
H   -2.81885556  -3.11235615   0.30795090
H   -1.64204299  -3.92927309  -0.18159386
Ca   0.60054513   0.00977566  -0.45609827
