
                                 *****************
                                 * O   R   C   A *
                                 *****************

           --- An Ab Initio, DFT and Semiempirical electronic structure package ---

                  #######################################################
                  #                        -***-                        #
                  #          Department of theory and spectroscopy      #
                  #               Directorship: Frank Neese             #
                  #        Max Planck Institute fuer Kohlenforschung    #
                  #                Kaiser Wilhelm Platz 1               #
                  #                 D-45470 Muelheim/Ruhr               #
                  #                      Germany                        #
                  #                                                     #
                  #                  All rights reserved                #
                  #                        -***-                        #
                  #######################################################


                         Program Version 4.2.0 -  RELEASE  -


 With contributions from (in alphabetic order):
   Daniel Aravena         : Magnetic Suceptibility
   Michael Atanasov       : Ab Initio Ligand Field Theory (pilot matlab implementation)
   Alexander A. Auer      : GIAO ZORA, VPT2
   Ute Becker             : Parallelization
   Giovanni Bistoni       : ED, misc. LED, open-shell LED, HFLED
   Martin Brehm           : Molecular dynamics
   Dmytro Bykov           : SCF Hessian
   Vijay G. Chilkuri      : MRCI spin determinant printing, contributions to CSF-ICE
   Dipayan Datta          : RHF DLPNO-CCSD density
   Achintya Kumar Dutta   : EOM-CC, STEOM-CC
   Dmitry Ganyushin       : Spin-Orbit,Spin-Spin,Magnetic field MRCI
   Miquel Garcia          : C-PCM Hessian, Gaussian charge scheme
   Yang Guo               : DLPNO-NEVPT2, CIM, IAO-localization
   Andreas Hansen         : Spin unrestricted coupled pair/coupled cluster methods
   Benjamin Helmich-Paris : CASSCF linear response (MC-RPA)
   Lee Huntington         : MR-EOM, pCC
   Robert Izsak           : Overlap fitted RIJCOSX, COSX-SCS-MP3, EOM
   Christian Kollmar      : KDIIS, OOCD, Brueckner-CCSD(T), CCSD density
   Simone Kossmann        : Meta GGA functionals, TD-DFT gradient, OOMP2, MP2 Hessian
   Martin Krupicka        : AUTO-CI
   Lucas Lang             : DCDCAS
   Dagmar Lenk            : GEPOL surface, SMD
   Dimitrios Liakos       : Extrapolation schemes; Compound Job, initial MDCI parallelization
   Dimitrios Manganas     : Further ROCIS development; embedding schemes
   Dimitrios Pantazis     : SARC Basis sets
   Taras Petrenko         : DFT Hessian,TD-DFT gradient, ASA, ECA, R-Raman, ABS, FL, XAS/XES, NRVS
   Peter Pinski           : DLPNO-MP2, DLPNO-MP2 Gradient
   Christoph Reimann      : Effective Core Potentials
   Marius Retegan         : Local ZFS, SOC
   Christoph Riplinger    : Optimizer, TS searches, QM/MM, DLPNO-CCSD(T), (RO)-DLPNO pert. Triples
   Tobias Risthaus        : Range-separated hybrids, TD-DFT gradient, RPA, STAB
   Michael Roemelt        : Original ROCIS implementation
   Masaaki Saitow         : Open-shell DLPNO-CCSD energy and density
   Barbara Sandhoefer     : DKH picture change effects
   Avijit Sen             : IP-ROCIS
   Kantharuban Sivalingam : CASSCF convergence, NEVPT2, FIC-MRCI
   Bernardo de Souza      : ESD, SOC TD-DFT
   Georgi Stoychev        : AutoAux, RI-MP2 NMR
   Willem Van den Heuvel  : Paramagnetic NMR
   Boris Wezisla          : Elementary symmetry handling
   Frank Wennmohs         : Technical directorship


 We gratefully acknowledge several colleagues who have allowed us to
 interface, adapt or use parts of their codes:
   Stefan Grimme, W. Hujo, H. Kruse,             : VdW corrections, initial TS optimization,
                  C. Bannwarth                     DFT functionals, gCP, sTDA/sTD-DF
   Ed Valeev, F. Pavosevic, A. Kumar             : LibInt (2-el integral package), F12 methods
   Garnet Chan, S. Sharma, J. Yang, R. Olivares  : DMRG
   Ulf Ekstrom                                   : XCFun DFT Library
   Mihaly Kallay                                 : mrcc  (arbitrary order and MRCC methods)
   Andreas Klamt, Michael Diedenhofen            : otool_cosmo (COSMO solvation model)
   Jiri Pittner, Ondrej Demel                    : Mk-CCSD
   Frank Weinhold                                : gennbo (NPA and NBO analysis)
   Christopher J. Cramer and Donald G. Truhlar   : smd solvation model
   Lars Goerigk                                  : TD-DFT with DH, B97 family of functionals
   V. Asgeirsson, H. Jonsson                     : NEB implementation
   FAccTs GmbH                                   : IRC, NEB, NEB-TS, Multilevel, MM, QM/MM, CI optimization
   S Lehtola, MJT Oliveira, MAL Marques          : LibXC Library


 Your calculation uses the libint2 library for the computation of 2-el integrals
 For citations please refer to: http://libint.valeyev.net

 Your ORCA version has been built with support for libXC version: 4.2.3
 For citations please refer to: https://tddft.org/programs/libxc/

 This ORCA versions uses:
   CBLAS   interface :  Fast vector & matrix operations
   LAPACKE interface :  Fast linear algebra routines
   SCALAPACK package :  Parallel linear algebra routines


----- Orbital basis set information -----
Your calculation utilizes the basis: def2-TZVP
   F. Weigend and R. Ahlrichs, Phys. Chem. Chem. Phys. 7, 3297 (2005).

================================================================================
                                        WARNINGS
                       Please study these warnings very carefully!
================================================================================


WARNING: The frozen-core approximation for MP2-gradient calculations is turned on by default.

INFO   : the flag for use of LIBINT has been found!

================================================================================
                                       INPUT FILE
================================================================================
NAME = 12h2o.su.etal.mol0,1,2,4,7-orca.engrad-mp2.def2tzvp.frozencore.inp
|  1> # 12h2o.su.etal.mol0,1,2,4,7
|  2> ! MP2 def2-TZVP EnGrad TightSCF
|  3> 
|  4> %pal
|  5>     nprocs 6
|  6> end
|  7> 
|  8> %maxcore 8000
|  9> 
| 10> %scf
| 11>     ConvForced true
| 12> end
| 13> 
| 14> *xyz 0 1
| 15> O   1.794470000   0.923410000   2.768350000
| 16> H   2.338250000   1.359750000   3.430940000
| 17> H   0.879480000   1.303000000   2.865760000
| 18> O  -1.794470000  -0.923410000   2.768350000
| 19> H  -2.338250000  -1.359750000   3.430940000
| 20> H  -0.879480000  -1.303000000   2.865760000
| 21> O   0.923410000  -1.794470000  -2.768350000
| 22> H   1.359750000  -2.338250000  -3.430940000
| 23> H   1.303000000  -0.879480000  -2.865760000
| 24> O  -0.885520000   1.737840000   0.052730000
| 25> H  -1.032320000   2.090180000  -0.841890000
| 26> H  -1.284090000   0.839590000   0.017130000
| 27> O  -1.737840000  -0.885520000  -0.052730000
| 28> H  -2.090180000  -1.032320000   0.841890000
| 29> H  -0.839590000  -1.284090000  -0.017130000
| 30> *
| 31> 
| 32>                          ****END OF INPUT****
================================================================================

                     *******************************
                     * Energy+Gradient Calculation *
                     *******************************

---------------------------------
CARTESIAN COORDINATES (ANGSTROEM)
---------------------------------
  O      1.794470    0.923410    2.768350
  H      2.338250    1.359750    3.430940
  H      0.879480    1.303000    2.865760
  O     -1.794470   -0.923410    2.768350
  H     -2.338250   -1.359750    3.430940
  H     -0.879480   -1.303000    2.865760
  O      0.923410   -1.794470   -2.768350
  H      1.359750   -2.338250   -3.430940
  H      1.303000   -0.879480   -2.865760
  O     -0.885520    1.737840    0.052730
  H     -1.032320    2.090180   -0.841890
  H     -1.284090    0.839590    0.017130
  O     -1.737840   -0.885520   -0.052730
  H     -2.090180   -1.032320    0.841890
  H     -0.839590   -1.284090   -0.017130

----------------------------
CARTESIAN COORDINATES (A.U.)
----------------------------
  NO LB      ZA    FRAG     MASS         X           Y           Z
   0 O     8.0000    0    15.999    3.391057    1.744992    5.231423
   1 H     1.0000    0     1.008    4.418652    2.569555    6.483537
   2 H     1.0000    0     1.008    1.661976    2.462313    5.415502
   3 O     8.0000    0    15.999   -3.391057   -1.744992    5.231423
   4 H     1.0000    0     1.008   -4.418652   -2.569555    6.483537
   5 H     1.0000    0     1.008   -1.661976   -2.462313    5.415502
   6 O     8.0000    0    15.999    1.744992   -3.391057   -5.231423
   7 H     1.0000    0     1.008    2.569555   -4.418652   -6.483537
   8 H     1.0000    0     1.008    2.462313   -1.661976   -5.415502
   9 O     8.0000    0    15.999   -1.673390    3.284042    0.099645
  10 H     1.0000    0     1.008   -1.950802    3.949868   -1.590942
  11 H     1.0000    0     1.008   -2.426578    1.586595    0.032371
  12 O     8.0000    0    15.999   -3.284042   -1.673390   -0.099645
  13 H     1.0000    0     1.008   -3.949868   -1.950802    1.590942
  14 H     1.0000    0     1.008   -1.586595   -2.426578   -0.032371

--------------------------------
INTERNAL COORDINATES (ANGSTROEM)
--------------------------------
 O      0   0   0     0.000000000000     0.00000000     0.00000000
 H      1   0   0     0.961828878803     0.00000000     0.00000000
 H      1   2   0     0.995381322057   106.21731035     0.00000000
 O      3   1   2     3.480861789658   117.35405144   223.81249033
 H      4   3   1     0.961828878803   134.84484566    98.22461471
 H      4   3   1     0.995381322057    62.29205096    12.66575463
 O      6   4   3     5.935920367146   102.58474291   273.48279218
 H      7   6   4     0.961828878803   146.97742434   224.01286022
 H      7   6   4     0.995381322057    97.62005672    87.72090689
 O      3   1   2     3.349245975813   116.85538783   143.82107740
 H     10   3   1     0.972645187106   154.03893681   304.15813038
 H     10   3   1     0.983350632989    97.20424340    87.67157074
 O     12  10   3     1.785153773264   170.81379649   301.36914736
 H     13  12  10     0.972645187106   101.65007623   109.44492584
 H     13  12  10     0.983350632989    99.09581498     3.33484705

---------------------------
INTERNAL COORDINATES (A.U.)
---------------------------
 O      0   0   0     0.000000000000     0.00000000     0.00000000
 H      1   0   0     1.817593168635     0.00000000     0.00000000
 H      1   2   0     1.880998097508   106.21731035     0.00000000
 O      3   1   2     6.577875492484   117.35405144   223.81249033
 H      4   3   1     1.817593168635   134.84484566    98.22461471
 H      4   3   1     1.880998097508    62.29205096    12.66575463
 O      6   4   3    11.217263846671   102.58474291   273.48279218
 H      7   6   4     1.817593168635   146.97742434   224.01286022
 H      7   6   4     1.880998097508    97.62005672    87.72090689
 O      3   1   2     6.329157649425   116.85538783   143.82107740
 H     10   3   1     1.838033029106   154.03893681   304.15813038
 H     10   3   1     1.858263389967    97.20424340    87.67157074
 O     12  10   3     3.373451738406   170.81379649   301.36914736
 H     13  12  10     1.838033029106   101.65007623   109.44492584
 H     13  12  10     1.858263389967    99.09581498     3.33484705

---------------------
BASIS SET INFORMATION
---------------------
There are 2 groups of distinct atoms

 Group   1 Type O   : 11s6p2d1f contracted to 5s3p2d1f pattern {62111/411/11/1}
 Group   2 Type H   : 5s1p contracted to 3s1p pattern {311/1}

Atom   0O    basis set group =>   1
Atom   1H    basis set group =>   2
Atom   2H    basis set group =>   2
Atom   3O    basis set group =>   1
Atom   4H    basis set group =>   2
Atom   5H    basis set group =>   2
Atom   6O    basis set group =>   1
Atom   7H    basis set group =>   2
Atom   8H    basis set group =>   2
Atom   9O    basis set group =>   1
Atom  10H    basis set group =>   2
Atom  11H    basis set group =>   2
Atom  12O    basis set group =>   1
Atom  13H    basis set group =>   2
Atom  14H    basis set group =>   2


           ************************************************************
           *        Program running with 6 parallel MPI-processes     *
           *              working on a common directory               *
           ************************************************************
------------------------------------------------------------------------------
                           ORCA GTO INTEGRAL CALCULATION
------------------------------------------------------------------------------

                         BASIS SET STATISTICS AND STARTUP INFO

 # of primitive gaussian shells          ...  160
 # of primitive gaussian functions       ...  310
 # of contracted shells                  ...   95
 # of contracted basis functions         ...  215
 Highest angular momentum                ...    3
 Maximum contraction depth               ...    6
 Integral package used                   ... LIBINT
 Integral threshhold            Thresh   ...  2.500e-11
 Primitive cut-off              TCut     ...  2.500e-12


------------------------------ INTEGRAL EVALUATION ----------------------------


 * One electron integrals 
 Pre-screening matrix                    ... done
 Shell pair data                         ... done (   0.001 sec)



           ************************************************************
           *        Program running with 6 parallel MPI-processes     *
           *              working on a common directory               *
           ************************************************************
-------------------------------------------------------------------------------
                                 ORCA SCF
-------------------------------------------------------------------------------

------------
SCF SETTINGS
------------
Hamiltonian:
 Ab initio Hamiltonian  Method          .... Hartree-Fock(GTOs)


General Settings:
 Integral files         IntName         .... 12h2o.su.etal.mol0,1,2,4,7-orca.engrad-mp2.def2tzvp.frozencore
 Hartree-Fock type      HFTyp           .... RHF
 Total Charge           Charge          ....    0
 Multiplicity           Mult            ....    1
 Number of Electrons    NEL             ....   50
 Basis Dimension        Dim             ....  215
 Nuclear Repulsion      ENuc            ....    174.6345690297 Eh

Convergence Acceleration:
 DIIS                   CNVDIIS         .... on
   Start iteration      DIISMaxIt       ....    12
   Startup error        DIISStart       ....  0.200000
   # of expansion vecs  DIISMaxEq       ....     5
   Bias factor          DIISBfac        ....   1.050
   Max. coefficient     DIISMaxC        ....  10.000
 Newton-Raphson         CNVNR           .... off
 SOSCF                  CNVSOSCF        .... on
   Start iteration      SOSCFMaxIt      ....   150
   Startup grad/error   SOSCFStart      ....  0.003300
 Level Shifting         CNVShift        .... on
   Level shift para.    LevelShift      ....    0.2500
   Turn off err/grad.   ShiftErr        ....    0.0010
 Zerner damping         CNVZerner       .... off
 Static damping         CNVDamp         .... on
   Fraction old density DampFac         ....    0.7000
   Max. Damping (<1)    DampMax         ....    0.9800
   Min. Damping (>=0)   DampMin         ....    0.0000
   Turn off err/grad.   DampErr         ....    0.1000
 Fernandez-Rico         CNVRico         .... off

SCF Procedure:
 Maximum # iterations   MaxIter         ....   125
 SCF integral mode      SCFMode         .... Direct
   Integral package                     .... LIBINT
 Reset frequency        DirectResetFreq ....    20
 Integral Threshold     Thresh          ....  2.500e-11 Eh
 Primitive CutOff       TCut            ....  2.500e-12 Eh

Convergence Tolerance:
 Convergence Check Mode ConvCheckMode   .... Total+1el-Energy
 Convergence forced     ConvForced      .... 1
 Energy Change          TolE            ....  1.000e-08 Eh
 1-El. energy change                    ....  1.000e-05 Eh
 Orbital Gradient       TolG            ....  1.000e-05
 Orbital Rotation angle TolX            ....  1.000e-05
 DIIS Error             TolErr          ....  5.000e-07


Diagonalization of the overlap matrix:
Smallest eigenvalue                        ... 4.763e-03
Time for diagonalization                   ...    0.009 sec
Threshold for overlap eigenvalues          ... 1.000e-08
Number of eigenvalues below threshold      ... 0
Time for construction of square roots      ...    0.006 sec
Total time needed                          ...    0.015 sec

-------------------
DFT GRID GENERATION
-------------------

General Integration Accuracy     IntAcc      ...  4.340
Radial Grid Type                 RadialGrid  ... Gauss-Chebyshev
Angular Grid (max. acc.)         AngularGrid ... Lebedev-110
Angular grid pruning method      GridPruning ... 3 (G Style)
Weight generation scheme         WeightScheme... Becke
Basis function cutoff            BFCut       ...    1.0000e-11
Integration weight cutoff        WCut        ...    1.0000e-14
Grids for H and He will be reduced by one unit

# of grid points (after initial pruning)     ...  16520 (   0.0 sec)
# of grid points (after weights+screening)   ...  15895 (   0.0 sec)
nearest neighbour list constructed           ...    0.0 sec
Grid point re-assignment to atoms done       ...    0.0 sec
Grid point division into batches done        ...    0.0 sec
Reduced shell lists constructed in    0.0 sec

Total number of grid points                  ...    15895
Total number of batches                      ...      258
Average number of points per batch           ...       61
Average number of grid points per atom       ...     1060
Average number of shells per batch           ...    40.16 (42.27%)
Average number of basis functions per batch  ...    77.93 (36.25%)
Average number of large shells per batch     ...    27.45 (68.36%)
Average number of large basis fcns per batch ...    54.86 (70.40%)
Maximum spatial batch extension              ...  14.53, 18.77, 17.80 au
Average spatial batch extension              ...   0.73,  0.86,  0.73 au

Time for grid setup =    0.083 sec

------------------------------
INITIAL GUESS: MODEL POTENTIAL
------------------------------
Loading Hartree-Fock densities                     ... done
Calculating cut-offs                               ... done
Setting up the integral package                    ... done
Initializing the effective Hamiltonian             ... done
Starting the Coulomb interaction                   ... done (   0.0 sec)
Reading the grid                                   ... done
Mapping shells                                     ... done
Starting the XC term evaluation                    ... done (   0.0 sec)
Transforming the Hamiltonian                       ... done (   0.0 sec)
Diagonalizing the Hamiltonian                      ... done (   0.1 sec)
Back transforming the eigenvectors                 ... done (   0.0 sec)
Now organizing SCF variables                       ... done
                      ------------------
                      INITIAL GUESS DONE (   0.4 sec)
                      ------------------
--------------
SCF ITERATIONS
--------------
ITER       Energy         Delta-E        Max-DP      RMS-DP      [F,P]     Damp
               ***  Starting incremental Fock matrix formation  ***
  0   -379.8216705091   0.000000000000 0.04355285  0.00108299  0.3533088 0.7000
  1   -380.0101571979  -0.188486688827 0.02918633  0.00074536  0.2162857 0.7000
                               ***Turning on DIIS***
  2   -380.1087941336  -0.098636935743 0.01681751  0.00040903  0.1638229 0.7000
  3   -380.9866252039  -0.877831070239 0.00752224  0.00017927  0.1218797 0.7000
  4   -380.8066045007   0.180020703122 0.01680833  0.00041201  0.0861898 0.0000
  5   -380.3370939163   0.469510584406 0.00212329  0.00006733  0.0054542 0.0000
                      *** Initiating the SOSCF procedure ***
                           *** Shutting down DIIS ***
                      *** Re-Reading the Fockian *** 
                      *** Removing any level shift *** 
ITER      Energy       Delta-E        Grad      Rot      Max-DP    RMS-DP
  6   -380.30758305   0.0295108646  0.000920  0.000920  0.001383  0.000040
               *** Restarting incremental Fock matrix formation ***
  7   -380.29780458   0.0097784732  0.000371  0.000532  0.000691  0.000018
  8   -380.29781198  -0.0000074002  0.000170  0.000389  0.000523  0.000015
  9   -380.29781375  -0.0000017751  0.000076  0.000049  0.000101  0.000003
 10   -380.29781390  -0.0000001474  0.000010  0.000008  0.000019  0.000000
                  ***Gradient check signals convergence***
              ***Rediagonalizing the Fockian in SOSCF/NRSCF***

               *****************************************************
               *                     SUCCESS                       *
               *           SCF CONVERGED AFTER  11 CYCLES          *
               *****************************************************


----------------
TOTAL SCF ENERGY
----------------

Total Energy       :         -380.29781390 Eh          -10348.42962 eV

Components:
Nuclear Repulsion  :          174.63456903 Eh            4752.04821 eV
Electronic Energy  :         -554.93238293 Eh          -15100.47783 eV
One Electron Energy:         -873.33024613 Eh          -23764.52416 eV
Two Electron Energy:          318.39786320 Eh            8664.04633 eV

Virial components:
Potential Energy   :         -759.97258503 Eh          -20679.90538 eV
Kinetic Energy     :          379.67477112 Eh           10331.47576 eV
Virial Ratio       :            2.00164099


---------------
SCF CONVERGENCE
---------------

  Last Energy change         ...   -2.7592e-09  Tolerance :   1.0000e-08
  Last MAX-Density change    ...    5.6242e-06  Tolerance :   1.0000e-07
  Last RMS-Density change    ...    1.4845e-07  Tolerance :   5.0000e-09
  Last Orbital Gradient      ...    2.0108e-06  Tolerance :   1.0000e-05
  Last Orbital Rotation      ...    2.6313e-06  Tolerance :   1.0000e-05

             **** THE GBW FILE WAS UPDATED (12h2o.su.etal.mol0,1,2,4,7-orca.engrad-mp2.def2tzvp.frozencore.gbw) ****
             **** DENSITY FILE WAS UPDATED (12h2o.su.etal.mol0,1,2,4,7-orca.engrad-mp2.def2tzvp.frozencore.scfp) ****
             **** ENERGY FILE WAS UPDATED (12h2o.su.etal.mol0,1,2,4,7-orca.engrad-mp2.def2tzvp.frozencore.en.tmp) ****
             **** THE GBW FILE WAS UPDATED (12h2o.su.etal.mol0,1,2,4,7-orca.engrad-mp2.def2tzvp.frozencore.gbw) ****
             **** DENSITY FILE WAS UPDATED (12h2o.su.etal.mol0,1,2,4,7-orca.engrad-mp2.def2tzvp.frozencore.scfp) ****
----------------
ORBITAL ENERGIES
----------------

  NO   OCC          E(Eh)            E(eV) 
   0   2.0000     -20.591459      -560.3221 
   1   2.0000     -20.561187      -559.4983 
   2   2.0000     -20.552783      -559.2697 
   3   2.0000     -20.550999      -559.2211 
   4   2.0000     -20.510129      -558.1090 
   5   2.0000      -1.369648       -37.2700 
   6   2.0000      -1.336483       -36.3676 
   7   2.0000      -1.334628       -36.3171 
   8   2.0000      -1.328150       -36.1408 
   9   2.0000      -1.290769       -35.1236 
  10   2.0000      -0.736143       -20.0315 
  11   2.0000      -0.704934       -19.1822 
  12   2.0000      -0.698161       -18.9979 
  13   2.0000      -0.696080       -18.9413 
  14   2.0000      -0.665228       -18.1018 
  15   2.0000      -0.610545       -16.6138 
  16   2.0000      -0.576746       -15.6941 
  17   2.0000      -0.572826       -15.5874 
  18   2.0000      -0.564839       -15.3700 
  19   2.0000      -0.542330       -14.7576 
  20   2.0000      -0.527389       -14.3510 
  21   2.0000      -0.504350       -13.7241 
  22   2.0000      -0.496168       -13.5014 
  23   2.0000      -0.486826       -13.2472 
  24   2.0000      -0.458527       -12.4771 
  25   0.0000       0.101436         2.7602 
  26   0.0000       0.124157         3.3785 
  27   0.0000       0.144310         3.9269 
  28   0.0000       0.169605         4.6152 
  29   0.0000       0.180712         4.9174 
  30   0.0000       0.206456         5.6179 
  31   0.0000       0.212702         5.7879 
  32   0.0000       0.227183         6.1820 
  33   0.0000       0.270814         7.3692 
  34   0.0000       0.343998         9.3607 
  35   0.0000       0.468212        12.7407 
  36   0.0000       0.492310        13.3964 
  37   0.0000       0.518259        14.1025 
  38   0.0000       0.535639        14.5755 
  39   0.0000       0.543801        14.7976 
  40   0.0000       0.550124        14.9696 
  41   0.0000       0.559762        15.2319 
  42   0.0000       0.586647        15.9635 
  43   0.0000       0.590974        16.0812 
  44   0.0000       0.597661        16.2632 
  45   0.0000       0.601208        16.3597 
  46   0.0000       0.614886        16.7319 
  47   0.0000       0.628517        17.1028 
  48   0.0000       0.640536        17.4299 
  49   0.0000       0.650704        17.7066 
  50   0.0000       0.676118        18.3981 
  51   0.0000       0.688692        18.7403 
  52   0.0000       0.710355        19.3297 
  53   0.0000       0.738169        20.0866 
  54   0.0000       0.740311        20.1449 
  55   0.0000       0.768093        20.9009 
  56   0.0000       0.774065        21.0634 
  57   0.0000       0.788006        21.4427 
  58   0.0000       0.804299        21.8861 
  59   0.0000       0.814306        22.1584 
  60   0.0000       0.833466        22.6798 
  61   0.0000       0.864693        23.5295 
  62   0.0000       0.865320        23.5466 
  63   0.0000       1.026733        27.9388 
  64   0.0000       1.071214        29.1492 
  65   0.0000       1.389390        37.8072 
  66   0.0000       1.396878        38.0110 
  67   0.0000       1.414281        38.4845 
  68   0.0000       1.431550        38.9545 
  69   0.0000       1.434135        39.0248 
  70   0.0000       1.435594        39.0645 
  71   0.0000       1.445079        39.3226 
  72   0.0000       1.449600        39.4456 
  73   0.0000       1.484897        40.4061 
  74   0.0000       1.510419        41.1006 
  75   0.0000       1.555568        42.3291 
  76   0.0000       1.556264        42.3481 
  77   0.0000       1.564121        42.5619 
  78   0.0000       1.591747        43.3136 
  79   0.0000       1.642949        44.7069 
  80   0.0000       1.793387        48.8006 
  81   0.0000       1.811438        49.2917 
  82   0.0000       1.839111        50.0447 
  83   0.0000       1.857151        50.5356 
  84   0.0000       1.876723        51.0682 
  85   0.0000       1.894376        51.5486 
  86   0.0000       1.900320        51.7103 
  87   0.0000       1.913136        52.0591 
  88   0.0000       1.959439        53.3190 
  89   0.0000       1.981012        53.9061 
  90   0.0000       2.006482        54.5992 
  91   0.0000       2.021865        55.0178 
  92   0.0000       2.071668        56.3729 
  93   0.0000       2.104513        57.2667 
  94   0.0000       2.161585        58.8197 
  95   0.0000       2.262964        61.5784 
  96   0.0000       2.296698        62.4963 
  97   0.0000       2.312662        62.9307 
  98   0.0000       2.317235        63.0552 
  99   0.0000       2.325128        63.2700 
 100   0.0000       2.328438        63.3600 
 101   0.0000       2.337510        63.6069 
 102   0.0000       2.356905        64.1347 
 103   0.0000       2.374572        64.6154 
 104   0.0000       2.390283        65.0429 
 105   0.0000       2.391913        65.0873 
 106   0.0000       2.400076        65.3094 
 107   0.0000       2.406955        65.4966 
 108   0.0000       2.519567        68.5609 
 109   0.0000       2.562848        69.7386 
 110   0.0000       2.569058        69.9076 
 111   0.0000       2.591466        70.5174 
 112   0.0000       2.600222        70.7556 
 113   0.0000       2.631531        71.6076 
 114   0.0000       2.653803        72.2137 
 115   0.0000       2.690522        73.2128 
 116   0.0000       2.705963        73.6330 
 117   0.0000       2.714234        73.8581 
 118   0.0000       2.729535        74.2744 
 119   0.0000       2.765078        75.2416 
 120   0.0000       2.883265        78.4576 
 121   0.0000       2.907323        79.1123 
 122   0.0000       2.927382        79.6581 
 123   0.0000       2.950573        80.2892 
 124   0.0000       2.963499        80.6409 
 125   0.0000       2.970019        80.8183 
 126   0.0000       2.991182        81.3942 
 127   0.0000       3.000151        81.6383 
 128   0.0000       3.021270        82.2129 
 129   0.0000       3.030402        82.4614 
 130   0.0000       3.038192        82.6734 
 131   0.0000       3.058702        83.2315 
 132   0.0000       3.083972        83.9192 
 133   0.0000       3.116186        84.7957 
 134   0.0000       3.158925        85.9587 
 135   0.0000       3.167743        86.1987 
 136   0.0000       3.241909        88.2168 
 137   0.0000       3.256371        88.6104 
 138   0.0000       3.303109        89.8822 
 139   0.0000       3.453336        93.9701 
 140   0.0000       3.972462       108.0962 
 141   0.0000       3.983247       108.3897 
 142   0.0000       3.997764       108.7847 
 143   0.0000       4.075388       110.8969 
 144   0.0000       4.108381       111.7947 
 145   0.0000       4.284841       116.5965 
 146   0.0000       4.311003       117.3084 
 147   0.0000       4.320024       117.5538 
 148   0.0000       4.322947       117.6334 
 149   0.0000       4.385621       119.3388 
 150   0.0000       5.525435       150.3547 
 151   0.0000       5.552821       151.1000 
 152   0.0000       5.553155       151.1090 
 153   0.0000       5.560948       151.3211 
 154   0.0000       5.594854       152.2437 
 155   0.0000       5.611440       152.6950 
 156   0.0000       5.643171       153.5585 
 157   0.0000       5.650116       153.7475 
 158   0.0000       5.683523       154.6565 
 159   0.0000       5.701550       155.1471 
 160   0.0000       5.786377       157.4553 
 161   0.0000       5.815315       158.2428 
 162   0.0000       5.820571       158.3858 
 163   0.0000       5.823762       158.4726 
 164   0.0000       5.829149       158.6192 
 165   0.0000       5.851037       159.2148 
 166   0.0000       5.859841       159.4544 
 167   0.0000       5.866946       159.6477 
 168   0.0000       5.872618       159.8021 
 169   0.0000       5.891731       160.3221 
 170   0.0000       5.902868       160.6252 
 171   0.0000       5.907433       160.7494 
 172   0.0000       5.920354       161.1010 
 173   0.0000       5.928514       161.3231 
 174   0.0000       5.943180       161.7222 
 175   0.0000       6.403847       174.2575 
 176   0.0000       6.432915       175.0485 
 177   0.0000       6.442513       175.3097 
 178   0.0000       6.476269       176.2282 
 179   0.0000       6.519299       177.3991 
 180   0.0000       6.674065       181.6105 
 181   0.0000       6.694065       182.1548 
 182   0.0000       6.701061       182.3451 
 183   0.0000       6.709080       182.5634 
 184   0.0000       6.769956       184.2199 
 185   0.0000       6.823928       185.6885 
 186   0.0000       6.831920       185.9060 
 187   0.0000       6.852076       186.4545 
 188   0.0000       6.860580       186.6859 
 189   0.0000       6.886843       187.4005 
 190   0.0000       6.889337       187.4684 
 191   0.0000       6.891286       187.5214 
 192   0.0000       6.900379       187.7689 
 193   0.0000       6.908224       187.9823 
 194   0.0000       6.922872       188.3809 
 195   0.0000       6.926123       188.4694 
 196   0.0000       6.934354       188.6934 
 197   0.0000       6.967005       189.5819 
 198   0.0000       7.010155       190.7560 
 199   0.0000       7.042542       191.6373 
 200   0.0000       7.355000       200.1397 
 201   0.0000       7.376476       200.7241 
 202   0.0000       7.385865       200.9796 
 203   0.0000       7.399150       201.3411 
 204   0.0000       7.468786       203.2360 
 205   0.0000       7.487921       203.7567 
 206   0.0000       7.489890       203.8103 
 207   0.0000       7.504736       204.2142 
 208   0.0000       7.572929       206.0699 
 209   0.0000       7.602172       206.8656 
 210   0.0000      44.820573      1219.6298 
 211   0.0000      44.824491      1219.7364 
 212   0.0000      44.862471      1220.7699 
 213   0.0000      44.982037      1224.0235 
 214   0.0000      44.996536      1224.4180 

                    ********************************
                    * MULLIKEN POPULATION ANALYSIS *
                    ********************************

-----------------------
MULLIKEN ATOMIC CHARGES
-----------------------
   0 O :   -0.711139
   1 H :    0.342355
   2 H :    0.368167
   3 O :   -0.721099
   4 H :    0.360908
   5 H :    0.369887
   6 O :   -0.702030
   7 H :    0.347128
   8 H :    0.355921
   9 O :   -0.744412
  10 H :    0.329027
  11 H :    0.386286
  12 O :   -0.730729
  13 H :    0.390876
  14 H :    0.358853
Sum of atomic charges:   -0.0000000

--------------------------------
MULLIKEN REDUCED ORBITAL CHARGES
--------------------------------
  0 O s       :     3.814346  s :     3.814346
      pz      :     1.720269  p :     4.869854
      px      :     1.357173
      py      :     1.792412
      dz2     :     0.004491  d :     0.025393
      dxz     :     0.004954
      dyz     :     0.005871
      dx2y2   :     0.002533
      dxy     :     0.007544
      f0      :     0.000092  f :     0.001546
      f+1     :     0.000345
      f-1     :     0.000193
      f+2     :     0.000070
      f-2     :     0.000359
      f+3     :     0.000098
      f-3     :     0.000389
  1 H s       :     0.611711  s :     0.611711
      pz      :     0.017324  p :     0.045934
      px      :     0.013531
      py      :     0.015079
  2 H s       :     0.589836  s :     0.589836
      pz      :     0.011194  p :     0.041997
      px      :     0.017899
      py      :     0.012905
  3 O s       :     3.811116  s :     3.811116
      pz      :     1.718196  p :     4.883745
      px      :     1.362894
      py      :     1.802655
      dz2     :     0.003983  d :     0.024723
      dxz     :     0.004316
      dyz     :     0.005805
      dx2y2   :     0.002499
      dxy     :     0.008120
      f0      :     0.000083  f :     0.001514
      f+1     :     0.000330
      f-1     :     0.000186
      f+2     :     0.000070
      f-2     :     0.000349
      f+3     :     0.000100
      f-3     :     0.000397
  4 H s       :     0.593657  s :     0.593657
      pz      :     0.017048  p :     0.045435
      px      :     0.013486
      py      :     0.014900
  5 H s       :     0.588502  s :     0.588502
      pz      :     0.010690  p :     0.041611
      px      :     0.017847
      py      :     0.013074
  6 O s       :     3.813217  s :     3.813217
      pz      :     1.720590  p :     4.861808
      px      :     1.793897
      py      :     1.347320
      dz2     :     0.004358  d :     0.025451
      dxz     :     0.005928
      dyz     :     0.004782
      dx2y2   :     0.002533
      dxy     :     0.007849
      f0      :     0.000092  f :     0.001554
      f+1     :     0.000194
      f-1     :     0.000345
      f+2     :     0.000071
      f-2     :     0.000361
      f+3     :     0.000393
      f-3     :     0.000098
  7 H s       :     0.606980  s :     0.606980
      pz      :     0.017179  p :     0.045892
      px      :     0.015112
      py      :     0.013601
  8 H s       :     0.601836  s :     0.601836
      pz      :     0.011350  p :     0.042243
      px      :     0.013125
      py      :     0.017768
  9 O s       :     3.810990  s :     3.810990
      pz      :     1.518420  p :     4.907232
      px      :     1.879807
      py      :     1.509006
      dz2     :     0.011368  d :     0.024738
      dxz     :     0.002540
      dyz     :     0.002913
      dx2y2   :     0.002922
      dxy     :     0.004994
      f0      :     0.000189  f :     0.001452
      f+1     :     0.000126
      f-1     :     0.000451
      f+2     :     0.000078
      f-2     :     0.000042
      f+3     :     0.000449
      f-3     :     0.000117
 10 H s       :     0.625961  s :     0.625961
      pz      :     0.018219  p :     0.045012
      px      :     0.014457
      py      :     0.012336
 11 H s       :     0.559761  s :     0.559761
      pz      :     0.009489  p :     0.053953
      px      :     0.015542
      py      :     0.028922
 12 O s       :     3.803997  s :     3.803997
      pz      :     1.595027  p :     4.900060
      px      :     1.460410
      py      :     1.844622
      dz2     :     0.011497  d :     0.025287
      dxz     :     0.002905
      dyz     :     0.002319
      dx2y2   :     0.003547
      dxy     :     0.005019
      f0      :     0.000149  f :     0.001385
      f+1     :     0.000457
      f-1     :     0.000114
      f+2     :     0.000068
      f-2     :     0.000040
      f+3     :     0.000108
      f-3     :     0.000450
 13 H s       :     0.560752  s :     0.560752
      pz      :     0.024843  p :     0.048372
      px      :     0.010885
      py      :     0.012644
 14 H s       :     0.598322  s :     0.598322
      pz      :     0.010100  p :     0.042825
      px      :     0.018519
      py      :     0.014206


                     *******************************
                     * LOEWDIN POPULATION ANALYSIS *
                     *******************************

----------------------
LOEWDIN ATOMIC CHARGES
----------------------
   0 O :   -0.342290
   1 H :    0.155327
   2 H :    0.185892
   3 O :   -0.315025
   4 H :    0.162944
   5 H :    0.187636
   6 O :   -0.338722
   7 H :    0.157385
   8 H :    0.182658
   9 O :   -0.366574
  10 H :    0.154894
  11 H :    0.152108
  12 O :   -0.308202
  13 H :    0.157227
  14 H :    0.174742

-------------------------------
LOEWDIN REDUCED ORBITAL CHARGES
-------------------------------
  0 O s       :     3.475227  s :     3.475227
      pz      :     1.705454  p :     4.832501
      px      :     1.353983
      py      :     1.773064
      dz2     :     0.004990  d :     0.032437
      dxz     :     0.007464
      dyz     :     0.006006
      dx2y2   :     0.003902
      dxy     :     0.010075
      f0      :     0.000079  f :     0.002126
      f+1     :     0.000460
      f-1     :     0.000278
      f+2     :     0.000036
      f-2     :     0.000631
      f+3     :     0.000093
      f-3     :     0.000549
  1 H s       :     0.681902  s :     0.681902
      pz      :     0.066101  p :     0.162770
      px      :     0.043901
      py      :     0.052769
  2 H s       :     0.666121  s :     0.666121
      pz      :     0.033242  p :     0.147987
      px      :     0.071231
      py      :     0.043515
  3 O s       :     3.468304  s :     3.468304
      pz      :     1.681754  p :     4.812518
      px      :     1.356576
      py      :     1.774187
      dz2     :     0.005308  d :     0.032107
      dxz     :     0.006780
      dyz     :     0.005804
      dx2y2   :     0.003808
      dxy     :     0.010406
      f0      :     0.000087  f :     0.002097
      f+1     :     0.000447
      f-1     :     0.000272
      f+2     :     0.000035
      f-2     :     0.000608
      f+3     :     0.000092
      f-3     :     0.000555
  4 H s       :     0.673670  s :     0.673670
      pz      :     0.066367  p :     0.163387
      px      :     0.044205
      py      :     0.052815
  5 H s       :     0.663986  s :     0.663986
      pz      :     0.033304  p :     0.148379
      px      :     0.071490
      py      :     0.043585
  6 O s       :     3.475753  s :     3.475753
      pz      :     1.706510  p :     4.828145
      px      :     1.771859
      py      :     1.349776
      dz2     :     0.004997  d :     0.032683
      dxz     :     0.006005
      dyz     :     0.007223
      dx2y2   :     0.003992
      dxy     :     0.010466
      f0      :     0.000078  f :     0.002143
      f+1     :     0.000279
      f-1     :     0.000466
      f+2     :     0.000036
      f-2     :     0.000625
      f+3     :     0.000565
      f-3     :     0.000094
  7 H s       :     0.679868  s :     0.679868
      pz      :     0.066045  p :     0.162747
      px      :     0.052835
      py      :     0.043868
  8 H s       :     0.670061  s :     0.670061
      pz      :     0.033391  p :     0.147281
      px      :     0.043574
      py      :     0.070315
  9 O s       :     3.472036  s :     3.472036
      pz      :     1.534937  p :     4.861749
      px      :     1.840466
      py      :     1.486346
      dz2     :     0.014936  d :     0.030726
      dxz     :     0.001726
      dyz     :     0.004444
      dx2y2   :     0.003705
      dxy     :     0.005915
      f0      :     0.000401  f :     0.002062
      f+1     :     0.000196
      f-1     :     0.000758
      f+2     :     0.000049
      f-2     :     0.000046
      f+3     :     0.000547
      f-3     :     0.000065
 10 H s       :     0.686703  s :     0.686703
      pz      :     0.077942  p :     0.158403
      px      :     0.043709
      py      :     0.036752
 11 H s       :     0.662766  s :     0.662766
      pz      :     0.028861  p :     0.185125
      px      :     0.052589
      py      :     0.103676
 12 O s       :     3.464038  s :     3.464038
      pz      :     1.573918  p :     4.810372
      px      :     1.452697
      py      :     1.783756
      dz2     :     0.014496  d :     0.031759
      dxz     :     0.003863
      dyz     :     0.001393
      dx2y2   :     0.005395
      dxy     :     0.006612
      f0      :     0.000326  f :     0.002034
      f+1     :     0.000718
      f-1     :     0.000208
      f+2     :     0.000038
      f-2     :     0.000043
      f+3     :     0.000074
      f-3     :     0.000625
 13 H s       :     0.670280  s :     0.670280
      pz      :     0.093840  p :     0.172493
      px      :     0.035906
      py      :     0.042748
 14 H s       :     0.671109  s :     0.671109
      pz      :     0.030428  p :     0.154149
      px      :     0.074474
      py      :     0.049247


                      *****************************
                      * MAYER POPULATION ANALYSIS *
                      *****************************

  NA   - Mulliken gross atomic population
  ZA   - Total nuclear charge
  QA   - Mulliken gross atomic charge
  VA   - Mayer's total valence
  BVA  - Mayer's bonded valence
  FA   - Mayer's free valence

  ATOM       NA         ZA         QA         VA         BVA        FA
  0 O      8.7111     8.0000    -0.7111     1.7645     1.7645    -0.0000
  1 H      0.6576     1.0000     0.3424     0.8975     0.8975    -0.0000
  2 H      0.6318     1.0000     0.3682     0.8792     0.8792    -0.0000
  3 O      8.7211     8.0000    -0.7211     1.7670     1.7670    -0.0000
  4 H      0.6391     1.0000     0.3609     0.8849     0.8849    -0.0000
  5 H      0.6301     1.0000     0.3699     0.8789     0.8789    -0.0000
  6 O      8.7020     8.0000    -0.7020     1.7711     1.7711    -0.0000
  7 H      0.6529     1.0000     0.3471     0.8942     0.8942     0.0000
  8 H      0.6441     1.0000     0.3559     0.8860     0.8860    -0.0000
  9 O      8.7444     8.0000    -0.7444     1.7133     1.7133    -0.0000
 10 H      0.6710     1.0000     0.3290     0.9058     0.9058    -0.0000
 11 H      0.6137     1.0000     0.3863     0.8874     0.8874    -0.0000
 12 O      8.7307     8.0000    -0.7307     1.7561     1.7561    -0.0000
 13 H      0.6091     1.0000     0.3909     0.8745     0.8745    -0.0000
 14 H      0.6411     1.0000     0.3589     0.8875     0.8875    -0.0000

  Mayer bond orders larger than 0.100000
B(  0-O ,  1-H ) :   0.8917 B(  0-O ,  2-H ) :   0.8693 B(  3-O ,  4-H ) :   0.8772 
B(  3-O ,  5-H ) :   0.8662 B(  6-O ,  7-H ) :   0.8887 B(  6-O ,  8-H ) :   0.8800 
B(  9-O , 10-H ) :   0.9017 B(  9-O , 11-H ) :   0.8252 B( 12-O , 13-H ) :   0.8404 
B( 12-O , 14-H ) :   0.8763 

-------
TIMINGS
-------

Total SCF time: 0 days 0 hours 0 min 13 sec 

Total time                  ....      13.731 sec
Sum of individual times     ....      12.569 sec  ( 91.5%)

Fock matrix formation       ....      10.288 sec  ( 74.9%)
Diagonalization             ....       1.008 sec  (  7.3%)
Density matrix formation    ....       0.288 sec  (  2.1%)
Population analysis         ....       0.153 sec  (  1.1%)
Initial guess               ....       0.297 sec  (  2.2%)
Orbital Transformation      ....       0.000 sec  (  0.0%)
Orbital Orthonormalization  ....       0.000 sec  (  0.0%)
DIIS solution               ....       0.148 sec  (  1.1%)
SOSCF solution              ....       0.306 sec  (  2.2%)


           ************************************************************
           *        Program running with 6 parallel MPI-processes     *
           *              working on a common directory               *
           ************************************************************

------------------------------------------------------------------------------
                                ORCA  MP2 
------------------------------------------------------------------------------

Freezing NCore=10 chemical core electrons
MP2 will be done in the AO integral direct mode
The Q1-step will be done using symmetric double matrices
Dimension of the basis                    ...  215
Memory devoted for MP2                    ... 8000 MB   
Memory needed for all in one shot         ...  153 MB
Number of MOs that can be treated together...  209      
MP2 density construction                  ... relaxed
The MP2 gradient is requested => amplitudes will be stored on disk
Total number of MOs              ...   20
Number of MOs treated per batch  ...    4 
Number of batches necessary      ...    1 
OPERATORS   0/  0 PASS   0
-----------------------------------------------
 MP2 CORRELATION ENERGY   :     -1.284975844 Eh
-----------------------------------------------


---------------------
MP2 DENSITY FORMATION
---------------------

Completing the external part of the density      ... done
Storing the unrelaxed density                    ... done

Calculating G(D)                                 ... done
Completing the Lagrangian                        ... done
Solving the Z-vector equations                   ... 

------------------------------------------------------------------------------
                           ORCA CP-SCF CALCULATION
------------------------------------------------------------------------------

Input orbitals are from        ... 12h2o.su.etal.mol0,1,2,4,7-orca.engrad-mp2.def2tzvp.frozencore.gbw
Input Perturbation             ... 12h2o.su.etal.mol0,1,2,4,7-orca.engrad-mp2.def2tzvp.frozencore.pin.tmp
Wavefunction output            ... 12h2o.su.etal.mol0,1,2,4,7-orca.engrad-mp2.def2tzvp.frozencore.pout.tmp
Perturbation mode              ... Real perturbation (singlet)
Solver                         ... POPLE
Max. number of iterations      ... 128
Convergence tolerance          ... 1.000e-08
Integral handling              ... Direct
Number of perturbations        ... 1
Number of operators            ... 1
Orbital ranges used for CP-SCF:
 Operator 0:  Orbitals   0... 24  to  25...214
Variables per vector in CP-SCF ... 4750
Number of vectors sought       ... 1
     CP-SCF ITERATION   0: 
     CP-SCF ITERATION   1:      0.000606881378
     CP-SCF ITERATION   2:      0.000013476565
     CP-SCF ITERATION   3:      0.000000612418
     CP-SCF ITERATION   4:      0.000000052765
     CP-SCF ITERATION   5:      0.000000003997
                                                 ... done
Finalizing the relaxed density                   ... done
Transforming P to the AO basis                   ... done
Storing the relaxed density                      ... done

------------------------------------
ENERGY WEIGHTED DENSITY FINALIZATION
------------------------------------

Gathering the parts of the W-matrix              ...                                                      done
Forming the Z-density                            ... done
Transforming Z to the AO basis                   ... done
Calculating G(Z)                                 ... done
Finalizing the W-matrix                          ...                                                      done
Transforming W to the AO basis and storing       ... done

                *********************************************
                * UNRELAXED MP2 DENSITY POPULATION ANALYSIS *
                *********************************************

------------------------------------------------------------------------------
                           ORCA POPULATION ANALYSIS
------------------------------------------------------------------------------
Input electron density              ... 12h2o.su.etal.mol0,1,2,4,7-orca.engrad-mp2.def2tzvp.frozencore.pmp2ur
BaseName (.gbw .S,...)              ... 12h2o.su.etal.mol0,1,2,4,7-orca.engrad-mp2.def2tzvp.frozencore

                    ********************************
                    * MULLIKEN POPULATION ANALYSIS *
                    ********************************

-----------------------
MULLIKEN ATOMIC CHARGES
-----------------------
   0 O :   -0.706257
   1 H :    0.340205
   2 H :    0.365427
   3 O :   -0.715770
   4 H :    0.358729
   5 H :    0.367042
   6 O :   -0.697287
   7 H :    0.345000
   8 H :    0.353325
   9 O :   -0.738960
  10 H :    0.326608
  11 H :    0.382171
  12 O :   -0.724248
  13 H :    0.387864
  14 H :    0.356151
Sum of atomic charges:   -0.0000000

--------------------------------
MULLIKEN REDUCED ORBITAL CHARGES
--------------------------------
  0 O s       :     3.809562  s :     3.809562
      pz      :     1.709828  p :     4.840841
      px      :     1.349759
      py      :     1.781255
      dz2     :     0.009834  d :     0.051770
      dxz     :     0.010194
      dyz     :     0.011142
      dx2y2   :     0.007848
      dxy     :     0.012752
      f0      :     0.000459  f :     0.004084
      f+1     :     0.000704
      f-1     :     0.000555
      f+2     :     0.000435
      f-2     :     0.000721
      f+3     :     0.000465
      f-3     :     0.000746
  1 H s       :     0.612217  s :     0.612217
      pz      :     0.017831  p :     0.047577
      px      :     0.013939
      py      :     0.015808
  2 H s       :     0.591018  s :     0.591018
      pz      :     0.012043  p :     0.043555
      px      :     0.017842
      py      :     0.013670
  3 O s       :     3.806297  s :     3.806297
      pz      :     1.707302  p :     4.853863
      px      :     1.355236
      py      :     1.791325
      dz2     :     0.009503  d :     0.051543
      dxz     :     0.009674
      dyz     :     0.011196
      dx2y2   :     0.007846
      dxy     :     0.013324
      f0      :     0.000453  f :     0.004067
      f+1     :     0.000691
      f-1     :     0.000551
      f+2     :     0.000437
      f-2     :     0.000713
      f+3     :     0.000468
      f-3     :     0.000754
  4 H s       :     0.594269  s :     0.594269
      pz      :     0.017516  p :     0.047002
      px      :     0.013872
      py      :     0.015614
  5 H s       :     0.589810  s :     0.589810
      pz      :     0.011517  p :     0.043148
      px      :     0.017778
      py      :     0.013852
  6 O s       :     3.808417  s :     3.808417
      pz      :     1.710175  p :     4.832980
      px      :     1.782792
      py      :     1.340013
      dz2     :     0.009706  d :     0.051799
      dxz     :     0.011206
      dyz     :     0.010019
      dx2y2   :     0.007843
      dxy     :     0.013025
      f0      :     0.000458  f :     0.004091
      f+1     :     0.000556
      f-1     :     0.000703
      f+2     :     0.000436
      f-2     :     0.000722
      f+3     :     0.000750
      f-3     :     0.000465
  7 H s       :     0.607476  s :     0.607476
      pz      :     0.017678  p :     0.047525
      px      :     0.015847
      py      :     0.013999
  8 H s       :     0.602836  s :     0.602836
      pz      :     0.012203  p :     0.043838
      px      :     0.013909
      py      :     0.017726
  9 O s       :     3.806010  s :     3.806010
      pz      :     1.509388  p :     4.877357
      px      :     1.868020
      py      :     1.499949
      dz2     :     0.016439  d :     0.051577
      dxz     :     0.008035
      dyz     :     0.008255
      dx2y2   :     0.008436
      dxy     :     0.010413
      f0      :     0.000567  f :     0.004016
      f+1     :     0.000495
      f-1     :     0.000817
      f+2     :     0.000440
      f-2     :     0.000407
      f+3     :     0.000806
      f-3     :     0.000485
 10 H s       :     0.626632  s :     0.626632
      pz      :     0.018386  p :     0.046760
      px      :     0.015361
      py      :     0.013013
 11 H s       :     0.562215  s :     0.562215
      pz      :     0.010299  p :     0.055614
      px      :     0.016251
      py      :     0.029064
 12 O s       :     3.798918  s :     3.798918
      pz      :     1.585117  p :     4.868879
      px      :     1.451751
      py      :     1.832011
      dz2     :     0.016710  d :     0.052481
      dxz     :     0.008255
      dyz     :     0.007940
      dx2y2   :     0.009089
      dxy     :     0.010486
      f0      :     0.000536  f :     0.003969
      f+1     :     0.000824
      f-1     :     0.000490
      f+2     :     0.000433
      f-2     :     0.000406
      f+3     :     0.000476
      f-3     :     0.000805
 13 H s       :     0.562260  s :     0.562260
      pz      :     0.024945  p :     0.049876
      px      :     0.011462
      py      :     0.013469
 14 H s       :     0.599418  s :     0.599418
      pz      :     0.010938  p :     0.044431
      px      :     0.018557
      py      :     0.014936


                     *******************************
                     * LOEWDIN POPULATION ANALYSIS *
                     *******************************

----------------------
LOEWDIN ATOMIC CHARGES
----------------------
   0 O :   -0.339503
   1 H :    0.154193
   2 H :    0.184191
   3 O :   -0.311349
   4 H :    0.161808
   5 H :    0.185853
   6 O :   -0.335942
   7 H :    0.156277
   8 H :    0.181050
   9 O :   -0.364033
  10 H :    0.153390
  11 H :    0.149666
  12 O :   -0.303899
  13 H :    0.155260
  14 H :    0.173040

-------------------------------
LOEWDIN REDUCED ORBITAL CHARGES
-------------------------------
  0 O s       :     3.471487  s :     3.471487
      pz      :     1.695061  p :     4.803301
      px      :     1.346087
      py      :     1.762154
      dz2     :     0.010419  d :     0.059860
      dxz     :     0.012920
      dyz     :     0.011567
      dx2y2   :     0.009332
      dxy     :     0.015621
      f0      :     0.000455  f :     0.004855
      f+1     :     0.000866
      f-1     :     0.000659
      f+2     :     0.000408
      f-2     :     0.001036
      f+3     :     0.000473
      f-3     :     0.000957
  1 H s       :     0.679882  s :     0.679882
      pz      :     0.067382  p :     0.165926
      px      :     0.044766
      py      :     0.053778
  2 H s       :     0.664771  s :     0.664771
      pz      :     0.034071  p :     0.151038
      px      :     0.072485
      py      :     0.044482
  3 O s       :     3.464535  s :     3.464535
      pz      :     1.670407  p :     4.781967
      px      :     1.348483
      py      :     1.763077
      dz2     :     0.010921  d :     0.060003
      dxz     :     0.012349
      dyz     :     0.011481
      dx2y2   :     0.009280
      dxy     :     0.015973
      f0      :     0.000470  f :     0.004843
      f+1     :     0.000855
      f-1     :     0.000657
      f+2     :     0.000409
      f-2     :     0.001014
      f+3     :     0.000473
      f-3     :     0.000966
  4 H s       :     0.671800  s :     0.671800
      pz      :     0.067567  p :     0.166392
      px      :     0.045024
      py      :     0.053802
  5 H s       :     0.662711  s :     0.662711
      pz      :     0.034136  p :     0.151436
      px      :     0.072724
      py      :     0.044576
  6 O s       :     3.471991  s :     3.471991
      pz      :     1.696114  p :     4.799014
      px      :     1.760972
      py      :     1.341929
      dz2     :     0.010425  d :     0.060065
      dxz     :     0.011563
      dyz     :     0.012676
      dx2y2   :     0.009412
      dxy     :     0.015989
      f0      :     0.000454  f :     0.004871
      f+1     :     0.000660
      f-1     :     0.000871
      f+2     :     0.000408
      f-2     :     0.001030
      f+3     :     0.000974
      f-3     :     0.000474
  7 H s       :     0.677867  s :     0.677867
      pz      :     0.067292  p :     0.165856
      px      :     0.053847
      py      :     0.044718
  8 H s       :     0.668509  s :     0.668509
      pz      :     0.034226  p :     0.150442
      px      :     0.044580
      py      :     0.071636
  9 O s       :     3.468318  s :     3.468318
      pz      :     1.525484  p :     4.832214
      px      :     1.829252
      py      :     1.477478
      dz2     :     0.020665  d :     0.058682
      dxz     :     0.007153
      dyz     :     0.009802
      dx2y2   :     0.009399
      dxy     :     0.011664
      f0      :     0.000810  f :     0.004820
      f+1     :     0.000581
      f-1     :     0.001192
      f+2     :     0.000418
      f-2     :     0.000418
      f+3     :     0.000958
      f-3     :     0.000443
 10 H s       :     0.684784  s :     0.684784
      pz      :     0.079697  p :     0.161825
      px      :     0.044529
      py      :     0.037599
 11 H s       :     0.662502  s :     0.662502
      pz      :     0.029660  p :     0.187833
      px      :     0.053441
      py      :     0.104732
 12 O s       :     3.460216  s :     3.460216
      pz      :     1.564002  p :     4.778859
      px      :     1.443749
      py      :     1.771109
      dz2     :     0.020321  d :     0.060010
      dxz     :     0.009255
      dyz     :     0.006937
      dx2y2   :     0.011118
      dxy     :     0.012379
      f0      :     0.000743  f :     0.004815
      f+1     :     0.001155
      f-1     :     0.000600
      f+2     :     0.000411
      f-2     :     0.000416
      f+3     :     0.000453
      f-3     :     0.001037
 13 H s       :     0.669445  s :     0.669445
      pz      :     0.095133  p :     0.175295
      px      :     0.036640
      py      :     0.043521
 14 H s       :     0.669643  s :     0.669643
      pz      :     0.031252  p :     0.157317
      px      :     0.075874
      py      :     0.050192


                      *****************************
                      * MAYER POPULATION ANALYSIS *
                      *****************************

  NA   - Mulliken gross atomic population
  ZA   - Total nuclear charge
  QA   - Mulliken gross atomic charge
  VA   - Mayer's total valence
  BVA  - Mayer's bonded valence
  FA   - Mayer's free valence

  ATOM       NA         ZA         QA         VA         BVA        FA
  0 O      8.7063     8.0000    -0.7063     2.0704     1.6829     0.3875
  1 H      0.6598     1.0000     0.3402     0.9034     0.8567     0.0467
  2 H      0.6346     1.0000     0.3654     0.8852     0.8377     0.0475
  3 O      8.7158     8.0000    -0.7158     2.0755     1.6859     0.3896
  4 H      0.6413     1.0000     0.3587     0.8904     0.8450     0.0454
  5 H      0.6330     1.0000     0.3670     0.8850     0.8372     0.0478
  6 O      8.6973     8.0000    -0.6973     2.0757     1.6891     0.3866
  7 H      0.6550     1.0000     0.3450     0.9000     0.8538     0.0462
  8 H      0.6467     1.0000     0.3533     0.8920     0.8437     0.0482
  9 O      8.7390     8.0000    -0.7390     2.0237     1.6334     0.3903
 10 H      0.6734     1.0000     0.3266     0.9121     0.8628     0.0493
 11 H      0.6178     1.0000     0.3822     0.8946     0.8489     0.0457
 12 O      8.7242     8.0000    -0.7242     2.0660     1.6758     0.3902
 13 H      0.6121     1.0000     0.3879     0.8805     0.8365     0.0440
 14 H      0.6438     1.0000     0.3562     0.8936     0.8457     0.0479

  Mayer bond orders larger than 0.100000
B(  0-O ,  1-H ) :   0.8512 B(  0-O ,  2-H ) :   0.8283 B(  3-O ,  4-H ) :   0.8379 
B(  3-O ,  5-H ) :   0.8253 B(  6-O ,  7-H ) :   0.8487 B(  6-O ,  8-H ) :   0.8382 
B(  9-O , 10-H ) :   0.8592 B(  9-O , 11-H ) :   0.7884 B( 12-O , 13-H ) :   0.8034 
B( 12-O , 14-H ) :   0.8352 


                *******************************************
                * RELAXED MP2 DENSITY POPULATION ANALYSIS *
                *******************************************

------------------------------------------------------------------------------
                           ORCA POPULATION ANALYSIS
------------------------------------------------------------------------------
Input electron density              ... 12h2o.su.etal.mol0,1,2,4,7-orca.engrad-mp2.def2tzvp.frozencore.pmp2re
BaseName (.gbw .S,...)              ... 12h2o.su.etal.mol0,1,2,4,7-orca.engrad-mp2.def2tzvp.frozencore

                    ********************************
                    * MULLIKEN POPULATION ANALYSIS *
                    ********************************

-----------------------
MULLIKEN ATOMIC CHARGES
-----------------------
   0 O :   -0.692615
   1 H :    0.334125
   2 H :    0.357507
   3 O :   -0.697605
   4 H :    0.352123
   5 H :    0.359661
   6 O :   -0.684223
   7 H :    0.338656
   8 H :    0.347226
   9 O :   -0.721328
  10 H :    0.320884
  11 H :    0.360444
  12 O :   -0.697166
  13 H :    0.373383
  14 H :    0.348930
Sum of atomic charges:   -0.0000000

--------------------------------
MULLIKEN REDUCED ORBITAL CHARGES
--------------------------------
  0 O s       :     3.814235  s :     3.814235
      pz      :     1.704124  p :     4.824883
      px      :     1.346006
      py      :     1.774752
      dz2     :     0.009548  d :     0.049486
      dxz     :     0.009594
      dyz     :     0.010858
      dx2y2   :     0.007582
      dxy     :     0.011905
      f0      :     0.000456  f :     0.004011
      f+1     :     0.000685
      f-1     :     0.000547
      f+2     :     0.000435
      f-2     :     0.000700
      f+3     :     0.000463
      f-3     :     0.000725
  1 H s       :     0.617572  s :     0.617572
      pz      :     0.018002  p :     0.048303
      px      :     0.013876
      py      :     0.016425
  2 H s       :     0.598325  s :     0.598325
      pz      :     0.012921  p :     0.044169
      px      :     0.016851
      py      :     0.014396
  3 O s       :     3.810553  s :     3.810553
      pz      :     1.697265  p :     4.833762
      px      :     1.351382
      py      :     1.785115
      dz2     :     0.009256  d :     0.049296
      dxz     :     0.009082
      dyz     :     0.010915
      dx2y2   :     0.007603
      dxy     :     0.012439
      f0      :     0.000452  f :     0.003995
      f+1     :     0.000671
      f-1     :     0.000543
      f+2     :     0.000437
      f-2     :     0.000692
      f+3     :     0.000466
      f-3     :     0.000734
  4 H s       :     0.600190  s :     0.600190
      pz      :     0.017661  p :     0.047688
      px      :     0.013801
      py      :     0.016226
  5 H s       :     0.596582  s :     0.596582
      pz      :     0.012353  p :     0.043757
      px      :     0.016780
      py      :     0.014624
  6 O s       :     3.813269  s :     3.813269
      pz      :     1.703967  p :     4.817456
      px      :     1.776742
      py      :     1.336747
      dz2     :     0.009411  d :     0.049480
      dxz     :     0.010911
      dyz     :     0.009431
      dx2y2   :     0.007585
      dxy     :     0.012142
      f0      :     0.000456  f :     0.004018
      f+1     :     0.000548
      f-1     :     0.000684
      f+2     :     0.000436
      f-2     :     0.000702
      f+3     :     0.000729
      f-3     :     0.000464
  7 H s       :     0.613102  s :     0.613102
      pz      :     0.017792  p :     0.048242
      px      :     0.016510
      py      :     0.013939
  8 H s       :     0.608286  s :     0.608286
      pz      :     0.013096  p :     0.044488
      px      :     0.014661
      py      :     0.016732
  9 O s       :     3.807268  s :     3.807268
      pz      :     1.502444  p :     4.860563
      px      :     1.862002
      py      :     1.496117
      dz2     :     0.015242  d :     0.049548
      dxz     :     0.008059
      dyz     :     0.007992
      dx2y2   :     0.008251
      dxy     :     0.010003
      f0      :     0.000554  f :     0.003949
      f+1     :     0.000489
      f-1     :     0.000789
      f+2     :     0.000440
      f-2     :     0.000406
      f+3     :     0.000788
      f-3     :     0.000483
 10 H s       :     0.631551  s :     0.631551
      pz      :     0.017723  p :     0.047566
      px      :     0.016381
      py      :     0.013462
 11 H s       :     0.583599  s :     0.583599
      pz      :     0.010983  p :     0.055958
      px      :     0.016802
      py      :     0.028173
 12 O s       :     3.799809  s :     3.799809
      pz      :     1.581533  p :     4.842972
      px      :     1.444885
      py      :     1.816553
      dz2     :     0.015655  d :     0.050488
      dxz     :     0.008021
      dyz     :     0.007997
      dx2y2   :     0.008801
      dxy     :     0.010015
      f0      :     0.000523  f :     0.003897
      f+1     :     0.000796
      f-1     :     0.000484
      f+2     :     0.000433
      f-2     :     0.000404
      f+3     :     0.000474
      f-3     :     0.000783
 13 H s       :     0.576191  s :     0.576191
      pz      :     0.024288  p :     0.050426
      px      :     0.011784
      py      :     0.014354
 14 H s       :     0.605936  s :     0.605936
      pz      :     0.011713  p :     0.045134
      px      :     0.017719
      py      :     0.015702


                     *******************************
                     * LOEWDIN POPULATION ANALYSIS *
                     *******************************

----------------------
LOEWDIN ATOMIC CHARGES
----------------------
   0 O :   -0.342425
   1 H :    0.156048
   2 H :    0.185040
   3 O :   -0.309833
   4 H :    0.163575
   5 H :    0.186872
   6 O :   -0.339153
   7 H :    0.158016
   8 H :    0.182824
   9 O :   -0.366692
  10 H :    0.155293
  11 H :    0.142740
  12 O :   -0.297880
  13 H :    0.151330
  14 H :    0.174245

-------------------------------
LOEWDIN REDUCED ORBITAL CHARGES
-------------------------------
  0 O s       :     3.473622  s :     3.473622
      pz      :     1.694169  p :     4.805427
      px      :     1.350968
      py      :     1.760290
      dz2     :     0.010240  d :     0.058501
      dxz     :     0.012512
      dyz     :     0.011510
      dx2y2   :     0.009090
      dxy     :     0.015150
      f0      :     0.000458  f :     0.004875
      f+1     :     0.000873
      f-1     :     0.000659
      f+2     :     0.000409
      f-2     :     0.001035
      f+3     :     0.000476
      f-3     :     0.000965
  1 H s       :     0.677966  s :     0.677966
      pz      :     0.067588  p :     0.165986
      px      :     0.044019
      py      :     0.054379
  2 H s       :     0.663913  s :     0.663913
      pz      :     0.034849  p :     0.151047
      px      :     0.070983
      py      :     0.045215
  3 O s       :     3.466464  s :     3.466464
      pz      :     1.665185  p :     4.779728
      px      :     1.353462
      py      :     1.761081
      dz2     :     0.010829  d :     0.058778
      dxz     :     0.011975
      dyz     :     0.011448
      dx2y2   :     0.009052
      dxy     :     0.015475
      f0      :     0.000473  f :     0.004862
      f+1     :     0.000862
      f-1     :     0.000657
      f+2     :     0.000410
      f-2     :     0.001014
      f+3     :     0.000476
      f-3     :     0.000971
  4 H s       :     0.670186  s :     0.670186
      pz      :     0.067583  p :     0.166239
      px      :     0.044226
      py      :     0.054430
  5 H s       :     0.661685  s :     0.661685
      pz      :     0.034812  p :     0.151443
      px      :     0.071279
      py      :     0.045352
  6 O s       :     3.474076  s :     3.474076
      pz      :     1.695309  p :     4.801514
      px      :     1.759158
      py      :     1.347047
      dz2     :     0.010235  d :     0.058672
      dxz     :     0.011497
      dyz     :     0.012276
      dx2y2   :     0.009176
      dxy     :     0.015488
      f0      :     0.000457  f :     0.004891
      f+1     :     0.000660
      f-1     :     0.000879
      f+2     :     0.000408
      f-2     :     0.001029
      f+3     :     0.000981
      f-3     :     0.000477
  7 H s       :     0.676103  s :     0.676103
      pz      :     0.067408  p :     0.165881
      px      :     0.054525
      py      :     0.043949
  8 H s       :     0.666623  s :     0.666623
      pz      :     0.034978  p :     0.150553
      px      :     0.045375
      py      :     0.070200
  9 O s       :     3.469932  s :     3.469932
      pz      :     1.527050  p :     4.834176
      px      :     1.826851
      py      :     1.480275
      dz2     :     0.020059  d :     0.057733
      dxz     :     0.007202
      dyz     :     0.009550
      dx2y2   :     0.009362
      dxy     :     0.011560
      f0      :     0.000807  f :     0.004851
      f+1     :     0.000581
      f-1     :     0.001206
      f+2     :     0.000420
      f-2     :     0.000416
      f+3     :     0.000974
      f-3     :     0.000446
 10 H s       :     0.682444  s :     0.682444
      pz      :     0.079115  p :     0.162264
      px      :     0.045453
      py      :     0.037695
 11 H s       :     0.668857  s :     0.668857
      pz      :     0.030061  p :     0.188404
      px      :     0.054165
      py      :     0.104178
 12 O s       :     3.461399  s :     3.461399
      pz      :     1.565108  p :     4.772559
      px      :     1.446558
      py      :     1.760892
      dz2     :     0.019865  d :     0.059088
      dxz     :     0.009055
      dyz     :     0.007014
      dx2y2   :     0.010988
      dxy     :     0.012166
      f0      :     0.000743  f :     0.004834
      f+1     :     0.001163
      f-1     :     0.000601
      f+2     :     0.000413
      f-2     :     0.000414
      f+3     :     0.000456
      f-3     :     0.001044
 13 H s       :     0.673080  s :     0.673080
      pz      :     0.094637  p :     0.175590
      px      :     0.036671
      py      :     0.044282
 14 H s       :     0.668309  s :     0.668309
      pz      :     0.031862  p :     0.157446
      px      :     0.074817
      py      :     0.050766


                      *****************************
                      * MAYER POPULATION ANALYSIS *
                      *****************************

  NA   - Mulliken gross atomic population
  ZA   - Total nuclear charge
  QA   - Mulliken gross atomic charge
  VA   - Mayer's total valence
  BVA  - Mayer's bonded valence
  FA   - Mayer's free valence

  ATOM       NA         ZA         QA         VA         BVA        FA
  0 O      8.6926     8.0000    -0.6926     2.0760     1.6934     0.3826
  1 H      0.6659     1.0000     0.3341     0.9077     0.8610     0.0468
  2 H      0.6425     1.0000     0.3575     0.8925     0.8450     0.0475
  3 O      8.6976     8.0000    -0.6976     2.0976     1.7136     0.3840
  4 H      0.6479     1.0000     0.3521     0.8954     0.8499     0.0454
  5 H      0.6403     1.0000     0.3597     0.8925     0.8448     0.0477
  6 O      8.6842     8.0000    -0.6842     2.0808     1.6990     0.3818
  7 H      0.6613     1.0000     0.3387     0.9045     0.8582     0.0463
  8 H      0.6528     1.0000     0.3472     0.8967     0.8484     0.0483
  9 O      8.7213     8.0000    -0.7213     2.0288     1.6433     0.3855
 10 H      0.6791     1.0000     0.3209     0.9153     0.8659     0.0494
 11 H      0.6396     1.0000     0.3604     0.9232     0.8783     0.0449
 12 O      8.6972     8.0000    -0.6972     2.1023     1.7182     0.3841
 13 H      0.6266     1.0000     0.3734     0.9006     0.8569     0.0437
 14 H      0.6511     1.0000     0.3489     0.9005     0.8526     0.0479

  Mayer bond orders larger than 0.100000
B(  0-O ,  1-H ) :   0.8553 B(  0-O ,  2-H ) :   0.8327 B(  3-O ,  4-H ) :   0.8416 
B(  3-O ,  5-H ) :   0.8286 B(  6-O ,  7-H ) :   0.8529 B(  6-O ,  8-H ) :   0.8423 
B(  9-O , 10-H ) :   0.8621 B(  9-O , 11-H ) :   0.7900 B( 12-O , 13-H ) :   0.8076 
B( 12-O , 14-H ) :   0.8379 


----------------------------------
MP2 DERIVATIVE INTEGRAL GENERATION
----------------------------------


Input Wavefunction Amplitudes       ... 12h2o.su.etal.mol0,1,2,4,7-orca.engrad-mp2.def2tzvp.frozencore.mp2tsaa.tmp
Input Correlated Electron Density   ... 12h2o.su.etal.mol0,1,2,4,7-orca.engrad-mp2.def2tzvp.frozencore.pmp2re
Input Energy Weighted Density       ... 12h2o.su.etal.mol0,1,2,4,7-orca.engrad-mp2.def2tzvp.frozencore.wmp2.tmp
Input SCF Electron Density          ... 12h2o.su.etal.mol0,1,2,4,7-orca.engrad-mp2.def2tzvp.frozencore.scfp

One-Electron Terms    ...
                        ... One-Electron Terms done
Prescreening matrices              ... done

Batch handling in the gradient evaluation:
Memory available                      ... 8000.0 MB
Memory per occupied orbital in Q2     ...    7.1 MB
Memory per occupied orbital in Q3     ...    0.1 MB
Total memory requirement per |i>      ...    7.1 MB
Max. Number of orbitals possible      ...   1121
Number of orbitals treated per batch  ...     20
Number of batches to be done          ...      1
Batch   0: i=    5 ...    24

---------------------------------------
MP2 TOTAL ENERGY:     -381.582789748 Eh
---------------------------------------

The final MP2 gradient
  0:   0.02667544  -0.00518932  -0.00201803
  1:   0.00269857  -0.00200674  -0.00082872
  2:  -0.02808744   0.00797787   0.00400890
  3:  -0.02541377   0.01007902   0.00083275
  4:  -0.00138152   0.00177042  -0.00241304
  5:   0.02632750  -0.01094770  -0.00079361
  6:  -0.00815846  -0.02688483  -0.00130325
  7:  -0.00176892  -0.00255684   0.00106052
  8:   0.01010545   0.02925569  -0.00095756
  9:   0.00390236   0.00016036   0.00988070
 10:  -0.00163475   0.00337011  -0.01049448
 11:  -0.00294938  -0.00712391   0.00085183
 12:  -0.01448322   0.00954293  -0.00234310
 13:  -0.00246179  -0.00168530   0.00037795
 14:   0.01662993  -0.00576176   0.00413914

-----------------------------------
NORM OF THE MP2 GRADIENT:  0.076786
-----------------------------------

-------------------------   --------------------
FINAL SINGLE POINT ENERGY      -381.582789747784
-------------------------   --------------------


                            ***************************************
                            *     ORCA property calculations      *
                            ***************************************

                                    ---------------------
                                    Active property flags
                                    ---------------------
   (+) Dipole Moment


------------------------------------------------------------------------------
                       ORCA ELECTRIC PROPERTIES CALCULATION
------------------------------------------------------------------------------

Dipole Moment Calculation                       ... on
Quadrupole Moment Calculation                   ... off
Polarizability Calculation                      ... off
GBWName                                         ... 12h2o.su.etal.mol0,1,2,4,7-orca.engrad-mp2.def2tzvp.frozencore.gbw
Electron density file                           ... 12h2o.su.etal.mol0,1,2,4,7-orca.engrad-mp2.def2tzvp.frozencore.scfp
The origin for moment calculation is the CENTER OF MASS  = (-0.625222, -0.371309  1.062357)

-------------
DIPOLE MOMENT
-------------
                                X             Y             Z
Electronic contribution:     -0.19524      -0.17066       0.07976
Nuclear contribution   :      0.67960      -0.59936       0.63259
                        -----------------------------------------
Total Dipole Moment    :      0.48436      -0.77001       0.71235
                        -----------------------------------------
Magnitude (a.u.)       :      1.15541
Magnitude (Debye)      :      2.93681



--------------------
Rotational spectrum 
--------------------
 
Rotational constants in cm-1:     0.054109     0.030851     0.026216 
Rotational constants in MHz :  1622.153111   924.898995   785.947095 

 Dipole components along the rotational axes: 
x,y,z [a.u.] :     0.375618    -0.108428     1.087255 
x,y,z [Debye]:     0.954746    -0.275601     2.763582 

 

                         *** MP2 UNRELAXED DENSITY ***

------------------------------------------------------------------------------
                       ORCA ELECTRIC PROPERTIES CALCULATION
------------------------------------------------------------------------------

Dipole Moment Calculation                       ... on
Quadrupole Moment Calculation                   ... off
Polarizability Calculation                      ... off
GBWName                                         ... 12h2o.su.etal.mol0,1,2,4,7-orca.engrad-mp2.def2tzvp.frozencore.gbw
Electron density file                           ... 12h2o.su.etal.mol0,1,2,4,7-orca.engrad-mp2.def2tzvp.frozencore.pmp2ur
The origin for moment calculation is the CENTER OF MASS  = (-0.625222, -0.371309  1.062357)

-------------
DIPOLE MOMENT
-------------
                                X             Y             Z
Electronic contribution:     -0.20319      -0.16747       0.07458
Nuclear contribution   :      0.67960      -0.59936       0.63259
                        -----------------------------------------
Total Dipole Moment    :      0.47641      -0.76683       0.70718
                        -----------------------------------------
Magnitude (a.u.)       :      1.14677
Magnitude (Debye)      :      2.91486



--------------------
Rotational spectrum 
--------------------
 
Rotational constants in cm-1:     0.054109     0.030851     0.026216 
Rotational constants in MHz :  1622.153111   924.898995   785.947095 

 Dipole components along the rotational axes: 
x,y,z [a.u.] :     0.372512    -0.102626     1.079718 
x,y,z [Debye]:     0.946851    -0.260856     2.744424 

 

                           *** MP2 RELAXED DENSITY ***

------------------------------------------------------------------------------
                       ORCA ELECTRIC PROPERTIES CALCULATION
------------------------------------------------------------------------------

Dipole Moment Calculation                       ... on
Quadrupole Moment Calculation                   ... off
Polarizability Calculation                      ... off
GBWName                                         ... 12h2o.su.etal.mol0,1,2,4,7-orca.engrad-mp2.def2tzvp.frozencore.gbw
Electron density file                           ... 12h2o.su.etal.mol0,1,2,4,7-orca.engrad-mp2.def2tzvp.frozencore.pmp2re
The origin for moment calculation is the CENTER OF MASS  = (-0.625222, -0.371309  1.062357)

-------------
DIPOLE MOMENT
-------------
                                X             Y             Z
Electronic contribution:     -0.20911      -0.16971       0.06834
Nuclear contribution   :      0.67960      -0.59936       0.63259
                        -----------------------------------------
Total Dipole Moment    :      0.47049      -0.76906       0.70093
                        -----------------------------------------
Magnitude (a.u.)       :      1.14198
Magnitude (Debye)      :      2.90268



--------------------
Rotational spectrum 
--------------------
 
Rotational constants in cm-1:     0.054109     0.030851     0.026216 
Rotational constants in MHz :  1622.153111   924.898995   785.947095 

 Dipole components along the rotational axes: 
x,y,z [a.u.] :     0.366451    -0.096599     1.077265 
x,y,z [Debye]:     0.931445    -0.245534     2.738190 

 

Timings for individual modules:

Sum of individual times         ...       52.598 sec (=   0.877 min)
GTO integral calculation        ...        0.879 sec (=   0.015 min)   1.7 %
SCF iterations                  ...       14.419 sec (=   0.240 min)  27.4 %
MP2 module                      ...       37.299 sec (=   0.622 min)  70.9 %
                             ****ORCA TERMINATED NORMALLY****
TOTAL RUN TIME: 0 days 0 hours 0 minutes 53 seconds 468 msec
