
                                 *****************
                                 * O   R   C   A *
                                 *****************

           --- An Ab Initio, DFT and Semiempirical electronic structure package ---

                  #######################################################
                  #                        -***-                        #
                  #  Department of molecular theory and spectroscopy    #
                  #              Directorship: Frank Neese              #
                  # Max Planck Institute for Chemical Energy Conversion #
                  #                  D-45470 Muelheim/Ruhr              #
                  #                       Germany                       #
                  #                                                     #
                  #                  All rights reserved                #
                  #                        -***-                        #
                  #######################################################


                         Program Version 3.0.3 - RELEASE   -


 With contributions from (in alphabetic order):
   Ute Becker             : Parallelization
   Dmytro Bykov           : SCF Hessian
   Dmitry Ganyushin       : Spin-Orbit,Spin-Spin,Magnetic field MRCI
   Andreas Hansen         : Spin unrestricted coupled pair/coupled cluster methods
   Dimitrios Liakos       : Extrapolation schemes; parallel MDCI
   Robert Izsak           : Overlap fitted RIJCOSX, COSX-SCS-MP3
   Christian Kollmar      : KDIIS, OOCD, Brueckner-CCSD(T), CCSD density
   Simone Kossmann        : Meta GGA functionals, TD-DFT gradient, OOMP2, MP2 Hessian
   Taras Petrenko         : DFT Hessian,TD-DFT gradient, ASA and ECA modules, normal mode analysis, Resonance Raman, ABS, FL, XAS/XES, NRVS
   Christoph Reimann      : Effective Core Potentials
   Michael Roemelt        : Restricted open shell CIS
   Christoph Riplinger    : Improved optimizer, TS searches, QM/MM, DLPNO-CCSD
   Barbara Sandhoefer     : DKH picture change effects
   Igor Schapiro          : Molecular dynamics
   Kantharuban Sivalingam : CASSCF convergence, NEVPT2
   Boris Wezisla          : Elementary symmetry handling
   Frank Wennmohs         : Technical directorship


 We gratefully acknowledge several colleagues who have allowed us to
 interface, adapt or use parts of their codes:
   Stefan Grimme, W. Hujo, H. Kruse, T. Risthaus : VdW corrections, initial TS optimization,
                                                   DFT functionals, gCP
   Ed Valeev                                     : LibInt (2-el integral package), F12 methods
   Garnet Chan, S. Sharma, R. Olivares           : DMRG
   Ulf Ekstrom                                   : XCFun DFT Library
   Mihaly Kallay                                 : mrcc  (arbitrary order and MRCC methods)
   Andreas Klamt, Michael Diedenhofen            : otool_cosmo (COSMO solvation model)
   Frank Weinhold                                : gennbo (NPA and NBO analysis)
   Christopher J. Cramer and Donald G. Truhlar   : smd solvation model


 Your calculation uses the libint2 library for the computation of 2-el integrals
 For citations please refer to: http://libint.valeyev.net

 This ORCA versions uses:
   CBLAS   interface :  Fast vector & matrix operations
   LAPACKE interface :  Fast linear algebra routines
   SCALAPACK package :  Parallel linear algebra routines


Your calculation utilizes the basis: ma-def2-TZVP
Cite in your paper:
        def2-TZVP: F. Weigend, R. Ahlrichs, Phys. Chem. Chem. Phys. 2005, 7, 3297.
        Minimal augmentation of diffuse functions: J. Zheng, X. Xu, D. G. Truhlar, Theor. Chem. Acc. 2011, 128, 295.

Your calculation utilizes the atom-pairwise dispersion correction
with the zero-damping scheme (D30)
Cite in your paper:
S.Grimme, J.Antony, S.Ehrlich and H.Krieg, J.Chem.Phys., 132, (2010), 154104 
   

XCFun DFT library Copyright 2009-2010 Ulf Ekstrom and contributors.
See http://admol.org/xcfun for more information. This is free soft-
ware; see the source code for copying conditions. There is ABSOLUTELY
NO WARRANTY; not even for MERCHANTABILITY or FITNESS FOR A PARTICULAR
PURPOSE. For details see the documentation. Scientific users of this 
library should cite U. Ekstrom, L. Visscher, R. Bast, A. J. Thorvald-
sen and K. Ruud; J.Chem.Theor.Comp. 2010, DOI: 10.1021/ct100117s
XCFun Version 0.99 
================================================================================
                                        WARNINGS
                       Please study these warnings very carefully!
================================================================================
Now building the actual basis set


INFO   : the flag for use of LIBINT has been found!

================================================================================
                                       INPUT FILE
================================================================================
NAME = 3_wb98x-ma-def2-TZVP-GasPhase_onBP86_4_waters.inp
|  1> ! wB97X-D3 MA-Def2-TZVP def2-TZVP/J RIJCOSX TightSCF Grid4 
|  2> 
|  3> %pal nprocs 1 end
|  4> 
|  5> %scf
|  6>         maxiter 400
|  7> end
|  8> 
|  9> * xyz  0  1
| 10> O  1.742989	-0.547808	-0.356012
| 11> H  2.381645	0.102124	-0.703683
| 12> H  0.949081	-0.458314	-0.986364
| 13> O  -0.454856	-0.283420	-1.800847
| 14> H  -0.788266	-1.184648	-1.966945
| 15> H  -1.047046	0.057965	-1.048242
| 16> O  -1.743420	0.547024	0.356353
| 17> H  -0.949224	0.458284	0.986451
| 18> H  -2.381244	-0.103691	0.704094
| 19> O  0.454921	0.284485	1.800779
| 20> H  1.046780	-0.057795	1.048325
| 21> H  0.788610	1.185788	1.965889
| 22> **                         ****END OF INPUT****
================================================================================

                       ****************************
                       * Single Point Calculation *
                       ****************************

---------------------------------
CARTESIAN COORDINATES (ANGSTROEM)
---------------------------------
  O      1.742989   -0.547808   -0.356012
  H      2.381645    0.102124   -0.703683
  H      0.949081   -0.458314   -0.986364
  O     -0.454856   -0.283420   -1.800847
  H     -0.788266   -1.184648   -1.966945
  H     -1.047046    0.057965   -1.048242
  O     -1.743420    0.547024    0.356353
  H     -0.949224    0.458284    0.986451
  H     -2.381244   -0.103691    0.704094
  O      0.454921    0.284485    1.800779
  H      1.046780   -0.057795    1.048325
  H      0.788610    1.185788    1.965889

----------------------------
CARTESIAN COORDINATES (A.U.)
----------------------------
  NO LB      ZA    FRAG    MASS        X           Y           Z
   0 O     8.0000    0    15.999          3.293771864437268         -1.035207093971133         -0.672765180389573
   1 H     1.0000    0     1.008          4.500656798222879          0.192986391700574         -1.329768155096108
   2 H     1.0000    0     1.008          1.793503168908115         -0.866087943341985         -1.863957828359101
   3 O     8.0000    0    15.999         -0.859553270370885         -0.535586180875961         -3.403107639093685
   4 H     1.0000    0     1.008         -1.489606860681569         -2.238660285097543         -3.716987370485736
   5 H     1.0000    0     1.008         -1.978630189617711          0.109537975352745         -1.980890302073880
   6 O     8.0000    0    15.999         -3.294586336400989          1.033725548682139          0.673409577001240
   7 H     1.0000    0     1.008         -1.793773399745266          0.866031251557967          1.864122234532753
   8 H     1.0000    0     1.008         -4.499899018043177         -0.195947592552429          1.330544832537150
   9 O     8.0000    0    15.999          0.859676102569590          0.537598739208587          3.402979137716577
  10 H     1.0000    0     1.008          1.978127522466088         -0.109216721909979          1.981047149342996
  11 H     1.0000    0     1.008          1.490256926471638          2.240814572890213          3.714991819688315

--------------------------------
INTERNAL COORDINATES (ANGSTROEM)
--------------------------------
 O      0   0   0   0.000000     0.000     0.000
 H      1   0   0   0.975279     0.000     0.000
 H      1   2   0   1.017665   103.382     0.000
 O      3   1   2   1.632486   171.637   233.113
 H      4   3   1   0.975173   106.260   264.275
 H      4   3   1   1.016684    99.647    11.748
 O      6   4   3   1.642255   168.554   353.498
 H      7   6   4   1.017667    99.943     4.924
 H      7   6   4   0.975281   112.555   255.823
 O      8   7   6   1.632470   171.649    10.572
 H     10   8   7   1.016681    99.635   348.233
 H     10   8   7   0.975170   106.283    95.710

---------------------------
INTERNAL COORDINATES (A.U.)
---------------------------
 O      0   0   0   0.000000     0.000     0.000
 H      1   0   0   1.843009     0.000     0.000
 H      1   2   0   1.923109   103.382     0.000
 O      3   1   2   3.084951   171.637   233.113
 H      4   3   1   1.842810   106.260   264.275
 H      4   3   1   1.921255    99.647    11.748
 O      6   4   3   3.103413   168.554   353.498
 H      7   6   4   1.923111    99.943     4.924
 H      7   6   4   1.843014   112.555   255.823
 O      8   7   6   3.084922   171.649    10.572
 H     10   8   7   1.921248    99.635   348.233
 H     10   8   7   1.842804   106.283    95.710

---------------------
BASIS SET INFORMATION
---------------------
There are 2 groups of distinct atoms

 Group   1 Type O   : 12s7p2d1f contracted to 6s4p2d1f pattern {621111/4111/11/1}
 Group   2 Type H   : 5s1p contracted to 3s1p pattern {311/1}

Atom   0O    basis set group =>   1
Atom   1H    basis set group =>   2
Atom   2H    basis set group =>   2
Atom   3O    basis set group =>   1
Atom   4H    basis set group =>   2
Atom   5H    basis set group =>   2
Atom   6O    basis set group =>   1
Atom   7H    basis set group =>   2
Atom   8H    basis set group =>   2
Atom   9O    basis set group =>   1
Atom  10H    basis set group =>   2
Atom  11H    basis set group =>   2
-------------------------------
AUXILIARY BASIS SET INFORMATION
-------------------------------
There are 2 groups of distinct atoms

 Group   1 Type O   : 12s5p4d2f1g contracted to 6s4p3d1f1g pattern {711111/2111/211/2/1}
 Group   2 Type H   : 5s2p1d contracted to 3s1p1d pattern {311/2/1}

Atom   0O    basis set group =>   1
Atom   1H    basis set group =>   2
Atom   2H    basis set group =>   2
Atom   3O    basis set group =>   1
Atom   4H    basis set group =>   2
Atom   5H    basis set group =>   2
Atom   6O    basis set group =>   1
Atom   7H    basis set group =>   2
Atom   8H    basis set group =>   2
Atom   9O    basis set group =>   1
Atom  10H    basis set group =>   2
Atom  11H    basis set group =>   2
------------------------------------------------------------------------------
                           ORCA GTO INTEGRAL CALCULATION
                           -- RI-GTO INTEGRALS CHOSEN --
------------------------------------------------------------------------------

                         BASIS SET STATISTICS AND STARTUP INFO

Gaussian basis set:
 # of primitive gaussian shells          ...  136
 # of primitive gaussian functions       ...  264
 # of contracted shells                  ...   84
 # of contracted basis functions         ...  188
 Highest angular momentum                ...    3
 Maximum contraction depth               ...    6
Auxiliary gaussian basis set:
 # of primitive gaussian shells          ...  160
 # of primitive gaussian functions       ...  408
 # of contracted shells                  ...  100
 # of contracted aux-basis functions     ...  284
 Highest angular momentum                ...    4
 Maximum contraction depth               ...    7
Ratio of auxiliary to basis functions    ...  1.51
Integral package used                  ... LIBINT
 One Electron integrals                  ... done
 Ordering auxiliary basis shells         ... done
 Integral threshhold             Thresh  ...  2.500e-11
 Primitive cut-off               TCut    ...  2.500e-12
 Pre-screening matrix                    ... done
 Shell pair data                         ... 
 Ordering of the shell pairs             ... done (   0.000 sec) 3342 of 3570 pairs
 Determination of significant pairs      ... done (   0.000 sec)
 Creation of shell pair data             ... done (   0.001 sec)
 Storage of shell pair data              ... done (   0.000 sec)
 Shell pair data done in (   0.002 sec)
 Computing two index integrals           ... done
 Cholesky decomposition of the V-matrix  ... done


Timings:
 Total evaluation time                   ...   0.123 sec (  0.002 min)
 One electron matrix time                ...   0.014 sec (  0.000 min) = 11.5%
 Schwartz matrix evaluation time         ...   0.091 sec (  0.002 min) = 74.3%
 Two index repulsion integral time       ...   0.002 sec (  0.000 min) =  1.4%
 Cholesky decomposition of V             ...   0.001 sec (  0.000 min) =  1.2%
 Three index repulsion integral time     ...   0.000 sec (  0.000 min) =  0.0%

-------------------------------------------------------------------------------
                                 ORCA SCF
-------------------------------------------------------------------------------

------------
SCF SETTINGS
------------
Hamiltonian:
 Density Functional     Method          .... DFT(GTOs)
 Exchange Functional    Exchange        .... WB97X-D3
 Correlation Functional Correlation     .... WB97X-D3
 Gradients option       PostSCFGGA      .... off
 Hybrid DFT is turned on
   Fraction HF Exchange ScalHFX         ....  0.195728
   Scaling of DF-GGA-X  ScalDFX         ....  0.000000
   Scaling of DF-GGA-C  ScalDFC         ....  1.000000
   Scaling of DF-LDA-C  ScalLDAC        ....  1.000000
   Perturbative correction              ....  0.000000
 Long-range corrected/Screened/Range-Separated Hybrid DFT is turned on
   Amount of maximum screened exact exchange              ....  0.804272
   Range separation parameter mu (erf(mu*r12)/r12)        ....  0.250000
 RI-approximation to the Coulomb term is turned on
   Number of auxiliary basis functions  .... 284
   RIJ-COSX (HFX calculated with COS-X)).... on


General Settings:
 Integral files         IntName         .... 3_wb98x-ma-def2-TZVP-GasPhase_onBP86_4_waters
 Hartree-Fock type      HFTyp           .... RHF
 Total Charge           Charge          ....    0
 Multiplicity           Mult            ....    1
 Number of Electrons    NEL             ....   40
 Basis Dimension        Dim             ....  188
 Nuclear Repulsion      ENuc            ....    145.4281652148 Eh

Convergence Acceleration:
 DIIS                   CNVDIIS         .... on
   Start iteration      DIISMaxIt       ....    12
   Startup error        DIISStart       ....  0.200000
   # of expansion vecs  DIISMaxEq       ....     5
   Bias factor          DIISBfac        ....   1.050
   Max. coefficient     DIISMaxC        ....  10.000
 Newton-Raphson         CNVNR           .... off
 SOSCF                  CNVSOSCF        .... on
   Start iteration      SOSCFMaxIt      ....   150
   Startup grad/error   SOSCFStart      ....  0.003300
 Level Shifting         CNVShift        .... on
   Level shift para.    LevelShift      ....    0.2500
   Turn off err/grad.   ShiftErr        ....    0.0010
 Zerner damping         CNVZerner       .... off
 Static damping         CNVDamp         .... on
   Fraction old density DampFac         ....    0.7000
   Max. Damping (<1)    DampMax         ....    0.9800
   Min. Damping (>=0)   DampMin         ....    0.0000
   Turn off err/grad.   DampErr         ....    0.1000
 Fernandez-Rico         CNVRico         .... off

SCF Procedure:
 Maximum # iterations   MaxIter         ....   400
 SCF integral mode      SCFMode         .... Direct
   Integral package                     .... LIBINT
 Reset frequeny         DirectResetFreq ....    20
 Integral Threshold     Thresh          ....  2.500e-11 Eh
 Primitive CutOff       TCut            ....  2.500e-12 Eh

Convergence Tolerance:
 Convergence Check Mode ConvCheckMode   .... Total+1el-Energy
 Energy Change          TolE            ....  1.000e-08 Eh
 1-El. energy change                    ....  1.000e-05 Eh
 Orbital Gradient       TolG            ....  1.000e-05
 Orbital Rotation angle TolX            ....  1.000e-05
 DIIS Error             TolErr          ....  5.000e-07


Diagonalization of the overlap matrix:
Smallest eigenvalue                        ... 9.492e-04
Time for diagonalization                   ...    0.005 sec
Threshold for overlap eigenvalues          ... 1.000e-08
Number of eigenvalues below threshold      ... 0
Time for construction of square roots      ...    0.001 sec
Total time needed                          ...    0.006 sec

-------------------
DFT GRID GENERATION
-------------------

General Integration Accuracy     IntAcc      ...  4.670
Radial Grid Type                 RadialGrid  ... Gauss-Chebyshev
Angular Grid (max. acc.)         AngularGrid ... Lebedev-302
Angular grid pruning method      GridPruning ... 3 (G Style)
Weight generation scheme         WeightScheme... Becke
Basis function cutoff            BFCut       ...    1.0000e-11
Integration weight cutoff        WCut        ...    1.0000e-14
Grids for H and He will be reduced by one unit

# of grid points (after initial pruning)     ...  52000 (   0.0 sec)
# of grid points (after weights+screening)   ...  48984 (   0.1 sec)
nearest neighbour list constructed           ...    0.0 sec
Grid point re-assignment to atoms done       ...    0.0 sec
Grid point division into batches done        ...    0.1 sec
Reduced shell lists constructed in    0.7 sec

Total number of grid points                  ...    48984
Total number of batches                      ...      773
Average number of points per batch           ...       63
Average number of grid points per atom       ...     4082
Average number of shells per batch           ...    55.43 (65.99%)
Average number of basis functions per batch  ...   117.53 (62.51%)
Average number of large shells per batch     ...    44.37 (80.05%)
Average number of large basis fcns per batch ...    90.73 (77.20%)
Maximum spatial batch extension              ...  16.40, 16.88, 17.04 au
Average spatial batch extension              ...   2.41,  2.50,  2.53 au

Time for grid setup =    0.809 sec

------------------------------
INITIAL GUESS: MODEL POTENTIAL
------------------------------
Loading Hartree-Fock densities                     ... done
Calculating cut-offs                               ... done
Setting up the integral package                    ... done
Initializing the effective Hamiltonian             ... done
Starting the Coulomb interaction                   ... done (   0.1 sec)
Reading the grid                                   ... done
Mapping shells                                     ... done
Starting the XC term evaluation                    ... done (   0.8 sec)
  promolecular density results
     # of electrons  =     39.996055322
     EX              =    -34.947735292
     EC              =     -1.298572977
     EX+EC           =    -36.246308269
Transforming the Hamiltonian                       ... done (   0.0 sec)
Diagonalizing the Hamiltonian                      ... done (   0.0 sec)
Back transforming the eigenvectors                 ... done (   0.0 sec)
Now organizing SCF variables                       ... done
                      ------------------
                      INITIAL GUESS DONE (   1.8 sec)
                      ------------------
--------------------
COSX GRID GENERATION
--------------------

General Integration Accuracy     IntAcc      ...  3.340
Radial Grid Type                 RadialGrid  ... Gauss-Chebyshev
Angular Grid (max. acc.)         AngularGrid ... Lebedev-50
Angular grid pruning method      GridPruning ... 3 (G Style)
Weight generation scheme         WeightScheme... Becke
Basis function cutoff            BFCut       ...    1.0000e-11
Integration weight cutoff        WCut        ...    1.0000e-14
Grids for H and He will be reduced by one unit

# of grid points (after initial pruning)     ...   4880 (   0.0 sec)
# of grid points (after weights+screening)   ...   4646 (   0.0 sec)
nearest neighbour list constructed           ...    0.0 sec
Grid point re-assignment to atoms done       ...    0.0 sec
Grid point division into batches done        ...    0.0 sec
Reduced shell lists constructed in    0.1 sec

Total number of grid points                  ...     4646
Total number of batches                      ...       78
Average number of points per batch           ...       59
Average number of grid points per atom       ...      387
Average number of shells per batch           ...    63.82 (75.98%)
Average number of basis functions per batch  ...   139.75 (74.33%)
Average number of large shells per batch     ...    51.73 (81.06%)
Average number of large basis fcns per batch ...   108.11 (77.36%)
Maximum spatial batch extension              ...  15.05, 17.24, 17.81 au
Average spatial batch extension              ...   5.15,  5.30,  5.34 au

Overlap Fitting                  UseSFitting ... on
Constructing numerical overlap ... done (      0.0 sec)
Inverting numerical overlap    ... done (      0.0 sec)
Obtaining analytic overlap     ... done (      0.0 sec)
Final contraction and storage  ... done (      0.0 sec)


General Integration Accuracy     IntAcc      ...  3.670
Radial Grid Type                 RadialGrid  ... Gauss-Chebyshev
Angular Grid (max. acc.)         AngularGrid ... Lebedev-50
Angular grid pruning method      GridPruning ... 3 (G Style)
Weight generation scheme         WeightScheme... Becke
Basis function cutoff            BFCut       ...    1.0000e-11
Integration weight cutoff        WCut        ...    1.0000e-14
Grids for H and He will be reduced by one unit

# of grid points (after initial pruning)     ...   6408 (   0.0 sec)
# of grid points (after weights+screening)   ...   6079 (   0.0 sec)
nearest neighbour list constructed           ...    0.0 sec
Grid point re-assignment to atoms done       ...    0.0 sec
Grid point division into batches done        ...    0.0 sec
Reduced shell lists constructed in    0.1 sec

Total number of grid points                  ...     6079
Total number of batches                      ...      100
Average number of points per batch           ...       60
Average number of grid points per atom       ...      507
Average number of shells per batch           ...    62.77 (74.73%)
Average number of basis functions per batch  ...   136.97 (72.86%)
Average number of large shells per batch     ...    50.21 (79.98%)
Average number of large basis fcns per batch ...   104.05 (75.97%)
Maximum spatial batch extension              ...  15.50, 19.32, 19.89 au
Average spatial batch extension              ...   4.53,  4.70,  4.83 au

Overlap Fitting                  UseSFitting ... on
Constructing numerical overlap ... done (      0.1 sec)
Inverting numerical overlap    ... done (      0.0 sec)
Obtaining analytic overlap     ... done (      0.0 sec)
Final contraction and storage  ... done (      0.0 sec)


General Integration Accuracy     IntAcc      ...  4.010
Radial Grid Type                 RadialGrid  ... Gauss-Chebyshev
Angular Grid (max. acc.)         AngularGrid ... Lebedev-110
Angular grid pruning method      GridPruning ... 3 (G Style)
Weight generation scheme         WeightScheme... Becke
Basis function cutoff            BFCut       ...    1.0000e-11
Integration weight cutoff        WCut        ...    1.0000e-14
Grids for H and He will be reduced by one unit

# of grid points (after initial pruning)     ...  11032 (   0.0 sec)
# of grid points (after weights+screening)   ...  10513 (   0.0 sec)
nearest neighbour list constructed           ...    0.0 sec
Grid point re-assignment to atoms done       ...    0.0 sec
Grid point division into batches done        ...    0.0 sec
Reduced shell lists constructed in    0.1 sec

Total number of grid points                  ...    10513
Total number of batches                      ...      170
Average number of points per batch           ...       61
Average number of grid points per atom       ...      876
Average number of shells per batch           ...    61.12 (72.77%)
Average number of basis functions per batch  ...   132.34 (70.39%)
Average number of large shells per batch     ...    49.26 (80.59%)
Average number of large basis fcns per batch ...   102.11 (77.16%)
Maximum spatial batch extension              ...  17.32, 19.83, 17.18 au
Average spatial batch extension              ...   4.11,  4.30,  4.23 au

Overlap Fitting                  UseSFitting ... on
Constructing numerical overlap ... done (      0.1 sec)
Inverting numerical overlap    ... done (      0.0 sec)
Obtaining analytic overlap     ... done (      0.0 sec)
Final contraction and storage  ... done (      0.0 sec)

Time for X-Grid setup             =    0.585 sec
--------------
SCF ITERATIONS
--------------
ITER       Energy         Delta-E        Max-DP      RMS-DP      [F,P]     Damp
               ***  Starting incremental Fock matrix formation  ***
  0   -305.5139298065   0.000000000000 0.04041259  0.00145951  0.2918436 0.7000
  1   -305.6432352564  -0.129305449906 0.02403542  0.00101378  0.1464130 0.7000
                               ***Turning on DIIS***
  2   -305.6975208548  -0.054285598390 0.03621963  0.00165318  0.0568422 0.0000
  3   -305.7818073119  -0.084286457113 0.01697366  0.00065519  0.0723858 0.0000
  4   -305.7988299167  -0.017022604839 0.00447889  0.00014206  0.0092239 0.0000
                      *** Initiating the SOSCF procedure ***
                           *** Shutting down DIIS ***
                      *** Re-Reading the Fockian *** 
                      *** Removing any level shift *** 
ITER      Energy       Delta-E        Grad      Rot      Max-DP    RMS-DP
  5   -305.79914886  -0.0003189389  0.000427  0.000427  0.001476  0.000046
               *** Restarting incremental Fock matrix formation ***
  6   -305.79916719  -0.0000183297  0.000169  0.000327  0.000826  0.000026
  7   -305.79916862  -0.0000014322  0.000094  0.000144  0.000245  0.000010
  8   -305.79916894  -0.0000003210  0.000036  0.000033  0.000126  0.000004
  9   -305.79916896  -0.0000000225  0.000004  0.000007  0.000013  0.000000
 10   -305.79916896   0.0000000017  0.000005  0.000003  0.000005  0.000000
                 **** Energy Check signals convergence ****
              ***Rediagonalizing the Fockian in SOSCF/NRSCF***

               *****************************************************
               *                     SUCCESS                       *
               *           SCF CONVERGED AFTER  11 CYCLES          *
               *****************************************************

Setting up the final grid:

General Integration Accuracy     IntAcc      ...  5.010
Radial Grid Type                 RadialGrid  ... Gauss-Chebyshev
Angular Grid (max. acc.)         AngularGrid ... Lebedev-434
Angular grid pruning method      GridPruning ... 3 (G Style)
Weight generation scheme         WeightScheme... Becke
Basis function cutoff            BFCut       ...    1.0000e-11
Integration weight cutoff        WCut        ...    1.0000e-14
Grids for H and He will be reduced by one unit

# of grid points (after initial pruning)     ...  96904 (   0.0 sec)
# of grid points (after weights+screening)   ...  91046 (   0.1 sec)
nearest neighbour list constructed           ...    0.0 sec
Grid point re-assignment to atoms done       ...    0.0 sec
Grid point division into batches done        ...    0.4 sec
Reduced shell lists constructed in    1.6 sec

Total number of grid points                  ...    91046
Total number of batches                      ...     1430
Average number of points per batch           ...       63
Average number of grid points per atom       ...     7587
Average number of shells per batch           ...    53.96 (64.24%)
Average number of basis functions per batch  ...   113.87 (60.57%)
Average number of large shells per batch     ...    43.11 (79.89%)
Average number of large basis fcns per batch ...    88.05 (77.32%)
Maximum spatial batch extension              ...  13.95, 15.79, 16.95 au
Average spatial batch extension              ...   1.98,  2.02,  2.03 au

Final grid set up in    1.7 sec
Final integration                            ... done (   1.6 sec)
Change in XC energy                          ...    -0.000430149
Integrated number of electrons               ...    40.000056438
Previous integrated no of electrons          ...    39.999999149
Old exchange energy                            =    -11.310029132 Eh
New exchange energy                            =    -11.309677044 Eh
Exchange energy change after final integration =      0.000352088 Eh
Total energy after final integration           =   -305.799247024 Eh
Final COS-X integration done in                =     7.292 sec

----------------
TOTAL SCF ENERGY
----------------

Total Energy       :         -305.79924702 Eh           -8321.22055 eV

Components:
Nuclear Repulsion  :          145.42816521 Eh            3957.30156 eV
Electronic Energy  :         -451.22741224 Eh          -12278.52212 eV

One Electron Energy:         -709.68361267 Eh          -19311.47288 eV
Two Electron Energy:          258.45620043 Eh            7032.95076 eV

Virial components:
Potential Energy   :         -610.21118678 Eh          -16604.69056 eV
Kinetic Energy     :          304.41193976 Eh            8283.47000 eV
Virial Ratio       :            2.00455734


DFT components:
N(Alpha)           :       20.000028218944 electrons
N(Beta)            :       20.000028218944 electrons
N(Total)           :       40.000056437888 electrons
E(XC)              :      -25.944057905438 Eh       

---------------
SCF CONVERGENCE
---------------

  Last Energy change         ...   -3.7515e-09  Tolerance :   1.0000e-08
  Last MAX-Density change    ...    1.0080e-14  Tolerance :   1.0000e-07
  Last RMS-Density change    ...    1.4087e-16  Tolerance :   5.0000e-09
  Last Orbital Gradient      ...    3.4975e-07  Tolerance :   1.0000e-05
  Last Orbital Rotation      ...    7.6148e-07  Tolerance :   1.0000e-05

             **** THE GBW FILE WAS UPDATED (3_wb98x-ma-def2-TZVP-GasPhase_onBP86_4_waters.gbw) ****
             **** DENSITY FILE WAS UPDATED (3_wb98x-ma-def2-TZVP-GasPhase_onBP86_4_waters.scfp.tmp) ****
             **** ENERGY FILE WAS UPDATED (3_wb98x-ma-def2-TZVP-GasPhase_onBP86_4_waters.en.tmp) ****
----------------
ORBITAL ENERGIES
----------------

  NO   OCC          E(Eh)            E(eV) 
   0   2.0000     -19.238917      -523.5176 
   1   2.0000     -19.238913      -523.5174 
   2   2.0000     -19.238336      -523.5017 
   3   2.0000     -19.238325      -523.5014 
   4   2.0000      -1.142965       -31.1017 
   5   2.0000      -1.123626       -30.5754 
   6   2.0000      -1.122425       -30.5427 
   7   2.0000      -1.103504       -30.0279 
   8   2.0000      -0.643866       -17.5205 
   9   2.0000      -0.633346       -17.2342 
  10   2.0000      -0.625274       -17.0146 
  11   2.0000      -0.623076       -16.9548 
  12   2.0000      -0.539712       -14.6863 
  13   2.0000      -0.511082       -13.9072 
  14   2.0000      -0.502324       -13.6689 
  15   2.0000      -0.479955       -13.0602 
  16   2.0000      -0.423792       -11.5320 
  17   2.0000      -0.420541       -11.4435 
  18   2.0000      -0.416168       -11.3245 
  19   2.0000      -0.411042       -11.1850 
  20   0.0000       0.061461         1.6724 
  21   0.0000       0.095018         2.5856 
  22   0.0000       0.100999         2.7483 
  23   0.0000       0.128526         3.4974 
  24   0.0000       0.133502         3.6328 
  25   0.0000       0.151459         4.1214 
  26   0.0000       0.162296         4.4163 
  27   0.0000       0.167121         4.5476 
  28   0.0000       0.172001         4.6804 
  29   0.0000       0.184686         5.0256 
  30   0.0000       0.199738         5.4351 
  31   0.0000       0.203585         5.5398 
  32   0.0000       0.216736         5.8977 
  33   0.0000       0.238477         6.4893 
  34   0.0000       0.263545         7.1714 
  35   0.0000       0.267961         7.2916 
  36   0.0000       0.280495         7.6326 
  37   0.0000       0.291468         7.9312 
  38   0.0000       0.296295         8.0626 
  39   0.0000       0.345279         9.3955 
  40   0.0000       0.351017         9.5517 
  41   0.0000       0.357782         9.7358 
  42   0.0000       0.379497        10.3266 
  43   0.0000       0.394167        10.7258 
  44   0.0000       0.521212        14.1829 
  45   0.0000       0.527123        14.3437 
  46   0.0000       0.535967        14.5844 
  47   0.0000       0.565642        15.3919 
  48   0.0000       0.568132        15.4597 
  49   0.0000       0.605114        16.4660 
  50   0.0000       0.627651        17.0793 
  51   0.0000       0.644739        17.5442 
  52   0.0000       0.650699        17.7064 
  53   0.0000       0.678221        18.4553 
  54   0.0000       0.695001        18.9119 
  55   0.0000       0.712198        19.3799 
  56   0.0000       0.715603        19.4725 
  57   0.0000       0.724408        19.7121 
  58   0.0000       0.739267        20.1165 
  59   0.0000       0.807905        21.9842 
  60   0.0000       0.824264        22.4294 
  61   0.0000       0.833480        22.6802 
  62   0.0000       0.841162        22.8892 
  63   0.0000       0.870498        23.6875 
  64   0.0000       0.947447        25.7813 
  65   0.0000       0.958254        26.0754 
  66   0.0000       0.997387        27.1403 
  67   0.0000       1.034935        28.1620 
  68   0.0000       1.181577        32.1524 
  69   0.0000       1.209111        32.9016 
  70   0.0000       1.289170        35.0801 
  71   0.0000       1.294235        35.2179 
  72   0.0000       1.300042        35.3760 
  73   0.0000       1.305988        35.5377 
  74   0.0000       1.331153        36.2225 
  75   0.0000       1.456962        39.6460 
  76   0.0000       1.484306        40.3900 
  77   0.0000       1.491740        40.5923 
  78   0.0000       1.509754        41.0825 
  79   0.0000       1.520287        41.3691 
  80   0.0000       1.741509        47.3889 
  81   0.0000       1.751693        47.6660 
  82   0.0000       1.772799        48.2403 
  83   0.0000       1.782651        48.5084 
  84   0.0000       1.821637        49.5693 
  85   0.0000       1.830222        49.8029 
  86   0.0000       1.849494        50.3273 
  87   0.0000       1.897855        51.6433 
  88   0.0000       1.907484        51.9053 
  89   0.0000       1.980872        53.9023 
  90   0.0000       2.024815        55.0980 
  91   0.0000       2.059580        56.0440 
  92   0.0000       2.116020        57.5798 
  93   0.0000       2.161429        58.8155 
  94   0.0000       2.176213        59.2178 
  95   0.0000       2.184713        59.4491 
  96   0.0000       2.228964        60.6532 
  97   0.0000       2.247407        61.1551 
  98   0.0000       2.327107        63.3238 
  99   0.0000       2.333715        63.5036 
 100   0.0000       2.370792        64.5125 
 101   0.0000       2.431713        66.1703 
 102   0.0000       2.445555        66.5469 
 103   0.0000       2.477737        67.4226 
 104   0.0000       2.489197        67.7345 
 105   0.0000       2.499160        68.0056 
 106   0.0000       2.519903        68.5701 
 107   0.0000       2.533911        68.9512 
 108   0.0000       2.545384        69.2634 
 109   0.0000       2.557724        69.5992 
 110   0.0000       2.602607        70.8205 
 111   0.0000       2.650914        72.1350 
 112   0.0000       2.687200        73.1224 
 113   0.0000       2.691086        73.2282 
 114   0.0000       2.706311        73.6425 
 115   0.0000       2.723835        74.1193 
 116   0.0000       2.732387        74.3520 
 117   0.0000       2.745390        74.7059 
 118   0.0000       2.770580        75.3913 
 119   0.0000       2.881251        78.4028 
 120   0.0000       2.981571        81.1327 
 121   0.0000       3.010889        81.9305 
 122   0.0000       3.045476        82.8716 
 123   0.0000       3.089865        84.0795 
 124   0.0000       3.178077        86.4799 
 125   0.0000       3.221134        87.6515 
 126   0.0000       3.244015        88.2741 
 127   0.0000       3.301290        89.8327 
 128   0.0000       3.833063       104.3030 
 129   0.0000       3.875985       105.4709 
 130   0.0000       3.883265       105.6690 
 131   0.0000       3.960207       107.7627 
 132   0.0000       4.029903       109.6592 
 133   0.0000       4.071618       110.7943 
 134   0.0000       4.093058       111.3778 
 135   0.0000       4.102599       111.6374 
 136   0.0000       5.187072       141.1474 
 137   0.0000       5.189687       141.2186 
 138   0.0000       5.195184       141.3681 
 139   0.0000       5.197776       141.4387 
 140   0.0000       5.323383       144.8566 
 141   0.0000       5.328062       144.9839 
 142   0.0000       5.332174       145.0958 
 143   0.0000       5.335302       145.1810 
 144   0.0000       5.427702       147.6953 
 145   0.0000       5.430500       147.7714 
 146   0.0000       5.455886       148.4622 
 147   0.0000       5.464644       148.7005 
 148   0.0000       5.481548       149.1605 
 149   0.0000       5.484405       149.2382 
 150   0.0000       5.492896       149.4693 
 151   0.0000       5.521119       150.2373 
 152   0.0000       5.522666       150.2794 
 153   0.0000       5.535042       150.6161 
 154   0.0000       5.541776       150.7994 
 155   0.0000       5.544170       150.8645 
 156   0.0000       6.049493       164.6151 
 157   0.0000       6.052709       164.7026 
 158   0.0000       6.062502       164.9691 
 159   0.0000       6.062971       164.9818 
 160   0.0000       6.237024       169.7180 
 161   0.0000       6.295808       171.3176 
 162   0.0000       6.321539       172.0178 
 163   0.0000       6.326072       172.1412 
 164   0.0000       6.426133       174.8640 
 165   0.0000       6.444554       175.3652 
 166   0.0000       6.496032       176.7660 
 167   0.0000       6.500540       176.8887 
 168   0.0000       6.508310       177.1001 
 169   0.0000       6.531566       177.7329 
 170   0.0000       6.591061       179.3519 
 171   0.0000       6.602695       179.6685 
 172   0.0000       6.617436       180.0696 
 173   0.0000       6.648869       180.9249 
 174   0.0000       6.683944       181.8794 
 175   0.0000       6.812854       185.3872 
 176   0.0000       6.981299       189.9708 
 177   0.0000       7.093016       193.0108 
 178   0.0000       7.112850       193.5505 
 179   0.0000       7.119938       193.7434 
 180   0.0000       7.169594       195.0946 
 181   0.0000       7.207422       196.1239 
 182   0.0000       7.217531       196.3990 
 183   0.0000       7.232712       196.8121 
 184   0.0000      43.640215      1187.5106 
 185   0.0000      43.648146      1187.7264 
 186   0.0000      43.701331      1189.1737 
 187   0.0000      43.769281      1191.0227 

                    ********************************
                    * MULLIKEN POPULATION ANALYSIS *
                    ********************************

-----------------------
MULLIKEN ATOMIC CHARGES
-----------------------
   0 O :   -0.750557
   1 H :    0.350117
   2 H :    0.388144
   3 O :   -0.749182
   4 H :    0.350029
   5 H :    0.411430
   6 O :   -0.750566
   7 H :    0.388201
   8 H :    0.350120
   9 O :   -0.749206
  10 H :    0.411436
  11 H :    0.350035
Sum of atomic charges:   -0.0000000

--------------------------------
MULLIKEN REDUCED ORBITAL CHARGES
--------------------------------
  0 O s       :     3.790855  s :     3.790855
      pz      :     1.687252  p :     4.938242
      px      :     1.469840
      py      :     1.781149
      dz2     :     0.001766  d :     0.020400
      dxz     :     0.007040
      dyz     :     0.004170
      dx2y2   :     0.002205
      dxy     :     0.005218
      f0      :     0.000126  f :     0.001060
      f+1     :     0.000082
      f-1     :     0.000031
      f+2     :     0.000211
      f-2     :     0.000209
      f+3     :     0.000213
      f-3     :     0.000187
  1 H s       :     0.604736  s :     0.604736
      pz      :     0.013500  p :     0.045147
      px      :     0.014696
      py      :     0.016951
  2 H s       :     0.553004  s :     0.553004
      pz      :     0.019146  p :     0.058852
      px      :     0.028677
      py      :     0.011030
  3 O s       :     3.783974  s :     3.783974
      pz      :     1.762089  p :     4.943259
      px      :     1.705172
      py      :     1.475998
      dz2     :     0.004183  d :     0.020892
      dxz     :     0.006393
      dyz     :     0.001046
      dx2y2   :     0.004788
      dxy     :     0.004482
      f0      :     0.000080  f :     0.001057
      f+1     :     0.000182
      f-1     :     0.000222
      f+2     :     0.000122
      f-2     :     0.000155
      f+3     :     0.000223
      f-3     :     0.000074
  4 H s       :     0.604861  s :     0.604861
      pz      :     0.013327  p :     0.045110
      px      :     0.013680
      py      :     0.018103
  5 H s       :     0.530429  s :     0.530429
      pz      :     0.028139  p :     0.058141
      px      :     0.017803
      py      :     0.012199
  6 O s       :     3.790845  s :     3.790845
      pz      :     1.687347  p :     4.938259
      px      :     1.470321
      py      :     1.780591
      dz2     :     0.001765  d :     0.020401
      dxz     :     0.007039
      dyz     :     0.004171
      dx2y2   :     0.002217
      dxy     :     0.005209
      f0      :     0.000126  f :     0.001060
      f+1     :     0.000082
      f-1     :     0.000031
      f+2     :     0.000211
      f-2     :     0.000209
      f+3     :     0.000214
      f-3     :     0.000186
  7 H s       :     0.552945  s :     0.552945
      pz      :     0.019141  p :     0.058854
      px      :     0.028690
      py      :     0.011023
  8 H s       :     0.604735  s :     0.604735
      pz      :     0.013502  p :     0.045145
      px      :     0.014689
      py      :     0.016955
  9 O s       :     3.783991  s :     3.783991
      pz      :     1.762461  p :     4.943266
      px      :     1.705254
      py      :     1.475550
      dz2     :     0.004186  d :     0.020892
      dxz     :     0.006390
      dyz     :     0.001050
      dx2y2   :     0.004780
      dxy     :     0.004487
      f0      :     0.000080  f :     0.001057
      f+1     :     0.000181
      f-1     :     0.000223
      f+2     :     0.000121
      f-2     :     0.000156
      f+3     :     0.000223
      f-3     :     0.000074
 10 H s       :     0.530420  s :     0.530420
      pz      :     0.028134  p :     0.058143
      px      :     0.017798
      py      :     0.012212
 11 H s       :     0.604857  s :     0.604857
      pz      :     0.013326  p :     0.045109
      px      :     0.013682
      py      :     0.018101


                     *******************************
                     * LOEWDIN POPULATION ANALYSIS *
                     *******************************

----------------------
LOEWDIN ATOMIC CHARGES
----------------------
   0 O :   -0.388347
   1 H :    0.192180
   2 H :    0.191259
   3 O :   -0.382560
   4 H :    0.192416
   5 H :    0.195045
   6 O :   -0.388342
   7 H :    0.191265
   8 H :    0.192182
   9 O :   -0.382556
  10 H :    0.195041
  11 H :    0.192419

-------------------------------
LOEWDIN REDUCED ORBITAL CHARGES
-------------------------------
  0 O s       :     3.494343  s :     3.494343
      pz      :     1.675593  p :     4.861380
      px      :     1.458983
      py      :     1.726803
      dz2     :     0.002641  d :     0.030550
      dxz     :     0.012148
      dyz     :     0.004220
      dx2y2   :     0.003171
      dxy     :     0.008370
      f0      :     0.000271  f :     0.002074
      f+1     :     0.000228
      f-1     :     0.000049
      f+2     :     0.000435
      f-2     :     0.000506
      f+3     :     0.000329
      f-3     :     0.000257
  1 H s       :     0.650773  s :     0.650773
      pz      :     0.043726  p :     0.157047
      px      :     0.051466
      py      :     0.061854
  2 H s       :     0.611530  s :     0.611530
      pz      :     0.068586  p :     0.197211
      px      :     0.097578
      py      :     0.031047
  3 O s       :     3.494477  s :     3.494477
      pz      :     1.687727  p :     4.855229
      px      :     1.686625
      py      :     1.480877
      dz2     :     0.005644  d :     0.030801
      dxz     :     0.009063
      dyz     :     0.001683
      dx2y2   :     0.007966
      dxy     :     0.006446
      f0      :     0.000111  f :     0.002052
      f+1     :     0.000389
      f-1     :     0.000343
      f+2     :     0.000214
      f-2     :     0.000281
      f+3     :     0.000551
      f-3     :     0.000163
  4 H s       :     0.650600  s :     0.650600
      pz      :     0.038423  p :     0.156984
      px      :     0.043674
      py      :     0.074887
  5 H s       :     0.610727  s :     0.610727
      pz      :     0.096242  p :     0.194228
      px      :     0.063144
      py      :     0.034842
  6 O s       :     3.494347  s :     3.494347
      pz      :     1.675666  p :     4.861372
      px      :     1.459343
      py      :     1.726362
      dz2     :     0.002640  d :     0.030550
      dxz     :     0.012143
      dyz     :     0.004222
      dx2y2   :     0.003187
      dxy     :     0.008357
      f0      :     0.000271  f :     0.002074
      f+1     :     0.000227
      f-1     :     0.000049
      f+2     :     0.000436
      f-2     :     0.000505
      f+3     :     0.000331
      f-3     :     0.000255
  7 H s       :     0.611525  s :     0.611525
      pz      :     0.068561  p :     0.197210
      px      :     0.097630
      py      :     0.031019
  8 H s       :     0.650773  s :     0.650773
      pz      :     0.043732  p :     0.157045
      px      :     0.051419
      py      :     0.061895
  9 O s       :     3.494469  s :     3.494469
      pz      :     1.688040  p :     4.855233
      px      :     1.686673
      py      :     1.480519
      dz2     :     0.005647  d :     0.030801
      dxz     :     0.009054
      dyz     :     0.001685
      dx2y2   :     0.007958
      dxy     :     0.006458
      f0      :     0.000111  f :     0.002052
      f+1     :     0.000388
      f-1     :     0.000344
      f+2     :     0.000213
      f-2     :     0.000281
      f+3     :     0.000552
      f-3     :     0.000163
 10 H s       :     0.610731  s :     0.610731
      pz      :     0.096224  p :     0.194229
      px      :     0.063115
      py      :     0.034890
 11 H s       :     0.650597  s :     0.650597
      pz      :     0.038415  p :     0.156984
      px      :     0.043687
      py      :     0.074883


                      *****************************
                      * MAYER POPULATION ANALYSIS *
                      *****************************

  NA   - Mulliken gross atomic population
  ZA   - Total nuclear charge
  QA   - Mulliken gross atomic charge
  VA   - Mayer's total valence
  BVA  - Mayer's bonded valence
  FA   - Mayer's free valence

  ATOM       NA         ZA         QA         VA         BVA        FA
  0 O      8.7506     8.0000    -0.7506     1.7077     1.7077    -0.0000
  1 H      0.6499     1.0000     0.3501     0.9002     0.9002     0.0000
  2 H      0.6119     1.0000     0.3881     0.8911     0.8911     0.0000
  3 O      8.7492     8.0000    -0.7492     1.7346     1.7346    -0.0000
  4 H      0.6500     1.0000     0.3500     0.9004     0.9004    -0.0000
  5 H      0.5886     1.0000     0.4114     0.8706     0.8706     0.0000
  6 O      8.7506     8.0000    -0.7506     1.7077     1.7077     0.0000
  7 H      0.6118     1.0000     0.3882     0.8910     0.8910     0.0000
  8 H      0.6499     1.0000     0.3501     0.9002     0.9002    -0.0000
  9 O      8.7492     8.0000    -0.7492     1.7346     1.7346     0.0000
 10 H      0.5886     1.0000     0.4114     0.8705     0.8705     0.0000
 11 H      0.6500     1.0000     0.3500     0.9004     0.9004    -0.0000

  Mayer bond orders larger than 0.1
B(  0-O ,  1-H ) :   0.8949 B(  0-O ,  2-H ) :   0.7817 B(  2-H ,  3-O ) :   0.1068 
B(  3-O ,  4-H ) :   0.8968 B(  3-O ,  5-H ) :   0.7813 B(  6-O ,  7-H ) :   0.7817 
B(  6-O ,  8-H ) :   0.8949 B(  7-H ,  9-O ) :   0.1067 B(  9-O , 10-H ) :   0.7813 
B(  9-O , 11-H ) :   0.8968 

-------
TIMINGS
-------

Total SCF time: 0 days 0 hours 1 min 4 sec 

Total time                  ....      64.720 sec
Sum of individual times     ....      59.740 sec  ( 92.3%)

Fock matrix formation       ....      54.791 sec  ( 84.7%)
  Coulomb formation         ....      43.301 sec  ( 79.0% of F)
  Split-RI-J                ....       2.510 sec  (  4.6% of F)
  Chain of spheres X        ....      48.069 sec  ( 87.7% of F)
  COS-X 1 center corr.      ....       0.000 sec  (  0.0% of F)
  XC integration            ....      11.483 sec  ( 21.0% of F)
    Basis function eval.    ....       5.122 sec  ( 44.6% of XC)
    Density eval.           ....       1.439 sec  ( 12.5% of XC)
    XC-Functional eval.     ....       1.864 sec  ( 16.2% of XC)
    XC-Potential eval.      ....       2.872 sec  ( 25.0% of XC)
Diagonalization             ....       0.044 sec  (  0.1%)
Density matrix formation    ....       0.004 sec  (  0.0%)
Population analysis         ....       0.019 sec  (  0.0%)
Initial guess               ....       1.776 sec  (  2.7%)
Orbital Transformation      ....       0.000 sec  (  0.0%)
Orbital Orthonormalization  ....       0.000 sec  (  0.0%)
DIIS solution               ....       0.010 sec  (  0.0%)
SOSCF solution              ....       0.041 sec  (  0.1%)
Grid generation             ....       3.055 sec  (  4.7%)

Entering the calculation of the dispersion correction...

Checking the input atom types...

Done


-------------------------------------------------------------------------------
                          DFT DISPERSION CORRECTION                            
                                                                               
                                DFTD3 V2.1  Rev 6                               
                              USING zero damping                               
-------------------------------------------------------------------------------
The omegaB97X-D3 functional is recognized. Fit by Chai et al.
Active option DFTDOPT                   ...         3   

molecular C6(AA) [au] = 712.054611 


            DFT-D V3
 parameters
 s6 scaling factor         :     1.0000 
 rs6 scaling factor        :     1.2810 
 s8 scaling factor         :     1.0000 
 rs8 scaling factor        :     1.0940 
 Damping factor alpha6     :    14.0000 
 Damping factor alpha8     :    16.0000 
 ad hoc parameters k1-k3   :    16.0000     1.3333    -4.0000 

 Edisp/kcal,au: -1.938962943416  -0.003089933805 
 E6   /kcal   :  -0.947527553 
 E8   /kcal   :  -0.991435390 
 % E8         :  51.132250536 

-------------------------   ----------------
Dispersion correction           -0.003089934
-------------------------   ----------------


-------------------------   --------------------
FINAL SINGLE POINT ENERGY      -305.802336957924
-------------------------   --------------------


                            ***************************************
                            *     ORCA property calculations      *
                            ***************************************

                                    ---------------------
                                    Active property flags
                                    ---------------------
   (+) Dipole Moment


------------------------------------------------------------------------------
                       ORCA ELECTRIC PROPERTIES CALCULATION
------------------------------------------------------------------------------

Dipole Moment Calculation                       ... on
Quadrupole Moment Calculation                   ... off
Polarizability Calculation                      ... off
GBWName                                         ... 3_wb98x-ma-def2-TZVP-GasPhase_onBP86_4_waters.gbw
Electron density file                           ... 3_wb98x-ma-def2-TZVP-GasPhase_onBP86_4_waters.scfp.tmp

-------------
DIPOLE MOMENT
-------------
                                X             Y             Z
Electronic contribution:     -0.00017       0.00018       0.00018
Nuclear contribution   :      0.00089      -0.00071      -0.00085
                        -----------------------------------------
Total Dipole Moment    :      0.00072      -0.00053      -0.00067
                        -----------------------------------------
Magnitude (a.u.)       :      0.00111
Magnitude (Debye)      :      0.00283


Timings for individual modules:

Sum of individual times         ...       66.676 sec (=   1.111 min)
GTO integral calculation        ...        0.157 sec (=   0.003 min)   0.2 %
SCF iterations                  ...       66.519 sec (=   1.109 min)  99.8 %
                             ****ORCA TERMINATED NORMALLY****
TOTAL RUN TIME: 0 days 0 hours 1 minutes 6 seconds 803 msec
cp: cannot stat /scratch/slurm-2202322/*.{prop}: No such file or directory
