
                                 *****************
                                 * O   R   C   A *
                                 *****************

           --- An Ab Initio, DFT and Semiempirical electronic structure package ---

                  #######################################################
                  #                        -***-                        #
                  #          Department of theory and spectroscopy      #
                  #               Directorship: Frank Neese             #
                  #        Max Planck Institute fuer Kohlenforschung    #
                  #                Kaiser Wilhelm Platz 1               #
                  #                 D-45470 Muelheim/Ruhr               #
                  #                      Germany                        #
                  #                                                     #
                  #                  All rights reserved                #
                  #                        -***-                        #
                  #######################################################


                         Program Version 4.2.0 -  RELEASE  -


 With contributions from (in alphabetic order):
   Daniel Aravena         : Magnetic Suceptibility
   Michael Atanasov       : Ab Initio Ligand Field Theory (pilot matlab implementation)
   Alexander A. Auer      : GIAO ZORA, VPT2
   Ute Becker             : Parallelization
   Giovanni Bistoni       : ED, misc. LED, open-shell LED, HFLED
   Martin Brehm           : Molecular dynamics
   Dmytro Bykov           : SCF Hessian
   Vijay G. Chilkuri      : MRCI spin determinant printing, contributions to CSF-ICE
   Dipayan Datta          : RHF DLPNO-CCSD density
   Achintya Kumar Dutta   : EOM-CC, STEOM-CC
   Dmitry Ganyushin       : Spin-Orbit,Spin-Spin,Magnetic field MRCI
   Miquel Garcia          : C-PCM Hessian, Gaussian charge scheme
   Yang Guo               : DLPNO-NEVPT2, CIM, IAO-localization
   Andreas Hansen         : Spin unrestricted coupled pair/coupled cluster methods
   Benjamin Helmich-Paris : CASSCF linear response (MC-RPA)
   Lee Huntington         : MR-EOM, pCC
   Robert Izsak           : Overlap fitted RIJCOSX, COSX-SCS-MP3, EOM
   Christian Kollmar      : KDIIS, OOCD, Brueckner-CCSD(T), CCSD density
   Simone Kossmann        : Meta GGA functionals, TD-DFT gradient, OOMP2, MP2 Hessian
   Martin Krupicka        : AUTO-CI
   Lucas Lang             : DCDCAS
   Dagmar Lenk            : GEPOL surface, SMD
   Dimitrios Liakos       : Extrapolation schemes; Compound Job, initial MDCI parallelization
   Dimitrios Manganas     : Further ROCIS development; embedding schemes
   Dimitrios Pantazis     : SARC Basis sets
   Taras Petrenko         : DFT Hessian,TD-DFT gradient, ASA, ECA, R-Raman, ABS, FL, XAS/XES, NRVS
   Peter Pinski           : DLPNO-MP2, DLPNO-MP2 Gradient
   Christoph Reimann      : Effective Core Potentials
   Marius Retegan         : Local ZFS, SOC
   Christoph Riplinger    : Optimizer, TS searches, QM/MM, DLPNO-CCSD(T), (RO)-DLPNO pert. Triples
   Tobias Risthaus        : Range-separated hybrids, TD-DFT gradient, RPA, STAB
   Michael Roemelt        : Original ROCIS implementation
   Masaaki Saitow         : Open-shell DLPNO-CCSD energy and density
   Barbara Sandhoefer     : DKH picture change effects
   Avijit Sen             : IP-ROCIS
   Kantharuban Sivalingam : CASSCF convergence, NEVPT2, FIC-MRCI
   Bernardo de Souza      : ESD, SOC TD-DFT
   Georgi Stoychev        : AutoAux, RI-MP2 NMR
   Willem Van den Heuvel  : Paramagnetic NMR
   Boris Wezisla          : Elementary symmetry handling
   Frank Wennmohs         : Technical directorship


 We gratefully acknowledge several colleagues who have allowed us to
 interface, adapt or use parts of their codes:
   Stefan Grimme, W. Hujo, H. Kruse,             : VdW corrections, initial TS optimization,
                  C. Bannwarth                     DFT functionals, gCP, sTDA/sTD-DF
   Ed Valeev, F. Pavosevic, A. Kumar             : LibInt (2-el integral package), F12 methods
   Garnet Chan, S. Sharma, J. Yang, R. Olivares  : DMRG
   Ulf Ekstrom                                   : XCFun DFT Library
   Mihaly Kallay                                 : mrcc  (arbitrary order and MRCC methods)
   Andreas Klamt, Michael Diedenhofen            : otool_cosmo (COSMO solvation model)
   Jiri Pittner, Ondrej Demel                    : Mk-CCSD
   Frank Weinhold                                : gennbo (NPA and NBO analysis)
   Christopher J. Cramer and Donald G. Truhlar   : smd solvation model
   Lars Goerigk                                  : TD-DFT with DH, B97 family of functionals
   V. Asgeirsson, H. Jonsson                     : NEB implementation
   FAccTs GmbH                                   : IRC, NEB, NEB-TS, Multilevel, MM, QM/MM, CI optimization
   S Lehtola, MJT Oliveira, MAL Marques          : LibXC Library


 Your calculation uses the libint2 library for the computation of 2-el integrals
 For citations please refer to: http://libint.valeyev.net

 Your ORCA version has been built with support for libXC version: 4.2.3
 For citations please refer to: https://tddft.org/programs/libxc/

 This ORCA versions uses:
   CBLAS   interface :  Fast vector & matrix operations
   LAPACKE interface :  Fast linear algebra routines
   SCALAPACK package :  Parallel linear algebra routines


----- Orbital basis set information -----
Your calculation utilizes the basis: def2-TZVP
   F. Weigend and R. Ahlrichs, Phys. Chem. Chem. Phys. 7, 3297 (2005).

================================================================================
                                        WARNINGS
                       Please study these warnings very carefully!
================================================================================


WARNING: The frozen-core approximation for MP2-gradient calculations is turned on by default.

INFO   : the flag for use of LIBINT has been found!

================================================================================
                                       INPUT FILE
================================================================================
NAME = 12h2o.su.etal.mol0,2,5,7,8,9-orca.engrad-mp2.def2tzvp.frozencore.inp
|  1> # 12h2o.su.etal.mol0,2,5,7,8,9
|  2> ! MP2 def2-TZVP EnGrad TightSCF
|  3> 
|  4> %pal
|  5>     nprocs 6
|  6> end
|  7> 
|  8> %maxcore 8000
|  9> 
| 10> %scf
| 11>     ConvForced true
| 12> end
| 13> 
| 14> *xyz 0 1
| 15> O   1.794470000   0.923410000   2.768350000
| 16> H   2.338250000   1.359750000   3.430940000
| 17> H   0.879480000   1.303000000   2.865760000
| 18> O   0.923410000  -1.794470000  -2.768350000
| 19> H   1.359750000  -2.338250000  -3.430940000
| 20> H   1.303000000  -0.879480000  -2.865760000
| 21> O   0.885520000  -1.737840000   0.052730000
| 22> H   1.284090000  -0.839590000   0.017130000
| 23> H   1.032320000  -2.090180000  -0.841890000
| 24> O  -1.737840000  -0.885520000  -0.052730000
| 25> H  -2.090180000  -1.032320000   0.841890000
| 26> H  -0.839590000  -1.284090000  -0.017130000
| 27> O   1.752130000   0.741530000  -2.896280000
| 28> H   2.036450000   0.920500000  -1.984040000
| 29> H   0.921210000   1.242140000  -2.984230000
| 30> O   0.741530000  -1.752130000   2.896280000
| 31> H   0.920500000  -2.036450000   1.984040000
| 32> H   1.242140000  -0.921210000   2.984230000
| 33> *
| 34> 
| 35>                          ****END OF INPUT****
================================================================================

                     *******************************
                     * Energy+Gradient Calculation *
                     *******************************

---------------------------------
CARTESIAN COORDINATES (ANGSTROEM)
---------------------------------
  O      1.794470    0.923410    2.768350
  H      2.338250    1.359750    3.430940
  H      0.879480    1.303000    2.865760
  O      0.923410   -1.794470   -2.768350
  H      1.359750   -2.338250   -3.430940
  H      1.303000   -0.879480   -2.865760
  O      0.885520   -1.737840    0.052730
  H      1.284090   -0.839590    0.017130
  H      1.032320   -2.090180   -0.841890
  O     -1.737840   -0.885520   -0.052730
  H     -2.090180   -1.032320    0.841890
  H     -0.839590   -1.284090   -0.017130
  O      1.752130    0.741530   -2.896280
  H      2.036450    0.920500   -1.984040
  H      0.921210    1.242140   -2.984230
  O      0.741530   -1.752130    2.896280
  H      0.920500   -2.036450    1.984040
  H      1.242140   -0.921210    2.984230

----------------------------
CARTESIAN COORDINATES (A.U.)
----------------------------
  NO LB      ZA    FRAG     MASS         X           Y           Z
   0 O     8.0000    0    15.999    3.391057    1.744992    5.231423
   1 H     1.0000    0     1.008    4.418652    2.569555    6.483537
   2 H     1.0000    0     1.008    1.661976    2.462313    5.415502
   3 O     8.0000    0    15.999    1.744992   -3.391057   -5.231423
   4 H     1.0000    0     1.008    2.569555   -4.418652   -6.483537
   5 H     1.0000    0     1.008    2.462313   -1.661976   -5.415502
   6 O     8.0000    0    15.999    1.673390   -3.284042    0.099645
   7 H     1.0000    0     1.008    2.426578   -1.586595    0.032371
   8 H     1.0000    0     1.008    1.950802   -3.949868   -1.590942
   9 O     8.0000    0    15.999   -3.284042   -1.673390   -0.099645
  10 H     1.0000    0     1.008   -3.949868   -1.950802    1.590942
  11 H     1.0000    0     1.008   -1.586595   -2.426578   -0.032371
  12 O     8.0000    0    15.999    3.311046    1.401289   -5.473176
  13 H     1.0000    0     1.008    3.848333    1.739493   -3.749292
  14 H     1.0000    0     1.008    1.740835    2.347304   -5.639377
  15 O     8.0000    0    15.999    1.401289   -3.311046    5.473176
  16 H     1.0000    0     1.008    1.739493   -3.848333    3.749292
  17 H     1.0000    0     1.008    2.347304   -1.740835    5.639377

--------------------------------
INTERNAL COORDINATES (ANGSTROEM)
--------------------------------
 O      0   0   0     0.000000000000     0.00000000     0.00000000
 H      1   0   0     0.961828878803     0.00000000     0.00000000
 H      1   2   0     0.995381322057   106.21731035     0.00000000
 O      1   2   3     6.229017908788   152.78811022   148.20682389
 H      4   1   2     0.961828878803   142.70840549    32.77530239
 H      4   1   2     0.995381322057    68.44287781   304.10042923
 O      4   1   2     2.821902722526    26.43043848   121.43990250
 H      7   4   1     0.983350632989    88.66470709   356.04997417
 H      7   4   1     0.972645187106    21.75017499   221.89319655
 O      7   4   1     2.760360281485    88.89773968    91.91952474
 H     10   7   4     0.972645187106   105.22009255   163.79109705
 H     10   7   4     0.983350632989     5.92595386    88.14524976
 O      6   4   1     1.682356278379   171.61043709   305.15113011
 H     13   6   4     0.972136791249   103.79460456    70.64587838
 H     13   6   4     0.974050112161   105.61118924   321.69395179
 O      7   4   1     2.847229166523   177.43098014   143.94628814
 H     16   7   9     0.972136791249    19.08819947     8.79504813
 H     16   7   9     0.974050112161    93.43428486   132.89132802

---------------------------
INTERNAL COORDINATES (A.U.)
---------------------------
 O      0   0   0     0.000000000000     0.00000000     0.00000000
 H      1   0   0     1.817593168635     0.00000000     0.00000000
 H      1   2   0     1.880998097508   106.21731035     0.00000000
 O      1   2   3    11.771137930900   152.78811022   148.20682389
 H      4   1   2     1.817593168635   142.70840549    32.77530239
 H      4   1   2     1.880998097508    68.44287781   304.10042923
 O      4   1   2     5.332623322141    26.43043848   121.43990250
 H      7   4   1     1.858263389967    88.66470709   356.04997417
 H      7   4   1     1.838033029106    21.75017499   221.89319655
 O      7   4   1     5.216324962960    88.89773968    91.91952474
 H     10   7   4     1.838033029106   105.22009255   163.79109705
 H     10   7   4     1.858263389967     5.92595386    88.14524976
 O      6   4   1     3.179192625819   171.61043709   305.15113011
 H     13   6   4     1.837072300170   103.79460456    70.64587838
 H     13   6   4     1.840687952699   105.61118924   321.69395179
 O      7   4   1     5.380483365242   177.43098014   143.94628814
 H     16   7   9     1.837072300170    19.08819947     8.79504813
 H     16   7   9     1.840687952699    93.43428486   132.89132802

---------------------
BASIS SET INFORMATION
---------------------
There are 2 groups of distinct atoms

 Group   1 Type O   : 11s6p2d1f contracted to 5s3p2d1f pattern {62111/411/11/1}
 Group   2 Type H   : 5s1p contracted to 3s1p pattern {311/1}

Atom   0O    basis set group =>   1
Atom   1H    basis set group =>   2
Atom   2H    basis set group =>   2
Atom   3O    basis set group =>   1
Atom   4H    basis set group =>   2
Atom   5H    basis set group =>   2
Atom   6O    basis set group =>   1
Atom   7H    basis set group =>   2
Atom   8H    basis set group =>   2
Atom   9O    basis set group =>   1
Atom  10H    basis set group =>   2
Atom  11H    basis set group =>   2
Atom  12O    basis set group =>   1
Atom  13H    basis set group =>   2
Atom  14H    basis set group =>   2
Atom  15O    basis set group =>   1
Atom  16H    basis set group =>   2
Atom  17H    basis set group =>   2


           ************************************************************
           *        Program running with 6 parallel MPI-processes     *
           *              working on a common directory               *
           ************************************************************
------------------------------------------------------------------------------
                           ORCA GTO INTEGRAL CALCULATION
------------------------------------------------------------------------------

                         BASIS SET STATISTICS AND STARTUP INFO

 # of primitive gaussian shells          ...  192
 # of primitive gaussian functions       ...  372
 # of contracted shells                  ...  114
 # of contracted basis functions         ...  258
 Highest angular momentum                ...    3
 Maximum contraction depth               ...    6
 Integral package used                   ... LIBINT
 Integral threshhold            Thresh   ...  2.500e-11
 Primitive cut-off              TCut     ...  2.500e-12


------------------------------ INTEGRAL EVALUATION ----------------------------


 * One electron integrals 
 Pre-screening matrix                    ... done
 Shell pair data                         ... done (   0.001 sec)



           ************************************************************
           *        Program running with 6 parallel MPI-processes     *
           *              working on a common directory               *
           ************************************************************
-------------------------------------------------------------------------------
                                 ORCA SCF
-------------------------------------------------------------------------------

------------
SCF SETTINGS
------------
Hamiltonian:
 Ab initio Hamiltonian  Method          .... Hartree-Fock(GTOs)


General Settings:
 Integral files         IntName         .... 12h2o.su.etal.mol0,2,5,7,8,9-orca.engrad-mp2.def2tzvp.frozencore
 Hartree-Fock type      HFTyp           .... RHF
 Total Charge           Charge          ....    0
 Multiplicity           Mult            ....    1
 Number of Electrons    NEL             ....   60
 Basis Dimension        Dim             ....  258
 Nuclear Repulsion      ENuc            ....    261.5063616379 Eh

Convergence Acceleration:
 DIIS                   CNVDIIS         .... on
   Start iteration      DIISMaxIt       ....    12
   Startup error        DIISStart       ....  0.200000
   # of expansion vecs  DIISMaxEq       ....     5
   Bias factor          DIISBfac        ....   1.050
   Max. coefficient     DIISMaxC        ....  10.000
 Newton-Raphson         CNVNR           .... off
 SOSCF                  CNVSOSCF        .... on
   Start iteration      SOSCFMaxIt      ....   150
   Startup grad/error   SOSCFStart      ....  0.003300
 Level Shifting         CNVShift        .... on
   Level shift para.    LevelShift      ....    0.2500
   Turn off err/grad.   ShiftErr        ....    0.0010
 Zerner damping         CNVZerner       .... off
 Static damping         CNVDamp         .... on
   Fraction old density DampFac         ....    0.7000
   Max. Damping (<1)    DampMax         ....    0.9800
   Min. Damping (>=0)   DampMin         ....    0.0000
   Turn off err/grad.   DampErr         ....    0.1000
 Fernandez-Rico         CNVRico         .... off

SCF Procedure:
 Maximum # iterations   MaxIter         ....   125
 SCF integral mode      SCFMode         .... Direct
   Integral package                     .... LIBINT
 Reset frequency        DirectResetFreq ....    20
 Integral Threshold     Thresh          ....  2.500e-11 Eh
 Primitive CutOff       TCut            ....  2.500e-12 Eh

Convergence Tolerance:
 Convergence Check Mode ConvCheckMode   .... Total+1el-Energy
 Convergence forced     ConvForced      .... 1
 Energy Change          TolE            ....  1.000e-08 Eh
 1-El. energy change                    ....  1.000e-05 Eh
 Orbital Gradient       TolG            ....  1.000e-05
 Orbital Rotation angle TolX            ....  1.000e-05
 DIIS Error             TolErr          ....  5.000e-07


Diagonalization of the overlap matrix:
Smallest eigenvalue                        ... 4.207e-03
Time for diagonalization                   ...    0.011 sec
Threshold for overlap eigenvalues          ... 1.000e-08
Number of eigenvalues below threshold      ... 0
Time for construction of square roots      ...    0.005 sec
Total time needed                          ...    0.016 sec

-------------------
DFT GRID GENERATION
-------------------

General Integration Accuracy     IntAcc      ...  4.340
Radial Grid Type                 RadialGrid  ... Gauss-Chebyshev
Angular Grid (max. acc.)         AngularGrid ... Lebedev-110
Angular grid pruning method      GridPruning ... 3 (G Style)
Weight generation scheme         WeightScheme... Becke
Basis function cutoff            BFCut       ...    1.0000e-11
Integration weight cutoff        WCut        ...    1.0000e-14
Grids for H and He will be reduced by one unit

# of grid points (after initial pruning)     ...  19824 (   0.0 sec)
# of grid points (after weights+screening)   ...  18798 (   0.0 sec)
nearest neighbour list constructed           ...    0.0 sec
Grid point re-assignment to atoms done       ...    0.0 sec
Grid point division into batches done        ...    0.0 sec
Reduced shell lists constructed in    0.0 sec

Total number of grid points                  ...    18798
Total number of batches                      ...      303
Average number of points per batch           ...       62
Average number of grid points per atom       ...     1044
Average number of shells per batch           ...    49.58 (43.49%)
Average number of basis functions per batch  ...    97.00 (37.60%)
Average number of large shells per batch     ...    33.40 (67.38%)
Average number of large basis fcns per batch ...    65.29 (67.31%)
Maximum spatial batch extension              ...  15.22, 13.55, 17.28 au
Average spatial batch extension              ...   0.64,  0.73,  0.65 au

Time for grid setup =    0.055 sec

------------------------------
INITIAL GUESS: MODEL POTENTIAL
------------------------------
Loading Hartree-Fock densities                     ... done
Calculating cut-offs                               ... done
Setting up the integral package                    ... done
Initializing the effective Hamiltonian             ... done
Starting the Coulomb interaction                   ... done (   0.0 sec)
Reading the grid                                   ... done
Mapping shells                                     ... done
Starting the XC term evaluation                    ... done (   0.0 sec)
Transforming the Hamiltonian                       ... done (   0.0 sec)
Diagonalizing the Hamiltonian                      ... done (   0.0 sec)
Back transforming the eigenvectors                 ... done (   0.0 sec)
Now organizing SCF variables                       ... done
                      ------------------
                      INITIAL GUESS DONE (   0.2 sec)
                      ------------------
--------------
SCF ITERATIONS
--------------
ITER       Energy         Delta-E        Max-DP      RMS-DP      [F,P]     Damp
               ***  Starting incremental Fock matrix formation  ***
  0   -455.8277935020   0.000000000000 0.04382746  0.00097140  0.3504251 0.7000
  1   -456.0395193378  -0.211725835743 0.02903104  0.00067203  0.2166066 0.7000
                               ***Turning on DIIS***
  2   -456.1515638863  -0.112044548480 0.01654642  0.00037506  0.1635446 0.7000
  3   -457.1559060217  -1.004342135398 0.00794724  0.00017231  0.1218174 0.7000
  4   -456.9523919635   0.203514058121 0.01793439  0.00040182  0.0861731 0.0000
  5   -456.4089555384   0.543436425117 0.00210440  0.00006515  0.0058323 0.0000
                      *** Initiating the SOSCF procedure ***
                           *** Shutting down DIIS ***
                      *** Re-Reading the Fockian *** 
                      *** Removing any level shift *** 
ITER      Energy       Delta-E        Grad      Rot      Max-DP    RMS-DP
  6   -456.37773267   0.0312228729  0.000915  0.000915  0.001280  0.000040
               *** Restarting incremental Fock matrix formation ***
  7   -456.36799690   0.0097357690  0.000346  0.000477  0.000596  0.000017
  8   -456.36800603  -0.0000091341  0.000135  0.000353  0.000443  0.000014
  9   -456.36800818  -0.0000021522  0.000054  0.000037  0.000100  0.000003
 10   -456.36800836  -0.0000001787  0.000010  0.000009  0.000019  0.000000
                  ***Gradient check signals convergence***
              ***Rediagonalizing the Fockian in SOSCF/NRSCF***

               *****************************************************
               *                     SUCCESS                       *
               *           SCF CONVERGED AFTER  11 CYCLES          *
               *****************************************************


----------------
TOTAL SCF ENERGY
----------------

Total Energy       :         -456.36800837 Eh          -12418.40485 eV

Components:
Nuclear Repulsion  :          261.50636164 Eh            7115.94987 eV
Electronic Energy  :         -717.87437000 Eh          -19534.35472 eV
One Electron Energy:        -1151.21440658 Eh          -31326.13659 eV
Two Electron Energy:          433.34003658 Eh           11791.78188 eV

Virial components:
Potential Energy   :         -912.12807180 Eh          -24820.26667 eV
Kinetic Energy     :          455.76006344 Eh           12401.86182 eV
Virial Ratio       :            2.00133391


---------------
SCF CONVERGENCE
---------------

  Last Energy change         ...   -4.4564e-09  Tolerance :   1.0000e-08
  Last MAX-Density change    ...    5.8478e-06  Tolerance :   1.0000e-07
  Last RMS-Density change    ...    1.3814e-07  Tolerance :   5.0000e-09
  Last Orbital Gradient      ...    1.9618e-06  Tolerance :   1.0000e-05
  Last Orbital Rotation      ...    2.1682e-06  Tolerance :   1.0000e-05

             **** THE GBW FILE WAS UPDATED (12h2o.su.etal.mol0,2,5,7,8,9-orca.engrad-mp2.def2tzvp.frozencore.gbw) ****
             **** DENSITY FILE WAS UPDATED (12h2o.su.etal.mol0,2,5,7,8,9-orca.engrad-mp2.def2tzvp.frozencore.scfp) ****
             **** ENERGY FILE WAS UPDATED (12h2o.su.etal.mol0,2,5,7,8,9-orca.engrad-mp2.def2tzvp.frozencore.en.tmp) ****
             **** THE GBW FILE WAS UPDATED (12h2o.su.etal.mol0,2,5,7,8,9-orca.engrad-mp2.def2tzvp.frozencore.gbw) ****
             **** DENSITY FILE WAS UPDATED (12h2o.su.etal.mol0,2,5,7,8,9-orca.engrad-mp2.def2tzvp.frozencore.scfp) ****
----------------
ORBITAL ENERGIES
----------------

  NO   OCC          E(Eh)            E(eV) 
   0   2.0000     -20.616881      -561.0139 
   1   2.0000     -20.597064      -560.4746 
   2   2.0000     -20.575673      -559.8925 
   3   2.0000     -20.554907      -559.3275 
   4   2.0000     -20.513817      -558.2093 
   5   2.0000     -20.508946      -558.0768 
   6   2.0000      -1.402356       -38.1601 
   7   2.0000      -1.374703       -37.4076 
   8   2.0000      -1.363479       -37.1021 
   9   2.0000      -1.337162       -36.3860 
  10   2.0000      -1.295062       -35.2404 
  11   2.0000      -1.294128       -35.2150 
  12   2.0000      -0.759394       -20.6642 
  13   2.0000      -0.741738       -20.1837 
  14   2.0000      -0.727036       -19.7837 
  15   2.0000      -0.722792       -19.6682 
  16   2.0000      -0.674546       -18.3553 
  17   2.0000      -0.669277       -18.2120 
  18   2.0000      -0.641326       -17.4514 
  19   2.0000      -0.617728       -16.8092 
  20   2.0000      -0.603812       -16.4306 
  21   2.0000      -0.583747       -15.8846 
  22   2.0000      -0.555538       -15.1170 
  23   2.0000      -0.546720       -14.8770 
  24   2.0000      -0.539677       -14.6854 
  25   2.0000      -0.520535       -14.1645 
  26   2.0000      -0.504696       -13.7335 
  27   2.0000      -0.503371       -13.6974 
  28   2.0000      -0.462693       -12.5905 
  29   2.0000      -0.458483       -12.4760 
  30   0.0000       0.079785         2.1711 
  31   0.0000       0.109248         2.9728 
  32   0.0000       0.152661         4.1541 
  33   0.0000       0.155346         4.2272 
  34   0.0000       0.168697         4.5905 
  35   0.0000       0.191700         5.2164 
  36   0.0000       0.217425         5.9164 
  37   0.0000       0.256788         6.9876 
  38   0.0000       0.269640         7.3373 
  39   0.0000       0.309630         8.4255 
  40   0.0000       0.325074         8.8457 
  41   0.0000       0.336750         9.1634 
  42   0.0000       0.445004        12.1092 
  43   0.0000       0.461686        12.5631 
  44   0.0000       0.472457        12.8562 
  45   0.0000       0.498461        13.5638 
  46   0.0000       0.516013        14.0414 
  47   0.0000       0.535646        14.5757 
  48   0.0000       0.546974        14.8839 
  49   0.0000       0.556844        15.1525 
  50   0.0000       0.567537        15.4435 
  51   0.0000       0.569664        15.5013 
  52   0.0000       0.597211        16.2510 
  53   0.0000       0.606541        16.5048 
  54   0.0000       0.616263        16.7694 
  55   0.0000       0.623971        16.9791 
  56   0.0000       0.636907        17.3311 
  57   0.0000       0.648220        17.6390 
  58   0.0000       0.656879        17.8746 
  59   0.0000       0.664816        18.0906 
  60   0.0000       0.703605        19.1461 
  61   0.0000       0.708798        19.2874 
  62   0.0000       0.715644        19.4737 
  63   0.0000       0.720350        19.6017 
  64   0.0000       0.749698        20.4003 
  65   0.0000       0.759114        20.6565 
  66   0.0000       0.772917        21.0321 
  67   0.0000       0.796737        21.6803 
  68   0.0000       0.810056        22.0428 
  69   0.0000       0.820589        22.3294 
  70   0.0000       0.880580        23.9618 
  71   0.0000       0.915449        24.9106 
  72   0.0000       0.937087        25.4994 
  73   0.0000       0.972525        26.4637 
  74   0.0000       0.974922        26.5290 
  75   0.0000       1.010492        27.4969 
  76   0.0000       1.040898        28.3243 
  77   0.0000       1.078246        29.3406 
  78   0.0000       1.339338        36.4452 
  79   0.0000       1.366772        37.1918 
  80   0.0000       1.384173        37.6653 
  81   0.0000       1.395366        37.9698 
  82   0.0000       1.399662        38.0867 
  83   0.0000       1.413513        38.4636 
  84   0.0000       1.453720        39.5577 
  85   0.0000       1.460342        39.7379 
  86   0.0000       1.468749        39.9667 
  87   0.0000       1.486280        40.4437 
  88   0.0000       1.506723        41.0000 
  89   0.0000       1.524890        41.4944 
  90   0.0000       1.566344        42.6224 
  91   0.0000       1.579380        42.9771 
  92   0.0000       1.582289        43.0563 
  93   0.0000       1.590559        43.2813 
  94   0.0000       1.630623        44.3715 
  95   0.0000       1.654832        45.0303 
  96   0.0000       1.764820        48.0232 
  97   0.0000       1.792478        48.7758 
  98   0.0000       1.805641        49.1340 
  99   0.0000       1.852757        50.4161 
 100   0.0000       1.856554        50.5194 
 101   0.0000       1.876418        51.0599 
 102   0.0000       1.906171        51.8696 
 103   0.0000       1.944938        52.9245 
 104   0.0000       1.963061        53.4176 
 105   0.0000       1.975173        53.7472 
 106   0.0000       1.976271        53.7771 
 107   0.0000       2.009507        54.6815 
 108   0.0000       2.051016        55.8110 
 109   0.0000       2.077747        56.5384 
 110   0.0000       2.106119        57.3104 
 111   0.0000       2.125049        57.8255 
 112   0.0000       2.150728        58.5243 
 113   0.0000       2.182427        59.3869 
 114   0.0000       2.222226        60.4698 
 115   0.0000       2.278484        62.0007 
 116   0.0000       2.300629        62.6033 
 117   0.0000       2.305856        62.7455 
 118   0.0000       2.310157        62.8626 
 119   0.0000       2.324878        63.2632 
 120   0.0000       2.341126        63.7053 
 121   0.0000       2.345231        63.8170 
 122   0.0000       2.371652        64.5359 
 123   0.0000       2.384141        64.8758 
 124   0.0000       2.391289        65.0703 
 125   0.0000       2.403247        65.3957 
 126   0.0000       2.456267        66.8384 
 127   0.0000       2.474550        67.3359 
 128   0.0000       2.511547        68.3427 
 129   0.0000       2.524440        68.6935 
 130   0.0000       2.540296        69.1250 
 131   0.0000       2.546258        69.2872 
 132   0.0000       2.559628        69.6510 
 133   0.0000       2.585412        70.3526 
 134   0.0000       2.602978        70.8306 
 135   0.0000       2.632577        71.6361 
 136   0.0000       2.644607        71.9634 
 137   0.0000       2.655850        72.2694 
 138   0.0000       2.659600        72.3714 
 139   0.0000       2.701956        73.5240 
 140   0.0000       2.733249        74.3755 
 141   0.0000       2.747402        74.7606 
 142   0.0000       2.769787        75.3697 
 143   0.0000       2.800235        76.1983 
 144   0.0000       2.876815        78.2821 
 145   0.0000       2.886256        78.5390 
 146   0.0000       2.909699        79.1769 
 147   0.0000       2.928600        79.6913 
 148   0.0000       2.941842        80.0516 
 149   0.0000       2.981401        81.1280 
 150   0.0000       2.990565        81.3774 
 151   0.0000       2.998260        81.5868 
 152   0.0000       3.011548        81.9484 
 153   0.0000       3.035688        82.6053 
 154   0.0000       3.067908        83.4820 
 155   0.0000       3.088750        84.0492 
 156   0.0000       3.107325        84.5546 
 157   0.0000       3.118348        84.8546 
 158   0.0000       3.135894        85.3320 
 159   0.0000       3.167752        86.1989 
 160   0.0000       3.190375        86.8145 
 161   0.0000       3.242503        88.2330 
 162   0.0000       3.268208        88.9324 
 163   0.0000       3.292926        89.6051 
 164   0.0000       3.327788        90.5537 
 165   0.0000       3.356196        91.3267 
 166   0.0000       3.459314        94.1327 
 167   0.0000       3.487377        94.8964 
 168   0.0000       3.963345       107.8481 
 169   0.0000       3.982965       108.3820 
 170   0.0000       4.066474       110.6544 
 171   0.0000       4.091549       111.3367 
 172   0.0000       4.099227       111.5456 
 173   0.0000       4.128043       112.3298 
 174   0.0000       4.255753       115.8049 
 175   0.0000       4.281584       116.5078 
 176   0.0000       4.306600       117.1885 
 177   0.0000       4.365471       118.7905 
 178   0.0000       4.371007       118.9411 
 179   0.0000       4.385248       119.3287 
 180   0.0000       5.492013       149.4453 
 181   0.0000       5.514445       150.0557 
 182   0.0000       5.530136       150.4826 
 183   0.0000       5.554066       151.1338 
 184   0.0000       5.591480       152.1519 
 185   0.0000       5.594855       152.2437 
 186   0.0000       5.611565       152.6984 
 187   0.0000       5.629558       153.1881 
 188   0.0000       5.643074       153.5559 
 189   0.0000       5.667776       154.2280 
 190   0.0000       5.698673       155.0688 
 191   0.0000       5.701692       155.1509 
 192   0.0000       5.778869       157.2510 
 193   0.0000       5.779304       157.2629 
 194   0.0000       5.784570       157.4062 
 195   0.0000       5.803779       157.9289 
 196   0.0000       5.819287       158.3509 
 197   0.0000       5.828524       158.6022 
 198   0.0000       5.835370       158.7885 
 199   0.0000       5.846349       159.0873 
 200   0.0000       5.863889       159.5645 
 201   0.0000       5.865493       159.6082 
 202   0.0000       5.879116       159.9789 
 203   0.0000       5.884531       160.1262 
 204   0.0000       5.891793       160.3238 
 205   0.0000       5.904337       160.6652 
 206   0.0000       5.928270       161.3164 
 207   0.0000       5.931428       161.4024 
 208   0.0000       5.943854       161.7405 
 209   0.0000       5.952087       161.9645 
 210   0.0000       6.396923       174.0691 
 211   0.0000       6.432570       175.0391 
 212   0.0000       6.456425       175.6883 
 213   0.0000       6.468850       176.0264 
 214   0.0000       6.510579       177.1619 
 215   0.0000       6.535555       177.8415 
 216   0.0000       6.664127       181.3401 
 217   0.0000       6.669584       181.4886 
 218   0.0000       6.683786       181.8751 
 219   0.0000       6.718731       182.8260 
 220   0.0000       6.724854       182.9926 
 221   0.0000       6.774813       184.3520 
 222   0.0000       6.822385       185.6465 
 223   0.0000       6.837569       186.0597 
 224   0.0000       6.855910       186.5588 
 225   0.0000       6.872622       187.0135 
 226   0.0000       6.876642       187.1229 
 227   0.0000       6.882879       187.2927 
 228   0.0000       6.888626       187.4490 
 229   0.0000       6.890454       187.4988 
 230   0.0000       6.915386       188.1772 
 231   0.0000       6.922844       188.3802 
 232   0.0000       6.934232       188.6900 
 233   0.0000       6.947411       189.0487 
 234   0.0000       6.963039       189.4739 
 235   0.0000       6.967425       189.5933 
 236   0.0000       7.000996       190.5068 
 237   0.0000       7.010885       190.7759 
 238   0.0000       7.041497       191.6089 
 239   0.0000       7.069269       192.3646 
 240   0.0000       7.343822       199.8356 
 241   0.0000       7.366683       200.4576 
 242   0.0000       7.393751       201.1942 
 243   0.0000       7.448146       202.6743 
 244   0.0000       7.452246       202.7859 
 245   0.0000       7.462298       203.0594 
 246   0.0000       7.471760       203.3169 
 247   0.0000       7.481754       203.5889 
 248   0.0000       7.547836       205.3871 
 249   0.0000       7.585084       206.4006 
 250   0.0000       7.600624       206.8235 
 251   0.0000       7.631362       207.6599 
 252   0.0000      44.844243      1220.2739 
 253   0.0000      44.879633      1221.2369 
 254   0.0000      44.964778      1223.5538 
 255   0.0000      45.003210      1224.5996 
 256   0.0000      45.012031      1224.8396 
 257   0.0000      45.055296      1226.0169 

                    ********************************
                    * MULLIKEN POPULATION ANALYSIS *
                    ********************************

-----------------------
MULLIKEN ATOMIC CHARGES
-----------------------
   0 O :   -0.726207
   1 H :    0.364937
   2 H :    0.373207
   3 O :   -0.761983
   4 H :    0.349769
   5 H :    0.394883
   6 O :   -0.751287
   7 H :    0.343424
   8 H :    0.411325
   9 O :   -0.749112
  10 H :    0.338024
  11 H :    0.387403
  12 O :   -0.705474
  13 H :    0.361968
  14 H :    0.381425
  15 O :   -0.753302
  16 H :    0.381816
  17 H :    0.359184
Sum of atomic charges:   -0.0000000

--------------------------------
MULLIKEN REDUCED ORBITAL CHARGES
--------------------------------
  0 O s       :     3.808841  s :     3.808841
      pz      :     1.734837  p :     4.891220
      px      :     1.370843
      py      :     1.785540
      dz2     :     0.004288  d :     0.024632
      dxz     :     0.004840
      dyz     :     0.005588
      dx2y2   :     0.002590
      dxy     :     0.007326
      f0      :     0.000093  f :     0.001513
      f+1     :     0.000350
      f-1     :     0.000186
      f+2     :     0.000063
      f-2     :     0.000358
      f+3     :     0.000092
      f-3     :     0.000372
  1 H s       :     0.589750  s :     0.589750
      pz      :     0.017118  p :     0.045313
      px      :     0.013371
      py      :     0.014825
  2 H s       :     0.585627  s :     0.585627
      pz      :     0.011017  p :     0.041166
      px      :     0.017967
      py      :     0.012182
  3 O s       :     3.809304  s :     3.809304
      pz      :     1.707859  p :     4.928173
      px      :     1.810536
      py      :     1.409779
      dz2     :     0.003536  d :     0.023074
      dxz     :     0.005518
      dyz     :     0.004090
      dx2y2   :     0.002295
      dxy     :     0.007633
      f0      :     0.000078  f :     0.001432
      f+1     :     0.000177
      f-1     :     0.000310
      f+2     :     0.000070
      f-2     :     0.000348
      f+3     :     0.000359
      f-3     :     0.000090
  4 H s       :     0.604421  s :     0.604421
      pz      :     0.016839  p :     0.045810
      px      :     0.015023
      py      :     0.013949
  5 H s       :     0.548519  s :     0.548519
      pz      :     0.010439  p :     0.056598
      px      :     0.014274
      py      :     0.031885
  6 O s       :     3.802755  s :     3.802755
      pz      :     1.619862  p :     4.923315
      px      :     1.850827
      py      :     1.452627
      dz2     :     0.010508  d :     0.023829
      dxz     :     0.002127
      dyz     :     0.002502
      dx2y2   :     0.003509
      dxy     :     0.005182
      f0      :     0.000162  f :     0.001387
      f+1     :     0.000113
      f-1     :     0.000438
      f+2     :     0.000070
      f-2     :     0.000036
      f+3     :     0.000457
      f-3     :     0.000111
  7 H s       :     0.614212  s :     0.614212
      pz      :     0.009704  p :     0.042365
      px      :     0.014373
      py      :     0.018287
  8 H s       :     0.540169  s :     0.540169
      pz      :     0.025643  p :     0.048506
      px      :     0.012109
      py      :     0.010753
  9 O s       :     3.810473  s :     3.810473
      pz      :     1.527177  p :     4.912193
      px      :     1.506014
      py      :     1.879002
      dz2     :     0.011570  d :     0.024995
      dxz     :     0.002935
      dyz     :     0.002511
      dx2y2   :     0.003029
      dxy     :     0.004950
      f0      :     0.000185  f :     0.001451
      f+1     :     0.000454
      f-1     :     0.000125
      f+2     :     0.000078
      f-2     :     0.000042
      f+3     :     0.000117
      f-3     :     0.000449
 10 H s       :     0.617315  s :     0.617315
      pz      :     0.018383  p :     0.044661
      px      :     0.012076
      py      :     0.014202
 11 H s       :     0.558823  s :     0.558823
      pz      :     0.009623  p :     0.053773
      px      :     0.028585
      py      :     0.015565
 12 O s       :     3.800559  s :     3.800559
      pz      :     1.522043  p :     4.877429
      px      :     1.563828
      py      :     1.791558
      dz2     :     0.012607  d :     0.026035
      dxz     :     0.001267
      dyz     :     0.002504
      dx2y2   :     0.002508
      dxy     :     0.007149
      f0      :     0.000251  f :     0.001452
      f+1     :     0.000394
      f-1     :     0.000163
      f+2     :     0.000051
      f-2     :     0.000057
      f+3     :     0.000053
      f-3     :     0.000482
 13 H s       :     0.594092  s :     0.594092
      pz      :     0.019344  p :     0.043940
      px      :     0.011828
      py      :     0.012769
 14 H s       :     0.575442  s :     0.575442
      pz      :     0.010016  p :     0.043132
      px      :     0.018613
      py      :     0.014503
 15 O s       :     3.805471  s :     3.805471
      pz      :     1.547787  p :     4.921615
      px      :     1.818823
      py      :     1.555005
      dz2     :     0.011426  d :     0.024770
      dxz     :     0.002918
      dyz     :     0.001224
      dx2y2   :     0.002062
      dxy     :     0.007140
      f0      :     0.000253  f :     0.001446
      f+1     :     0.000161
      f-1     :     0.000371
      f+2     :     0.000056
      f-2     :     0.000055
      f+3     :     0.000485
      f-3     :     0.000065
 16 H s       :     0.569525  s :     0.569525
      pz      :     0.023925  p :     0.048659
      px      :     0.013113
      py      :     0.011621
 17 H s       :     0.590127  s :     0.590127
      pz      :     0.010440  p :     0.050689
      px      :     0.016779
      py      :     0.023470


                     *******************************
                     * LOEWDIN POPULATION ANALYSIS *
                     *******************************

----------------------
LOEWDIN ATOMIC CHARGES
----------------------
   0 O :   -0.319619
   1 H :    0.164310
   2 H :    0.189718
   3 O :   -0.342073
   4 H :    0.155622
   5 H :    0.152889
   6 O :   -0.294167
   7 H :    0.166960
   8 H :    0.164403
   9 O :   -0.366145
  10 H :    0.158033
  11 H :    0.150991
  12 O :   -0.275898
  13 H :    0.171250
  14 H :    0.182927
  15 O :   -0.357832
  16 H :    0.152791
  17 H :    0.145838

-------------------------------
LOEWDIN REDUCED ORBITAL CHARGES
-------------------------------
  0 O s       :     3.468638  s :     3.468638
      pz      :     1.712094  p :     4.817137
      px      :     1.360510
      py      :     1.744534
      dz2     :     0.005016  d :     0.031754
      dxz     :     0.006967
      dyz     :     0.005498
      dx2y2   :     0.004348
      dxy     :     0.009925
      f0      :     0.000078  f :     0.002089
      f+1     :     0.000461
      f-1     :     0.000275
      f+2     :     0.000033
      f-2     :     0.000610
      f+3     :     0.000091
      f-3     :     0.000541
  1 H s       :     0.672133  s :     0.672133
      pz      :     0.066361  p :     0.163557
      px      :     0.044370
      py      :     0.052826
  2 H s       :     0.662038  s :     0.662038
      pz      :     0.033277  p :     0.148244
      px      :     0.071464
      py      :     0.043503
  3 O s       :     3.461034  s :     3.461034
      pz      :     1.675947  p :     4.849537
      px      :     1.780975
      py      :     1.392615
      dz2     :     0.004595  d :     0.029514
      dxz     :     0.005686
      dyz     :     0.006614
      dx2y2   :     0.003289
      dxy     :     0.009329
      f0      :     0.000080  f :     0.001987
      f+1     :     0.000262
      f-1     :     0.000427
      f+2     :     0.000034
      f-2     :     0.000613
      f+3     :     0.000486
      f-3     :     0.000085
  4 H s       :     0.679658  s :     0.679658
      pz      :     0.065695  p :     0.164719
      px      :     0.053313
      py      :     0.045711
  5 H s       :     0.652645  s :     0.652645
      pz      :     0.033569  p :     0.194467
      px      :     0.047669
      py      :     0.113228
  6 O s       :     3.457533  s :     3.457533
      pz      :     1.568663  p :     4.803166
      px      :     1.787274
      py      :     1.447229
      dz2     :     0.014307  d :     0.031439
      dxz     :     0.001289
      dyz     :     0.003439
      dx2y2   :     0.005493
      dxy     :     0.006911
      f0      :     0.000322  f :     0.002028
      f+1     :     0.000202
      f-1     :     0.000704
      f+2     :     0.000037
      f-2     :     0.000041
      f+3     :     0.000646
      f-3     :     0.000077
  7 H s       :     0.678800  s :     0.678800
      pz      :     0.031026  p :     0.154240
      px      :     0.049445
      py      :     0.073770
  8 H s       :     0.661015  s :     0.661015
      pz      :     0.096961  p :     0.174582
      px      :     0.042076
      py      :     0.035545
  9 O s       :     3.471122  s :     3.471122
      pz      :     1.538536  p :     4.862182
      px      :     1.483000
      py      :     1.840646
      dz2     :     0.014987  d :     0.030787
      dxz     :     0.004353
      dyz     :     0.001673
      dx2y2   :     0.003847
      dxy     :     0.005927
      f0      :     0.000391  f :     0.002055
      f+1     :     0.000756
      f-1     :     0.000195
      f+2     :     0.000049
      f-2     :     0.000046
      f+3     :     0.000066
      f-3     :     0.000552
 10 H s       :     0.683343  s :     0.683343
      pz      :     0.078531  p :     0.158624
      px      :     0.036625
      py      :     0.043468
 11 H s       :     0.665251  s :     0.665251
      pz      :     0.029151  p :     0.183757
      px      :     0.102039
      py      :     0.052567
 12 O s       :     3.458950  s :     3.458950
      pz      :     1.515468  p :     4.781121
      px      :     1.535844
      py      :     1.729809
      dz2     :     0.016942  d :     0.033631
      dxz     :     0.002023
      dyz     :     0.002007
      dx2y2   :     0.003648
      dxy     :     0.009010
      f0      :     0.000464  f :     0.002197
      f+1     :     0.000590
      f-1     :     0.000345
      f+2     :     0.000022
      f-2     :     0.000049
      f+3     :     0.000027
      f-3     :     0.000701
 13 H s       :     0.670053  s :     0.670053
      pz      :     0.081042  p :     0.158697
      px      :     0.035751
      py      :     0.041905
 14 H s       :     0.659297  s :     0.659297
      pz      :     0.029494  p :     0.157776
      px      :     0.073397
      py      :     0.054885
 15 O s       :     3.460884  s :     3.460884
      pz      :     1.532333  p :     4.864538
      px      :     1.791510
      py      :     1.540695
      dz2     :     0.014957  d :     0.030367
      dxz     :     0.002263
      dyz     :     0.001907
      dx2y2   :     0.002154
      dxy     :     0.009085
      f0      :     0.000448  f :     0.002044
      f+1     :     0.000306
      f-1     :     0.000547
      f+2     :     0.000023
      f-2     :     0.000047
      f+3     :     0.000670
      f-3     :     0.000002
 16 H s       :     0.676255  s :     0.676255
      pz      :     0.091843  p :     0.170954
      px      :     0.042314
      py      :     0.036797
 17 H s       :     0.681231  s :     0.681231
      pz      :     0.031294  p :     0.172931
      px      :     0.057778
      py      :     0.083859


                      *****************************
                      * MAYER POPULATION ANALYSIS *
                      *****************************

  NA   - Mulliken gross atomic population
  ZA   - Total nuclear charge
  QA   - Mulliken gross atomic charge
  VA   - Mayer's total valence
  BVA  - Mayer's bonded valence
  FA   - Mayer's free valence

  ATOM       NA         ZA         QA         VA         BVA        FA
  0 O      8.7262     8.0000    -0.7262     1.7611     1.7611    -0.0000
  1 H      0.6351     1.0000     0.3649     0.8823     0.8823    -0.0000
  2 H      0.6268     1.0000     0.3732     0.8742     0.8742    -0.0000
  3 O      8.7620     8.0000    -0.7620     1.7049     1.7049     0.0000
  4 H      0.6502     1.0000     0.3498     0.8941     0.8941     0.0000
  5 H      0.6051     1.0000     0.3949     0.8769     0.8769     0.0000
  6 O      8.7513     8.0000    -0.7513     1.7334     1.7334    -0.0000
  7 H      0.6566     1.0000     0.3434     0.9026     0.9026    -0.0000
  8 H      0.5887     1.0000     0.4113     0.8665     0.8665    -0.0000
  9 O      8.7491     8.0000    -0.7491     1.7184     1.7184     0.0000
 10 H      0.6620     1.0000     0.3380     0.9015     0.9015     0.0000
 11 H      0.6126     1.0000     0.3874     0.8844     0.8844    -0.0000
 12 O      8.7055     8.0000    -0.7055     1.7785     1.7785    -0.0000
 13 H      0.6380     1.0000     0.3620     0.8843     0.8843    -0.0000
 14 H      0.6186     1.0000     0.3814     0.8681     0.8681    -0.0000
 15 O      8.7533     8.0000    -0.7533     1.7295     1.7295    -0.0000
 16 H      0.6182     1.0000     0.3818     0.8769     0.8769    -0.0000
 17 H      0.6408     1.0000     0.3592     0.9013     0.9013     0.0000

  Mayer bond orders larger than 0.100000
B(  0-O ,  1-H ) :   0.8748 B(  0-O ,  2-H ) :   0.8651 B(  3-O ,  4-H ) :   0.8859 
B(  3-O ,  5-H ) :   0.8081 B(  6-O ,  7-H ) :   0.8836 B(  6-O ,  8-H ) :   0.8133 
B(  9-O , 10-H ) :   0.8950 B(  9-O , 11-H ) :   0.8346 B( 12-O , 13-H ) :   0.8764 
B( 12-O , 14-H ) :   0.8622 B( 15-O , 16-H ) :   0.8587 B( 15-O , 17-H ) :   0.8687 


-------
TIMINGS
-------

Total SCF time: 0 days 0 hours 0 min 10 sec 

Total time                  ....      10.761 sec
Sum of individual times     ....      10.517 sec  ( 97.7%)

Fock matrix formation       ....      10.173 sec  ( 94.5%)
Diagonalization             ....       0.075 sec  (  0.7%)
Density matrix formation    ....       0.008 sec  (  0.1%)
Population analysis         ....       0.008 sec  (  0.1%)
Initial guess               ....       0.140 sec  (  1.3%)
Orbital Transformation      ....       0.000 sec  (  0.0%)
Orbital Orthonormalization  ....       0.000 sec  (  0.0%)
DIIS solution               ....       0.027 sec  (  0.2%)
SOSCF solution              ....       0.031 sec  (  0.3%)


           ************************************************************
           *        Program running with 6 parallel MPI-processes     *
           *              working on a common directory               *
           ************************************************************

------------------------------------------------------------------------------
                                ORCA  MP2 
------------------------------------------------------------------------------

Freezing NCore=12 chemical core electrons
MP2 will be done in the AO integral direct mode
The Q1-step will be done using symmetric double matrices
Dimension of the basis                    ...  258
Memory devoted for MP2                    ... 8000 MB   
Memory needed for all in one shot         ...  264 MB
Number of MOs that can be treated together...  120      
MP2 density construction                  ... relaxed
The MP2 gradient is requested => amplitudes will be stored on disk
Total number of MOs              ...   24
Number of MOs treated per batch  ...    4 
Number of batches necessary      ...    1 
OPERATORS   0/  0 PASS   0
-----------------------------------------------
 MP2 CORRELATION ENERGY   :     -1.548849702 Eh
-----------------------------------------------


---------------------
MP2 DENSITY FORMATION
---------------------

Completing the external part of the density      ... done
Storing the unrelaxed density                    ... done

Calculating G(D)                                 ... done
Completing the Lagrangian                        ... done
Solving the Z-vector equations                   ... 

------------------------------------------------------------------------------
                           ORCA CP-SCF CALCULATION
------------------------------------------------------------------------------

Input orbitals are from        ... 12h2o.su.etal.mol0,2,5,7,8,9-orca.engrad-mp2.def2tzvp.frozencore.gbw
Input Perturbation             ... 12h2o.su.etal.mol0,2,5,7,8,9-orca.engrad-mp2.def2tzvp.frozencore.pin.tmp
Wavefunction output            ... 12h2o.su.etal.mol0,2,5,7,8,9-orca.engrad-mp2.def2tzvp.frozencore.pout.tmp
Perturbation mode              ... Real perturbation (singlet)
Solver                         ... POPLE
Max. number of iterations      ... 128
Convergence tolerance          ... 1.000e-08
Integral handling              ... Direct
Number of perturbations        ... 1
Number of operators            ... 1
Orbital ranges used for CP-SCF:
 Operator 0:  Orbitals   0... 29  to  30...257
Variables per vector in CP-SCF ... 6840
Number of vectors sought       ... 1
     CP-SCF ITERATION   0: 
     CP-SCF ITERATION   1:      0.000743031079
     CP-SCF ITERATION   2:      0.000017978048
     CP-SCF ITERATION   3:      0.000000759189
     CP-SCF ITERATION   4:      0.000000073731
     CP-SCF ITERATION   5:      0.000000006053
                                                 ... done
Finalizing the relaxed density                   ... done
Transforming P to the AO basis                   ... done
Storing the relaxed density                      ... done

------------------------------------
ENERGY WEIGHTED DENSITY FINALIZATION
------------------------------------

Gathering the parts of the W-matrix              ...                                                      done
Forming the Z-density                            ... done
Transforming Z to the AO basis                   ... done
Calculating G(Z)                                 ... done
Finalizing the W-matrix                          ...                                                      done
Transforming W to the AO basis and storing       ... done

                *********************************************
                * UNRELAXED MP2 DENSITY POPULATION ANALYSIS *
                *********************************************

------------------------------------------------------------------------------
                           ORCA POPULATION ANALYSIS
------------------------------------------------------------------------------
Input electron density              ... 12h2o.su.etal.mol0,2,5,7,8,9-orca.engrad-mp2.def2tzvp.frozencore.pmp2ur
BaseName (.gbw .S,...)              ... 12h2o.su.etal.mol0,2,5,7,8,9-orca.engrad-mp2.def2tzvp.frozencore

                    ********************************
                    * MULLIKEN POPULATION ANALYSIS *
                    ********************************

-----------------------
MULLIKEN ATOMIC CHARGES
-----------------------
   0 O :   -0.720865
   1 H :    0.362748
   2 H :    0.370461
   3 O :   -0.755916
   4 H :    0.347520
   5 H :    0.390429
   6 O :   -0.744869
   7 H :    0.340492
   8 H :    0.408116
   9 O :   -0.743569
  10 H :    0.335529
  11 H :    0.383337
  12 O :   -0.699271
  13 H :    0.359526
  14 H :    0.379053
  15 O :   -0.747562
  16 H :    0.378879
  17 H :    0.355962
Sum of atomic charges:    0.0000000

--------------------------------
MULLIKEN REDUCED ORBITAL CHARGES
--------------------------------
  0 O s       :     3.803977  s :     3.803977
      pz      :     1.724231  p :     4.861356
      px      :     1.363263
      py      :     1.773862
      dz2     :     0.009682  d :     0.051465
      dxz     :     0.010125
      dyz     :     0.010991
      dx2y2   :     0.008038
      dxy     :     0.012629
      f0      :     0.000461  f :     0.004067
      f+1     :     0.000710
      f-1     :     0.000550
      f+2     :     0.000431
      f-2     :     0.000721
      f+3     :     0.000463
      f-3     :     0.000731
  1 H s       :     0.590379  s :     0.590379
      pz      :     0.017592  p :     0.046874
      px      :     0.013753
      py      :     0.015529
  2 H s       :     0.586841  s :     0.586841
      pz      :     0.011851  p :     0.042698
      px      :     0.017912
      py      :     0.012936
  3 O s       :     3.804419  s :     3.804419
      pz      :     1.696825  p :     4.896970
      px      :     1.799057
      py      :     1.401089
      dz2     :     0.009178  d :     0.050514
      dxz     :     0.010961
      dyz     :     0.009577
      dx2y2   :     0.007820
      dxy     :     0.012978
      f0      :     0.000450  f :     0.004013
      f+1     :     0.000543
      f-1     :     0.000676
      f+2     :     0.000440
      f-2     :     0.000714
      f+3     :     0.000725
      f-3     :     0.000464
  4 H s       :     0.605028  s :     0.605028
      pz      :     0.017315  p :     0.047452
      px      :     0.015751
      py      :     0.014387
  5 H s       :     0.551307  s :     0.551307
      pz      :     0.011263  p :     0.058264
      px      :     0.015016
      py      :     0.031985
  6 O s       :     3.797663  s :     3.797663
      pz      :     1.609655  p :     4.891711
      px      :     1.838165
      py      :     1.443891
      dz2     :     0.015964  d :     0.051513
      dxz     :     0.007859
      dyz     :     0.007956
      dx2y2   :     0.009075
      dxy     :     0.010658
      f0      :     0.000552  f :     0.003982
      f+1     :     0.000492
      f-1     :     0.000808
      f+2     :     0.000436
      f-2     :     0.000404
      f+3     :     0.000811
      f-3     :     0.000479
  7 H s       :     0.615491  s :     0.615491
      pz      :     0.010545  p :     0.044017
      px      :     0.015130
      py      :     0.018342
  8 H s       :     0.541981  s :     0.541981
      pz      :     0.025726  p :     0.049903
      px      :     0.012894
      py      :     0.011283
  9 O s       :     3.805475  s :     3.805475
      pz      :     1.518030  p :     4.882253
      px      :     1.496991
      py      :     1.867232
      dz2     :     0.016635  d :     0.051827
      dxz     :     0.008286
      dyz     :     0.008001
      dx2y2   :     0.008537
      dxy     :     0.010367
      f0      :     0.000564  f :     0.004015
      f+1     :     0.000820
      f-1     :     0.000494
      f+2     :     0.000439
      f-2     :     0.000407
      f+3     :     0.000484
      f-3     :     0.000806
 10 H s       :     0.618098  s :     0.618098
      pz      :     0.018533  p :     0.046373
      px      :     0.012748
      py      :     0.015092
 11 H s       :     0.561194  s :     0.561194
      pz      :     0.010449  p :     0.055470
      px      :     0.028743
      py      :     0.016278
 12 O s       :     3.795394  s :     3.795394
      pz      :     1.512955  p :     4.846823
      px      :     1.554592
      py      :     1.779275
      dz2     :     0.017662  d :     0.053020
      dxz     :     0.006636
      dyz     :     0.008055
      dx2y2   :     0.008124
      dxy     :     0.012542
      f0      :     0.000630  f :     0.004034
      f+1     :     0.000759
      f-1     :     0.000539
      f+2     :     0.000413
      f-2     :     0.000423
      f+3     :     0.000428
      f-3     :     0.000843
 13 H s       :     0.594960  s :     0.594960
      pz      :     0.019425  p :     0.045513
      px      :     0.012496
      py      :     0.013592
 14 H s       :     0.576321  s :     0.576321
      pz      :     0.010758  p :     0.044627
      px      :     0.018764
      py      :     0.015105
 15 O s       :     3.800658  s :     3.800658
      pz      :     1.538341  p :     4.891146
      px      :     1.807244
      py      :     1.545560
      dz2     :     0.016601  d :     0.051737
      dxz     :     0.008421
      dyz     :     0.006674
      dx2y2   :     0.007625
      dxy     :     0.012416
      f0      :     0.000634  f :     0.004020
      f+1     :     0.000535
      f-1     :     0.000740
      f+2     :     0.000416
      f-2     :     0.000421
      f+3     :     0.000841
      f-3     :     0.000434
 16 H s       :     0.570870  s :     0.570870
      pz      :     0.023995  p :     0.050251
      px      :     0.013960
      py      :     0.012296
 17 H s       :     0.591687  s :     0.591687
      pz      :     0.011257  p :     0.052351
      px      :     0.017415
      py      :     0.023679


                     *******************************
                     * LOEWDIN POPULATION ANALYSIS *
                     *******************************

----------------------
LOEWDIN ATOMIC CHARGES
----------------------
   0 O :   -0.315999
   1 H :    0.163190
   2 H :    0.188032
   3 O :   -0.338635
   4 H :    0.154358
   5 H :    0.150347
   6 O :   -0.289468
   7 H :    0.164943
   8 H :    0.162336
   9 O :   -0.363570
  10 H :    0.156514
  11 H :    0.148516
  12 O :   -0.271645
  13 H :    0.169818
  14 H :    0.181653
  15 O :   -0.354937
  16 H :    0.150838
  17 H :    0.143707

-------------------------------
LOEWDIN REDUCED ORBITAL CHARGES
-------------------------------
  0 O s       :     3.464873  s :     3.464873
      pz      :     1.701524  p :     4.786660
      px      :     1.352514
      py      :     1.732622
      dz2     :     0.010531  d :     0.059631
      dxz     :     0.012469
      dyz     :     0.011176
      dx2y2   :     0.009888
      dxy     :     0.015567
      f0      :     0.000455  f :     0.004835
      f+1     :     0.000868
      f-1     :     0.000660
      f+2     :     0.000408
      f-2     :     0.001016
      f+3     :     0.000475
      f-3     :     0.000954
  1 H s       :     0.670279  s :     0.670279
      pz      :     0.067539  p :     0.166531
      px      :     0.045185
      py      :     0.053806
  2 H s       :     0.660697  s :     0.660697
      pz      :     0.034097  p :     0.151271
      px      :     0.072687
      py      :     0.044488
  3 O s       :     3.457367  s :     3.457367
      pz      :     1.664455  p :     4.818445
      px      :     1.769855
      py      :     1.384135
      dz2     :     0.010325  d :     0.058057
      dxz     :     0.011452
      dyz     :     0.012310
      dx2y2   :     0.008924
      dxy     :     0.015048
      f0      :     0.000465  f :     0.004766
      f+1     :     0.000647
      f-1     :     0.000841
      f+2     :     0.000411
      f-2     :     0.001024
      f+3     :     0.000906
      f-3     :     0.000472
  4 H s       :     0.677752  s :     0.677752
      pz      :     0.066926  p :     0.167890
      px      :     0.054325
      py      :     0.046639
  5 H s       :     0.652695  s :     0.652695
      pz      :     0.034408  p :     0.196958
      px      :     0.048565
      py      :     0.113985
  6 O s       :     3.453725  s :     3.453725
      pz      :     1.558099  p :     4.770721
      px      :     1.774552
      py      :     1.438070
      dz2     :     0.020344  d :     0.060198
      dxz     :     0.006943
      dyz     :     0.008946
      dx2y2   :     0.011254
      dxy     :     0.012712
      f0      :     0.000743  f :     0.004823
      f+1     :     0.000597
      f-1     :     0.001143
      f+2     :     0.000410
      f-2     :     0.000415
      f+3     :     0.001057
      f-3     :     0.000456
  7 H s       :     0.677443  s :     0.677443
      pz      :     0.031898  p :     0.157614
      px      :     0.050442
      py      :     0.075273
  8 H s       :     0.660479  s :     0.660479
      pz      :     0.098122  p :     0.177185
      px      :     0.042824
      py      :     0.036239
  9 O s       :     3.467400  s :     3.467400
      pz      :     1.529055  p :     4.832616
      px      :     1.474106
      py      :     1.829455
      dz2     :     0.020711  d :     0.058741
      dxz     :     0.009714
      dyz     :     0.007097
      dx2y2   :     0.009539
      dxy     :     0.011679
      f0      :     0.000801  f :     0.004813
      f+1     :     0.001190
      f-1     :     0.000579
      f+2     :     0.000418
      f-2     :     0.000417
      f+3     :     0.000444
      f-3     :     0.000964
 10 H s       :     0.681533  s :     0.681533
      pz      :     0.080225  p :     0.161953
      px      :     0.037456
      py      :     0.044272
 11 H s       :     0.664934  s :     0.664934
      pz      :     0.029971  p :     0.186550
      px      :     0.103150
      py      :     0.053429
 12 O s       :     3.455074  s :     3.455074
      pz      :     1.506069  p :     4.749969
      px      :     1.526445
      py      :     1.717455
      dz2     :     0.022702  d :     0.061627
      dxz     :     0.007335
      dyz     :     0.007485
      dx2y2   :     0.009232
      dxy     :     0.014873
      f0      :     0.000884  f :     0.004975
      f+1     :     0.001009
      f-1     :     0.000744
      f+2     :     0.000389
      f-2     :     0.000422
      f+3     :     0.000407
      f-3     :     0.001121
 13 H s       :     0.668405  s :     0.668405
      pz      :     0.082572  p :     0.161777
      px      :     0.036486
      py      :     0.042718
 14 H s       :     0.657688  s :     0.657688
      pz      :     0.030203  p :     0.160659
      px      :     0.074602
      py      :     0.055854
 15 O s       :     3.457227  s :     3.457227
      pz      :     1.522799  p :     4.834428
      px      :     1.780398
      py      :     1.531230
      dz2     :     0.020817  d :     0.058468
      dxz     :     0.007711
      dyz     :     0.007317
      dx2y2   :     0.007694
      dxy     :     0.014929
      f0      :     0.000870  f :     0.004814
      f+1     :     0.000703
      f-1     :     0.000971
      f+2     :     0.000388
      f-2     :     0.000420
      f+3     :     0.001085
      f-3     :     0.000376
 16 H s       :     0.675218  s :     0.675218
      pz      :     0.093236  p :     0.173944
      px      :     0.043134
      py      :     0.037573
 17 H s       :     0.680291  s :     0.680291
      pz      :     0.032086  p :     0.176002
      px      :     0.058773
      py      :     0.085143


                      *****************************
                      * MAYER POPULATION ANALYSIS *
                      *****************************

  NA   - Mulliken gross atomic population
  ZA   - Total nuclear charge
  QA   - Mulliken gross atomic charge
  VA   - Mayer's total valence
  BVA  - Mayer's bonded valence
  FA   - Mayer's free valence

  ATOM       NA         ZA         QA         VA         BVA        FA
  0 O      8.7209     8.0000    -0.7209     2.0702     1.6807     0.3894
  1 H      0.6373     1.0000     0.3627     0.8878     0.8428     0.0450
  2 H      0.6295     1.0000     0.3705     0.8802     0.8330     0.0473
  3 O      8.7559     8.0000    -0.7559     2.0195     1.6262     0.3933
  4 H      0.6525     1.0000     0.3475     0.8999     0.8532     0.0467
  5 H      0.6096     1.0000     0.3904     0.8844     0.8383     0.0461
  6 O      8.7449     8.0000    -0.7449     2.0476     1.6541     0.3936
  7 H      0.6595     1.0000     0.3405     0.9093     0.8593     0.0500
  8 H      0.5919     1.0000     0.4081     0.8725     0.8298     0.0427
  9 O      8.7436     8.0000    -0.7436     2.0291     1.6386     0.3905
 10 H      0.6645     1.0000     0.3355     0.9077     0.8591     0.0486
 11 H      0.6167     1.0000     0.3833     0.8917     0.8458     0.0459
 12 O      8.6993     8.0000    -0.6993     2.0841     1.6984     0.3857
 13 H      0.6405     1.0000     0.3595     0.8901     0.8438     0.0463
 14 H      0.6209     1.0000     0.3791     0.8736     0.8289     0.0446
 15 O      8.7476     8.0000    -0.7476     2.0410     1.6507     0.3903
 16 H      0.6211     1.0000     0.3789     0.8830     0.8381     0.0449
 17 H      0.6440     1.0000     0.3560     0.9080     0.8612     0.0468

  Mayer bond orders larger than 0.100000
B(  0-O ,  1-H ) :   0.8359 B(  0-O ,  2-H ) :   0.8244 B(  3-O ,  4-H ) :   0.8456 
B(  3-O ,  5-H ) :   0.7712 B(  6-O ,  7-H ) :   0.8413 B(  6-O ,  8-H ) :   0.7784 
B(  9-O , 10-H ) :   0.8531 B(  9-O , 11-H ) :   0.7973 B( 12-O , 13-H ) :   0.8364 
B( 12-O , 14-H ) :   0.8235 B( 15-O , 16-H ) :   0.8205 B( 15-O , 17-H ) :   0.8294 



                *******************************************
                * RELAXED MP2 DENSITY POPULATION ANALYSIS *
                *******************************************

------------------------------------------------------------------------------
                           ORCA POPULATION ANALYSIS
------------------------------------------------------------------------------
Input electron density              ... 12h2o.su.etal.mol0,2,5,7,8,9-orca.engrad-mp2.def2tzvp.frozencore.pmp2re
BaseName (.gbw .S,...)              ... 12h2o.su.etal.mol0,2,5,7,8,9-orca.engrad-mp2.def2tzvp.frozencore

                    ********************************
                    * MULLIKEN POPULATION ANALYSIS *
                    ********************************

-----------------------
MULLIKEN ATOMIC CHARGES
-----------------------
   0 O :   -0.701869
   1 H :    0.355917
   2 H :    0.363681
   3 O :   -0.730874
   4 H :    0.341006
   5 H :    0.369361
   6 O :   -0.715646
   7 H :    0.331793
   8 H :    0.389530
   9 O :   -0.726077
  10 H :    0.328951
  11 H :    0.362762
  12 O :   -0.676646
  13 H :    0.353734
  14 H :    0.372941
  15 O :   -0.725677
  16 H :    0.366460
  17 H :    0.340654
Sum of atomic charges:   -0.0000000

--------------------------------
MULLIKEN REDUCED ORBITAL CHARGES
--------------------------------
  0 O s       :     3.807762  s :     3.807762
      pz      :     1.718537  p :     4.840843
      px      :     1.360496
      py      :     1.761810
      dz2     :     0.009405  d :     0.049271
      dxz     :     0.009549
      dyz     :     0.010728
      dx2y2   :     0.007784
      dxy     :     0.011805
      f0      :     0.000459  f :     0.003993
      f+1     :     0.000691
      f-1     :     0.000542
      f+2     :     0.000430
      f-2     :     0.000700
      f+3     :     0.000461
      f-3     :     0.000710
  1 H s       :     0.596519  s :     0.596519
      pz      :     0.017654  p :     0.047564
      px      :     0.013685
      py      :     0.016225
  2 H s       :     0.593053  s :     0.593053
      pz      :     0.012692  p :     0.043266
      px      :     0.016932
      py      :     0.013642
  3 O s       :     3.806539  s :     3.806539
      pz      :     1.685147  p :     4.871764
      px      :     1.793340
      py      :     1.393277
      dz2     :     0.009011  d :     0.048626
      dxz     :     0.010649
      dyz     :     0.009015
      dx2y2   :     0.007711
      dxy     :     0.012240
      f0      :     0.000448  f :     0.003946
      f+1     :     0.000535
      f-1     :     0.000658
      f+2     :     0.000440
      f-2     :     0.000695
      f+3     :     0.000708
      f-3     :     0.000462
  4 H s       :     0.610782  s :     0.610782
      pz      :     0.017416  p :     0.048213
      px      :     0.016391
      py      :     0.014405
  5 H s       :     0.572090  s :     0.572090
      pz      :     0.011999  p :     0.058549
      px      :     0.015582
      py      :     0.030968
  6 O s       :     3.799133  s :     3.799133
      pz      :     1.602945  p :     4.863083
      px      :     1.823751
      py      :     1.436387
      dz2     :     0.014962  d :     0.049519
      dxz     :     0.007908
      dyz     :     0.007709
      dx2y2   :     0.008783
      dxy     :     0.010157
      f0      :     0.000540  f :     0.003910
      f+1     :     0.000486
      f-1     :     0.000779
      f+2     :     0.000435
      f-2     :     0.000402
      f+3     :     0.000790
      f-3     :     0.000477
  7 H s       :     0.623365  s :     0.623365
      pz      :     0.011375  p :     0.044842
      px      :     0.015957
      py      :     0.017510
  8 H s       :     0.560038  s :     0.560038
      pz      :     0.025077  p :     0.050432
      px      :     0.013723
      py      :     0.011632
  9 O s       :     3.805559  s :     3.805559
      pz      :     1.511421  p :     4.866774
      px      :     1.493610
      py      :     1.861743
      dz2     :     0.015432  d :     0.049797
      dxz     :     0.008032
      dyz     :     0.008036
      dx2y2   :     0.008337
      dxy     :     0.009960
      f0      :     0.000551  f :     0.003948
      f+1     :     0.000792
      f-1     :     0.000488
      f+2     :     0.000439
      f-2     :     0.000406
      f+3     :     0.000483
      f-3     :     0.000789
 10 H s       :     0.623923  s :     0.623923
      pz      :     0.017873  p :     0.047127
      px      :     0.013181
      py      :     0.016073
 11 H s       :     0.581433  s :     0.581433
      pz      :     0.011153  p :     0.055805
      px      :     0.027836
      py      :     0.016816
 12 O s       :     3.797868  s :     3.797868
      pz      :     1.508629  p :     4.823908
      px      :     1.551004
      py      :     1.764276
      dz2     :     0.016305  d :     0.050913
      dxz     :     0.006582
      dyz     :     0.008044
      dx2y2   :     0.008090
      dxy     :     0.011892
      f0      :     0.000611  f :     0.003958
      f+1     :     0.000737
      f-1     :     0.000529
      f+2     :     0.000413
      f-2     :     0.000421
      f+3     :     0.000428
      f-3     :     0.000818
 13 H s       :     0.600122  s :     0.600122
      pz      :     0.018671  p :     0.046144
      px      :     0.013018
      py      :     0.014455
 14 H s       :     0.581915  s :     0.581915
      pz      :     0.011377  p :     0.045143
      px      :     0.018240
      py      :     0.015526
 15 O s       :     3.798796  s :     3.798796
      pz      :     1.533844  p :     4.873164
      px      :     1.799581
      py      :     1.539739
      dz2     :     0.015405  d :     0.049766
      dxz     :     0.008393
      dyz     :     0.006641
      dx2y2   :     0.007577
      dxy     :     0.011751
      f0      :     0.000618  f :     0.003951
      f+1     :     0.000525
      f-1     :     0.000719
      f+2     :     0.000417
      f-2     :     0.000420
      f+3     :     0.000818
      f-3     :     0.000435
 16 H s       :     0.582778  s :     0.582778
      pz      :     0.023137  p :     0.050763
      px      :     0.014855
      py      :     0.012771
 17 H s       :     0.606315  s :     0.606315
      pz      :     0.011976  p :     0.053032
      px      :     0.017905
      py      :     0.023151


                     *******************************
                     * LOEWDIN POPULATION ANALYSIS *
                     *******************************

----------------------
LOEWDIN ATOMIC CHARGES
----------------------
   0 O :   -0.314335
   1 H :    0.164797
   2 H :    0.189287
   3 O :   -0.335493
   4 H :    0.156352
   5 H :    0.143459
   6 O :   -0.281735
   7 H :    0.165410
   8 H :    0.157082
   9 O :   -0.366025
  10 H :    0.157883
  11 H :    0.141876
  12 O :   -0.266446
  13 H :    0.171429
  14 H :    0.183325
  15 O :   -0.354495
  16 H :    0.147640
  17 H :    0.139989

-------------------------------
LOEWDIN REDUCED ORBITAL CHARGES
-------------------------------
  0 O s       :     3.466674  s :     3.466674
      pz      :     1.700832  p :     4.784362
      px      :     1.357773
      py      :     1.725757
      dz2     :     0.010372  d :     0.058444
      dxz     :     0.012098
      dyz     :     0.011141
      dx2y2   :     0.009691
      dxy     :     0.015143
      f0      :     0.000458  f :     0.004854
      f+1     :     0.000874
      f-1     :     0.000660
      f+2     :     0.000408
      f-2     :     0.001017
      f+3     :     0.000478
      f-3     :     0.000960
  1 H s       :     0.668870  s :     0.668870
      pz      :     0.067532  p :     0.166333
      px      :     0.044446
      py      :     0.054355
  2 H s       :     0.659502  s :     0.659502
      pz      :     0.034807  p :     0.151211
      px      :     0.071218
      py      :     0.045186
  3 O s       :     3.458886  s :     3.458886
      pz      :     1.658658  p :     4.814416
      px      :     1.768208
      py      :     1.387550
      dz2     :     0.010359  d :     0.057388
      dxz     :     0.011383
      dyz     :     0.011967
      dx2y2   :     0.008920
      dxy     :     0.014759
      f0      :     0.000468  f :     0.004803
      f+1     :     0.000649
      f-1     :     0.000853
      f+2     :     0.000412
      f-2     :     0.001025
      f+3     :     0.000921
      f-3     :     0.000476
  4 H s       :     0.675719  s :     0.675719
      pz      :     0.066818  p :     0.167928
      px      :     0.054942
      py      :     0.046168
  5 H s       :     0.659308  s :     0.659308
      pz      :     0.034988  p :     0.197233
      px      :     0.049172
      py      :     0.113074
  6 O s       :     3.455023  s :     3.455023
      pz      :     1.556635  p :     4.762411
      px      :     1.765025
      py      :     1.440751
      dz2     :     0.020066  d :     0.059453
      dxz     :     0.007029
      dyz     :     0.008778
      dx2y2   :     0.011111
      dxy     :     0.012469
      f0      :     0.000747  f :     0.004847
      f+1     :     0.000599
      f-1     :     0.001152
      f+2     :     0.000412
      f-2     :     0.000414
      f+3     :     0.001064
      f-3     :     0.000458
  7 H s       :     0.676577  s :     0.676577
      pz      :     0.032527  p :     0.158013
      px      :     0.051120
      py      :     0.074366
  8 H s       :     0.665555  s :     0.665555
      pz      :     0.097630  p :     0.177362
      px      :     0.043550
      py      :     0.036182
  9 O s       :     3.468860  s :     3.468860
      pz      :     1.530507  p :     4.834554
      px      :     1.476835
      py      :     1.827212
      dz2     :     0.020100  d :     0.057768
      dxz     :     0.009473
      dyz     :     0.007154
      dx2y2   :     0.009476
      dxy     :     0.011565
      f0      :     0.000798  f :     0.004843
      f+1     :     0.001203
      f-1     :     0.000579
      f+2     :     0.000420
      f-2     :     0.000416
      f+3     :     0.000447
      f-3     :     0.000979
 10 H s       :     0.679852  s :     0.679852
      pz      :     0.079588  p :     0.162265
      px      :     0.037521
      py      :     0.045156
 11 H s       :     0.671016  s :     0.671016
      pz      :     0.030425  p :     0.187108
      px      :     0.102544
      py      :     0.054139
 12 O s       :     3.456498  s :     3.456498
      pz      :     1.508322  p :     4.744365
      px      :     1.528262
      py      :     1.707781
      dz2     :     0.021977  d :     0.060592
      dxz     :     0.007196
      dyz     :     0.007524
      dx2y2   :     0.009292
      dxy     :     0.014603
      f0      :     0.000883  f :     0.004990
      f+1     :     0.001015
      f-1     :     0.000744
      f+2     :     0.000391
      f-2     :     0.000421
      f+3     :     0.000409
      f-3     :     0.001128
 13 H s       :     0.666703  s :     0.666703
      pz      :     0.081751  p :     0.161869
      px      :     0.036664
      py      :     0.043454
 14 H s       :     0.656302  s :     0.656302
      pz      :     0.030476  p :     0.160373
      px      :     0.073720
      py      :     0.056177
 15 O s       :     3.458001  s :     3.458001
      pz      :     1.523840  p :     4.834152
      px      :     1.777940
      py      :     1.532371
      dz2     :     0.020262  d :     0.057505
      dxz     :     0.007739
      dyz     :     0.007200
      dx2y2   :     0.007660
      dxy     :     0.014644
      f0      :     0.000874  f :     0.004837
      f+1     :     0.000702
      f-1     :     0.000979
      f+2     :     0.000390
      f-2     :     0.000420
      f+3     :     0.001095
      f-3     :     0.000376
 16 H s       :     0.677983  s :     0.677983
      pz      :     0.092412  p :     0.174377
      px      :     0.043977
      py      :     0.037988
 17 H s       :     0.683238  s :     0.683238
      pz      :     0.032594  p :     0.176774
      px      :     0.059371
      py      :     0.084809


                      *****************************
                      * MAYER POPULATION ANALYSIS *
                      *****************************

  NA   - Mulliken gross atomic population
  ZA   - Total nuclear charge
  QA   - Mulliken gross atomic charge
  VA   - Mayer's total valence
  BVA  - Mayer's bonded valence
  FA   - Mayer's free valence

  ATOM       NA         ZA         QA         VA         BVA        FA
  0 O      8.7019     8.0000    -0.7019     2.0935     1.7096     0.3838
  1 H      0.6441     1.0000     0.3559     0.8930     0.8480     0.0451
  2 H      0.6363     1.0000     0.3637     0.8866     0.8394     0.0472
  3 O      8.7309     8.0000    -0.7309     2.0439     1.6563     0.3877
  4 H      0.6590     1.0000     0.3410     0.9042     0.8575     0.0468
  5 H      0.6306     1.0000     0.3694     0.9095     0.8641     0.0454
  6 O      8.7156     8.0000    -0.7156     2.0959     1.7090     0.3870
  7 H      0.6682     1.0000     0.3318     0.9194     0.8698     0.0496
  8 H      0.6105     1.0000     0.3895     0.8981     0.8561     0.0420
  9 O      8.7261     8.0000    -0.7261     2.0355     1.6498     0.3858
 10 H      0.6710     1.0000     0.3290     0.9127     0.8640     0.0486
 11 H      0.6372     1.0000     0.3628     0.9204     0.8754     0.0450
 12 O      8.6766     8.0000    -0.6766     2.1136     1.7337     0.3799
 13 H      0.6463     1.0000     0.3537     0.8951     0.8487     0.0464
 14 H      0.6271     1.0000     0.3729     0.8783     0.8336     0.0447
 15 O      8.7257     8.0000    -0.7257     2.0593     1.6742     0.3850
 16 H      0.6335     1.0000     0.3665     0.8993     0.8547     0.0446
 17 H      0.6593     1.0000     0.3407     0.9291     0.8827     0.0464

  Mayer bond orders larger than 0.100000
B(  0-O ,  1-H ) :   0.8398 B(  0-O ,  2-H ) :   0.8282 B(  3-O ,  4-H ) :   0.8486 
B(  3-O ,  5-H ) :   0.7709 B(  6-O ,  7-H ) :   0.8434 B(  6-O ,  8-H ) :   0.7823 
B(  9-O , 10-H ) :   0.8566 B(  9-O , 11-H ) :   0.7999 B( 12-O , 13-H ) :   0.8395 
B( 12-O , 14-H ) :   0.8273 B( 15-O , 16-H ) :   0.8255 B( 15-O , 17-H ) :   0.8328 



----------------------------------
MP2 DERIVATIVE INTEGRAL GENERATION
----------------------------------


Input Wavefunction Amplitudes       ... 12h2o.su.etal.mol0,2,5,7,8,9-orca.engrad-mp2.def2tzvp.frozencore.mp2tsaa.tmp
Input Correlated Electron Density   ... 12h2o.su.etal.mol0,2,5,7,8,9-orca.engrad-mp2.def2tzvp.frozencore.pmp2re
Input Energy Weighted Density       ... 12h2o.su.etal.mol0,2,5,7,8,9-orca.engrad-mp2.def2tzvp.frozencore.wmp2.tmp
Input SCF Electron Density          ... 12h2o.su.etal.mol0,2,5,7,8,9-orca.engrad-mp2.def2tzvp.frozencore.scfp

One-Electron Terms    ...
                        ... One-Electron Terms done
Prescreening matrices              ... done

Batch handling in the gradient evaluation:
Memory available                      ... 8000.0 MB
Memory per occupied orbital in Q2     ...   12.2 MB
Memory per occupied orbital in Q3     ...    0.1 MB
Total memory requirement per |i>      ...   12.3 MB
Max. Number of orbitals possible      ...    651
Number of orbitals treated per batch  ...     24
Number of batches to be done          ...      1
Batch   0: i=    6 ...    29

---------------------------------------
MP2 TOTAL ENERGY:     -457.916858068 Eh
---------------------------------------

The final MP2 gradient
  0:   0.02658314  -0.00919636   0.00181992
  1:   0.00098509  -0.00200893  -0.00179502
  2:  -0.02724223   0.00930699   0.00072151
  3:  -0.00699790  -0.00770082  -0.00399974
  4:  -0.00008538  -0.00055062   0.00074354
  5:   0.00664733   0.01661161   0.00380464
  6:  -0.01249792  -0.01703760  -0.00005667
  7:   0.00671138   0.01744863  -0.00247232
  8:   0.00176498  -0.00024126   0.00635985
  9:  -0.00288874   0.00207791  -0.01020471
 10:  -0.00392462  -0.00086073   0.00939974
 11:   0.01120111  -0.00279946  -0.00057024
 12:   0.00506495  -0.00950771  -0.00992823
 13:  -0.00013943  -0.00182845   0.00754233
 14:  -0.00641839   0.00368105   0.00072157
 15:  -0.00355538  -0.00387099   0.00205975
 16:   0.00220923  -0.00113976  -0.00562176
 17:   0.00258278   0.00761649   0.00147585

-----------------------------------
NORM OF THE MP2 GRADIENT:  0.061311
-----------------------------------

-------------------------   --------------------
FINAL SINGLE POINT ENERGY      -457.916858067738
-------------------------   --------------------


                            ***************************************
                            *     ORCA property calculations      *
                            ***************************************

                                    ---------------------
                                    Active property flags
                                    ---------------------
   (+) Dipole Moment


------------------------------------------------------------------------------
                       ORCA ELECTRIC PROPERTIES CALCULATION
------------------------------------------------------------------------------

Dipole Moment Calculation                       ... on
Quadrupole Moment Calculation                   ... off
Polarizability Calculation                      ... off
GBWName                                         ... 12h2o.su.etal.mol0,2,5,7,8,9-orca.engrad-mp2.def2tzvp.frozencore.gbw
Electron density file                           ... 12h2o.su.etal.mol0,2,5,7,8,9-orca.engrad-mp2.def2tzvp.frozencore.scfp
The origin for moment calculation is the CENTER OF MASS  = ( 1.402367, -1.376337 -0.000000)

-------------
DIPOLE MOMENT
-------------
                                X             Y             Z
Electronic contribution:      0.15400       0.04548      -0.38703
Nuclear contribution   :      1.38919       2.00920       0.00000
                        -----------------------------------------
Total Dipole Moment    :      1.54319       2.05468      -0.38703
                        -----------------------------------------
Magnitude (a.u.)       :      2.59865
Magnitude (Debye)      :      6.60523



--------------------
Rotational spectrum 
--------------------
 
Rotational constants in cm-1:     0.056019     0.025026     0.021317 
Rotational constants in MHz :  1679.398191   750.274653   639.058702 

 Dipole components along the rotational axes: 
x,y,z [a.u.] :    -0.357527    -2.549983    -0.350312 
x,y,z [Debye]:    -0.908761    -6.481542    -0.890422 

 

                         *** MP2 UNRELAXED DENSITY ***

------------------------------------------------------------------------------
                       ORCA ELECTRIC PROPERTIES CALCULATION
------------------------------------------------------------------------------

Dipole Moment Calculation                       ... on
Quadrupole Moment Calculation                   ... off
Polarizability Calculation                      ... off
GBWName                                         ... 12h2o.su.etal.mol0,2,5,7,8,9-orca.engrad-mp2.def2tzvp.frozencore.gbw
Electron density file                           ... 12h2o.su.etal.mol0,2,5,7,8,9-orca.engrad-mp2.def2tzvp.frozencore.pmp2ur
The origin for moment calculation is the CENTER OF MASS  = ( 1.402367, -1.376337 -0.000000)

-------------
DIPOLE MOMENT
-------------
                                X             Y             Z
Electronic contribution:      0.14366       0.02816      -0.39162
Nuclear contribution   :      1.38919       2.00920       0.00000
                        -----------------------------------------
Total Dipole Moment    :      1.53285       2.03737      -0.39162
                        -----------------------------------------
Magnitude (a.u.)       :      2.57951
Magnitude (Debye)      :      6.55658



--------------------
Rotational spectrum 
--------------------
 
Rotational constants in cm-1:     0.056019     0.025026     0.021317 
Rotational constants in MHz :  1679.398191   750.274653   639.058702 

 Dipole components along the rotational axes: 
x,y,z [a.u.] :    -0.362398    -2.530420    -0.345681 
x,y,z [Debye]:    -0.921142    -6.431817    -0.878652 

 

                           *** MP2 RELAXED DENSITY ***

------------------------------------------------------------------------------
                       ORCA ELECTRIC PROPERTIES CALCULATION
------------------------------------------------------------------------------

Dipole Moment Calculation                       ... on
Quadrupole Moment Calculation                   ... off
Polarizability Calculation                      ... off
GBWName                                         ... 12h2o.su.etal.mol0,2,5,7,8,9-orca.engrad-mp2.def2tzvp.frozencore.gbw
Electron density file                           ... 12h2o.su.etal.mol0,2,5,7,8,9-orca.engrad-mp2.def2tzvp.frozencore.pmp2re
The origin for moment calculation is the CENTER OF MASS  = ( 1.402367, -1.376337 -0.000000)

-------------
DIPOLE MOMENT
-------------
                                X             Y             Z
Electronic contribution:      0.14133       0.03118      -0.40989
Nuclear contribution   :      1.38919       2.00920       0.00000
                        -----------------------------------------
Total Dipole Moment    :      1.53053       2.04038      -0.40989
                        -----------------------------------------
Magnitude (a.u.)       :      2.58334
Magnitude (Debye)      :      6.56634



--------------------
Rotational spectrum 
--------------------
 
Rotational constants in cm-1:     0.056019     0.025026     0.021317 
Rotational constants in MHz :  1679.398191   750.274653   639.058702 

 Dipole components along the rotational axes: 
x,y,z [a.u.] :    -0.380554    -2.531082    -0.349962 
x,y,z [Debye]:    -0.967292    -6.433498    -0.889533 

 

Timings for individual modules:

Sum of individual times         ...       58.945 sec (=   0.982 min)
GTO integral calculation        ...        0.948 sec (=   0.016 min)   1.6 %
SCF iterations                  ...       11.400 sec (=   0.190 min)  19.3 %
MP2 module                      ...       46.597 sec (=   0.777 min)  79.1 %
                             ****ORCA TERMINATED NORMALLY****
TOTAL RUN TIME: 0 days 0 hours 0 minutes 59 seconds 903 msec
