
                                 *****************
                                 * O   R   C   A *
                                 *****************

           --- An Ab Initio, DFT and Semiempirical electronic structure package ---

                  #######################################################
                  #                        -***-                        #
                  #          Department of theory and spectroscopy      #
                  #               Directorship: Frank Neese             #
                  #        Max Planck Institute fuer Kohlenforschung    #
                  #                Kaiser Wilhelm Platz 1               #
                  #                 D-45470 Muelheim/Ruhr               #
                  #                      Germany                        #
                  #                                                     #
                  #                  All rights reserved                #
                  #                        -***-                        #
                  #######################################################


                         Program Version 4.2.0 -  RELEASE  -


 With contributions from (in alphabetic order):
   Daniel Aravena         : Magnetic Suceptibility
   Michael Atanasov       : Ab Initio Ligand Field Theory (pilot matlab implementation)
   Alexander A. Auer      : GIAO ZORA, VPT2
   Ute Becker             : Parallelization
   Giovanni Bistoni       : ED, misc. LED, open-shell LED, HFLED
   Martin Brehm           : Molecular dynamics
   Dmytro Bykov           : SCF Hessian
   Vijay G. Chilkuri      : MRCI spin determinant printing, contributions to CSF-ICE
   Dipayan Datta          : RHF DLPNO-CCSD density
   Achintya Kumar Dutta   : EOM-CC, STEOM-CC
   Dmitry Ganyushin       : Spin-Orbit,Spin-Spin,Magnetic field MRCI
   Miquel Garcia          : C-PCM Hessian, Gaussian charge scheme
   Yang Guo               : DLPNO-NEVPT2, CIM, IAO-localization
   Andreas Hansen         : Spin unrestricted coupled pair/coupled cluster methods
   Benjamin Helmich-Paris : CASSCF linear response (MC-RPA)
   Lee Huntington         : MR-EOM, pCC
   Robert Izsak           : Overlap fitted RIJCOSX, COSX-SCS-MP3, EOM
   Christian Kollmar      : KDIIS, OOCD, Brueckner-CCSD(T), CCSD density
   Simone Kossmann        : Meta GGA functionals, TD-DFT gradient, OOMP2, MP2 Hessian
   Martin Krupicka        : AUTO-CI
   Lucas Lang             : DCDCAS
   Dagmar Lenk            : GEPOL surface, SMD
   Dimitrios Liakos       : Extrapolation schemes; Compound Job, initial MDCI parallelization
   Dimitrios Manganas     : Further ROCIS development; embedding schemes
   Dimitrios Pantazis     : SARC Basis sets
   Taras Petrenko         : DFT Hessian,TD-DFT gradient, ASA, ECA, R-Raman, ABS, FL, XAS/XES, NRVS
   Peter Pinski           : DLPNO-MP2, DLPNO-MP2 Gradient
   Christoph Reimann      : Effective Core Potentials
   Marius Retegan         : Local ZFS, SOC
   Christoph Riplinger    : Optimizer, TS searches, QM/MM, DLPNO-CCSD(T), (RO)-DLPNO pert. Triples
   Tobias Risthaus        : Range-separated hybrids, TD-DFT gradient, RPA, STAB
   Michael Roemelt        : Original ROCIS implementation
   Masaaki Saitow         : Open-shell DLPNO-CCSD energy and density
   Barbara Sandhoefer     : DKH picture change effects
   Avijit Sen             : IP-ROCIS
   Kantharuban Sivalingam : CASSCF convergence, NEVPT2, FIC-MRCI
   Bernardo de Souza      : ESD, SOC TD-DFT
   Georgi Stoychev        : AutoAux, RI-MP2 NMR
   Willem Van den Heuvel  : Paramagnetic NMR
   Boris Wezisla          : Elementary symmetry handling
   Frank Wennmohs         : Technical directorship


 We gratefully acknowledge several colleagues who have allowed us to
 interface, adapt or use parts of their codes:
   Stefan Grimme, W. Hujo, H. Kruse,             : VdW corrections, initial TS optimization,
                  C. Bannwarth                     DFT functionals, gCP, sTDA/sTD-DF
   Ed Valeev, F. Pavosevic, A. Kumar             : LibInt (2-el integral package), F12 methods
   Garnet Chan, S. Sharma, J. Yang, R. Olivares  : DMRG
   Ulf Ekstrom                                   : XCFun DFT Library
   Mihaly Kallay                                 : mrcc  (arbitrary order and MRCC methods)
   Andreas Klamt, Michael Diedenhofen            : otool_cosmo (COSMO solvation model)
   Jiri Pittner, Ondrej Demel                    : Mk-CCSD
   Frank Weinhold                                : gennbo (NPA and NBO analysis)
   Christopher J. Cramer and Donald G. Truhlar   : smd solvation model
   Lars Goerigk                                  : TD-DFT with DH, B97 family of functionals
   V. Asgeirsson, H. Jonsson                     : NEB implementation
   FAccTs GmbH                                   : IRC, NEB, NEB-TS, Multilevel, MM, QM/MM, CI optimization
   S Lehtola, MJT Oliveira, MAL Marques          : LibXC Library


 Your calculation uses the libint2 library for the computation of 2-el integrals
 For citations please refer to: http://libint.valeyev.net

 Your ORCA version has been built with support for libXC version: 4.2.3
 For citations please refer to: https://tddft.org/programs/libxc/

 This ORCA versions uses:
   CBLAS   interface :  Fast vector & matrix operations
   LAPACKE interface :  Fast linear algebra routines
   SCALAPACK package :  Parallel linear algebra routines


----- Orbital basis set information -----
Your calculation utilizes the basis: def2-TZVP
   F. Weigend and R. Ahlrichs, Phys. Chem. Chem. Phys. 7, 3297 (2005).

================================================================================
                                        WARNINGS
                       Please study these warnings very carefully!
================================================================================


WARNING: The frozen-core approximation for MP2-gradient calculations is turned on by default.

INFO   : the flag for use of LIBINT has been found!

================================================================================
                                       INPUT FILE
================================================================================
NAME = 12meoh.boyd.etal.mol2,3,6-orca.engrad-mp2.def2tzvp.frozencore.inp
|  1> # 12meoh.boyd.etal.mol2,3,6
|  2> ! MP2 def2-TZVP EnGrad TightSCF
|  3> 
|  4> %pal
|  5>     nprocs 6
|  6> end
|  7> 
|  8> %maxcore 8000
|  9> 
| 10> %scf
| 11>     ConvForced true
| 12> end
| 13> 
| 14> *xyz 0 1
| 15> O  -3.839777402   2.233595098   0.660436763
| 16> H  -2.958345897   1.907036203   0.973588449
| 17> C  -3.600368059   3.168790682  -0.390480452
| 18> H  -4.551709193   3.344148967  -0.901254863
| 19> H  -2.868237594   2.789240199  -1.113617525
| 20> H  -3.243594915   4.128998607   0.009549480
| 21> O  -3.821405976  -2.118091637   0.596795346
| 22> H  -4.342989117  -1.344303030   0.251966383
| 23> C  -3.443883586  -1.809641231   1.934889393
| 24> H  -2.831494349  -2.637429600   2.305201764
| 25> H  -4.325601146  -1.719364371   2.585074667
| 26> H  -2.858527126  -0.882644791   1.996110694
| 27> O   2.622209273  -1.703002590  -1.445859723
| 28> H   1.828551432  -1.986513781  -0.909754968
| 29> C   2.781117675  -2.615822239  -2.525472890
| 30> H   3.691063626  -2.339003544  -3.065143454
| 31> H   1.934727323  -2.559520367  -3.223226661
| 32> H   2.879948338  -3.653846211  -2.177750170
| 33> *
| 34> 
| 35>                          ****END OF INPUT****
================================================================================

                     *******************************
                     * Energy+Gradient Calculation *
                     *******************************

---------------------------------
CARTESIAN COORDINATES (ANGSTROEM)
---------------------------------
  O     -3.839777    2.233595    0.660437
  H     -2.958346    1.907036    0.973588
  C     -3.600368    3.168791   -0.390480
  H     -4.551709    3.344149   -0.901255
  H     -2.868238    2.789240   -1.113618
  H     -3.243595    4.128999    0.009549
  O     -3.821406   -2.118092    0.596795
  H     -4.342989   -1.344303    0.251966
  C     -3.443884   -1.809641    1.934889
  H     -2.831494   -2.637430    2.305202
  H     -4.325601   -1.719364    2.585075
  H     -2.858527   -0.882645    1.996111
  O      2.622209   -1.703003   -1.445860
  H      1.828551   -1.986514   -0.909755
  C      2.781118   -2.615822   -2.525473
  H      3.691064   -2.339004   -3.065143
  H      1.934727   -2.559520   -3.223227
  H      2.879948   -3.653846   -2.177750

----------------------------
CARTESIAN COORDINATES (A.U.)
----------------------------
  NO LB      ZA    FRAG     MASS         X           Y           Z
   0 O     8.0000    0    15.999   -7.256128    4.220883    1.248045
   1 H     1.0000    0     1.008   -5.590464    3.603776    1.839816
   2 C     6.0000    0    12.011   -6.803710    5.988147   -0.737901
   3 H     1.0000    0     1.008   -8.601484    6.319526   -1.703125
   4 H     1.0000    0     1.008   -5.420184    5.270900   -2.104432
   5 H     1.0000    0     1.008   -6.129506    7.802677    0.018046
   6 O     8.0000    0    15.999   -7.221411   -4.002613    1.127780
   7 H     1.0000    0     1.008   -8.207060   -2.540365    0.476147
   8 C     6.0000    0    12.011   -6.507997   -3.419726    3.656411
   9 H     1.0000    0     1.008   -5.350749   -4.984020    4.356200
  10 H     1.0000    0     1.008   -8.174202   -3.249128    4.885083
  11 H     1.0000    0     1.008   -5.401833   -1.667957    3.772103
  12 O     8.0000    0    15.999    4.955257   -3.218209   -2.732279
  13 H     1.0000    0     1.008    3.455461   -3.753967   -1.719188
  14 C     6.0000    0    12.011    5.255551   -4.943188   -4.772452
  15 H     1.0000    0     1.008    6.975099   -4.420076   -5.792282
  16 H     1.0000    0     1.008    3.656105   -4.836793   -6.091016
  17 H     1.0000    0     1.008    5.442314   -6.904769   -4.115351

--------------------------------
INTERNAL COORDINATES (ANGSTROEM)
--------------------------------
 O      0   0   0     0.000000000000     0.00000000     0.00000000
 H      1   0   0     0.990770502364     0.00000000     0.00000000
 C      1   2   0     1.427001964481   107.42874151     0.00000000
 H      3   1   2     1.093933718418   107.63861717   166.29117132
 H      3   1   2     1.096813937399   111.76190604    46.44530864
 H      3   1   2     1.099686447133   111.02456630   284.51887035
 O      2   1   3     4.133823879990    96.10699108   232.75507433
 H      7   2   1     0.994839079963    51.95384169    11.69690542
 C      7   2   1     1.424134995894    69.39764733   237.58956400
 H      9   7   2     1.094251074279   107.60656698   218.79772954
 H      9   7   2     1.099234578054   111.15598505   100.60002274
 H      9   7   2     1.098049467343   112.12012929   338.33689193
 O     12   9   7     6.523696708555   108.19690197   298.34607252
 H     13  12   9     0.998839162396    23.78877432   335.08414091
 C     13  12   9     1.422693284649   125.09260887    25.08963134
 H     15  13  12     1.093560488172   107.75927006   164.87912608
 H     15  13  12     1.098365537375   111.29143095    46.22634952
 H     15  13  12     1.099168938972   112.08005485   284.41255192

---------------------------
INTERNAL COORDINATES (A.U.)
---------------------------
 O      0   0   0     0.000000000000     0.00000000     0.00000000
 H      1   0   0     1.872284911036     0.00000000     0.00000000
 C      1   2   0     2.696642905436   107.42874151     0.00000000
 H      3   1   2     2.067235136471   107.63861717   166.29117132
 H      3   1   2     2.072677961553   111.76190604    46.44530864
 H      3   1   2     2.078106218267   111.02456630   284.51887035
 O      2   1   3     7.811795019045    96.10699108   232.75507433
 H      7   2   1     1.879973408453    51.95384169    11.69690542
 C      7   2   1     2.691225119973    69.39764733   237.58956400
 H      9   7   2     2.067834852136   107.60656698   218.79772954
 H      9   7   2     2.077252309459   111.15598505   100.60002274
 H      9   7   2     2.075012774777   112.12012929   338.33689193
 O     12   9   7    12.328000159932   108.19690197   298.34607252
 H     13  12   9     1.887532468764    23.78877432   335.08414091
 C     13  12   9     2.688500680556   125.09260887    25.08963134
 H     15  13  12     2.066529833522   107.75927006   164.87912608
 H     15  13  12     2.075610060577   111.29143095    46.22634952
 H     15  13  12     2.077128269569   112.08005485   284.41255192

---------------------
BASIS SET INFORMATION
---------------------
There are 3 groups of distinct atoms

 Group   1 Type O   : 11s6p2d1f contracted to 5s3p2d1f pattern {62111/411/11/1}
 Group   2 Type H   : 5s1p contracted to 3s1p pattern {311/1}
 Group   3 Type C   : 11s6p2d1f contracted to 5s3p2d1f pattern {62111/411/11/1}

Atom   0O    basis set group =>   1
Atom   1H    basis set group =>   2
Atom   2C    basis set group =>   3
Atom   3H    basis set group =>   2
Atom   4H    basis set group =>   2
Atom   5H    basis set group =>   2
Atom   6O    basis set group =>   1
Atom   7H    basis set group =>   2
Atom   8C    basis set group =>   3
Atom   9H    basis set group =>   2
Atom  10H    basis set group =>   2
Atom  11H    basis set group =>   2
Atom  12O    basis set group =>   1
Atom  13H    basis set group =>   2
Atom  14C    basis set group =>   3
Atom  15H    basis set group =>   2
Atom  16H    basis set group =>   2
Atom  17H    basis set group =>   2


           ************************************************************
           *        Program running with 6 parallel MPI-processes     *
           *              working on a common directory               *
           ************************************************************
------------------------------------------------------------------------------
                           ORCA GTO INTEGRAL CALCULATION
------------------------------------------------------------------------------

                         BASIS SET STATISTICS AND STARTUP INFO

 # of primitive gaussian shells          ...  192
 # of primitive gaussian functions       ...  372
 # of contracted shells                  ...  114
 # of contracted basis functions         ...  258
 Highest angular momentum                ...    3
 Maximum contraction depth               ...    6
 Integral package used                   ... LIBINT
 Integral threshhold            Thresh   ...  2.500e-11
 Primitive cut-off              TCut     ...  2.500e-12


------------------------------ INTEGRAL EVALUATION ----------------------------


 * One electron integrals 
 Pre-screening matrix                    ... done
 Shell pair data                         ... done (   0.001 sec)



           ************************************************************
           *        Program running with 6 parallel MPI-processes     *
           *              working on a common directory               *
           ************************************************************
-------------------------------------------------------------------------------
                                 ORCA SCF
-------------------------------------------------------------------------------

------------
SCF SETTINGS
------------
Hamiltonian:
 Ab initio Hamiltonian  Method          .... Hartree-Fock(GTOs)


General Settings:
 Integral files         IntName         .... 12meoh.boyd.etal.mol2,3,6-orca.engrad-mp2.def2tzvp.frozencore
 Hartree-Fock type      HFTyp           .... RHF
 Total Charge           Charge          ....    0
 Multiplicity           Mult            ....    1
 Number of Electrons    NEL             ....   54
 Basis Dimension        Dim             ....  258
 Nuclear Repulsion      ENuc            ....    200.3765417037 Eh

Convergence Acceleration:
 DIIS                   CNVDIIS         .... on
   Start iteration      DIISMaxIt       ....    12
   Startup error        DIISStart       ....  0.200000
   # of expansion vecs  DIISMaxEq       ....     5
   Bias factor          DIISBfac        ....   1.050
   Max. coefficient     DIISMaxC        ....  10.000
 Newton-Raphson         CNVNR           .... off
 SOSCF                  CNVSOSCF        .... on
   Start iteration      SOSCFMaxIt      ....   150
   Startup grad/error   SOSCFStart      ....  0.003300
 Level Shifting         CNVShift        .... on
   Level shift para.    LevelShift      ....    0.2500
   Turn off err/grad.   ShiftErr        ....    0.0010
 Zerner damping         CNVZerner       .... off
 Static damping         CNVDamp         .... on
   Fraction old density DampFac         ....    0.7000
   Max. Damping (<1)    DampMax         ....    0.9800
   Min. Damping (>=0)   DampMin         ....    0.0000
   Turn off err/grad.   DampErr         ....    0.1000
 Fernandez-Rico         CNVRico         .... off

SCF Procedure:
 Maximum # iterations   MaxIter         ....   125
 SCF integral mode      SCFMode         .... Direct
   Integral package                     .... LIBINT
 Reset frequency        DirectResetFreq ....    20
 Integral Threshold     Thresh          ....  2.500e-11 Eh
 Primitive CutOff       TCut            ....  2.500e-12 Eh

Convergence Tolerance:
 Convergence Check Mode ConvCheckMode   .... Total+1el-Energy
 Convergence forced     ConvForced      .... 1
 Energy Change          TolE            ....  1.000e-08 Eh
 1-El. energy change                    ....  1.000e-05 Eh
 Orbital Gradient       TolG            ....  1.000e-05
 Orbital Rotation angle TolX            ....  1.000e-05
 DIIS Error             TolErr          ....  5.000e-07


Diagonalization of the overlap matrix:
Smallest eigenvalue                        ... 1.499e-03
Time for diagonalization                   ...    0.011 sec
Threshold for overlap eigenvalues          ... 1.000e-08
Number of eigenvalues below threshold      ... 0
Time for construction of square roots      ...    0.005 sec
Total time needed                          ...    0.016 sec

-------------------
DFT GRID GENERATION
-------------------

General Integration Accuracy     IntAcc      ...  4.340
Radial Grid Type                 RadialGrid  ... Gauss-Chebyshev
Angular Grid (max. acc.)         AngularGrid ... Lebedev-110
Angular grid pruning method      GridPruning ... 3 (G Style)
Weight generation scheme         WeightScheme... Becke
Basis function cutoff            BFCut       ...    1.0000e-11
Integration weight cutoff        WCut        ...    1.0000e-14
Grids for H and He will be reduced by one unit

# of grid points (after initial pruning)     ...  19644 (   0.0 sec)
# of grid points (after weights+screening)   ...  18782 (   0.0 sec)
nearest neighbour list constructed           ...    0.0 sec
Grid point re-assignment to atoms done       ...    0.0 sec
Grid point division into batches done        ...    0.0 sec
Reduced shell lists constructed in    0.0 sec

Total number of grid points                  ...    18782
Total number of batches                      ...      302
Average number of points per batch           ...       62
Average number of grid points per atom       ...     1043
Average number of shells per batch           ...    53.65 (47.06%)
Average number of basis functions per batch  ...   114.35 (44.32%)
Average number of large shells per batch     ...    40.40 (75.30%)
Average number of large basis fcns per batch ...    88.83 (77.68%)
Maximum spatial batch extension              ...  17.48, 15.94, 15.32 au
Average spatial batch extension              ...   0.57,  0.54,  0.55 au

Time for grid setup =    0.055 sec

------------------------------
INITIAL GUESS: MODEL POTENTIAL
------------------------------
Loading Hartree-Fock densities                     ... done
Calculating cut-offs                               ... done
Setting up the integral package                    ... done
Initializing the effective Hamiltonian             ... done
Starting the Coulomb interaction                   ... done (   0.0 sec)
Reading the grid                                   ... done
Mapping shells                                     ... done
Starting the XC term evaluation                    ... done (   0.0 sec)
Transforming the Hamiltonian                       ... done (   0.0 sec)
Diagonalizing the Hamiltonian                      ... done (   0.0 sec)
Back transforming the eigenvectors                 ... done (   0.0 sec)
Now organizing SCF variables                       ... done
                      ------------------
                      INITIAL GUESS DONE (   0.2 sec)
                      ------------------
--------------
SCF ITERATIONS
--------------
ITER       Energy         Delta-E        Max-DP      RMS-DP      [F,P]     Damp
               ***  Starting incremental Fock matrix formation  ***
  0   -344.9107581452   0.000000000000 0.03665209  0.00076848  0.2887053 0.7000
  1   -345.0414498425  -0.130691697299 0.02525534  0.00056883  0.2178479 0.7000
                               ***Turning on DIIS***
  2   -345.1167999166  -0.075350074148 0.01494505  0.00034999  0.1628375 0.7000
  3   -345.9808855085  -0.864085591880 0.00755253  0.00019384  0.1199665 0.7000
  4   -345.8298270597   0.151058448812 0.01645091  0.00046132  0.0845686 0.0000
  5   -345.2995986528   0.530228406861 0.00213954  0.00006115  0.0060974 0.0000
                      *** Initiating the SOSCF procedure ***
                           *** Shutting down DIIS ***
                      *** Re-Reading the Fockian *** 
                      *** Removing any level shift *** 
ITER      Energy       Delta-E        Grad      Rot      Max-DP    RMS-DP
  6   -345.27480276   0.0247958910  0.000786  0.000786  0.000781  0.000031
               *** Restarting incremental Fock matrix formation ***
  7   -345.26979220   0.0050105596  0.000358  0.000380  0.000482  0.000017
  8   -345.26979901  -0.0000068105  0.000194  0.000224  0.000303  0.000012
  9   -345.26980068  -0.0000016710  0.000028  0.000029  0.000051  0.000002
 10   -345.26980073  -0.0000000506  0.000007  0.000015  0.000021  0.000001
                 **** Energy Check signals convergence ****
              ***Rediagonalizing the Fockian in SOSCF/NRSCF***

               *****************************************************
               *                     SUCCESS                       *
               *           SCF CONVERGED AFTER  11 CYCLES          *
               *****************************************************


----------------
TOTAL SCF ENERGY
----------------

Total Energy       :         -345.26980074 Eh           -9395.26892 eV

Components:
Nuclear Repulsion  :          200.37654170 Eh            5452.52290 eV
Electronic Energy  :         -545.64634244 Eh          -14847.79183 eV
One Electron Energy:         -869.57489791 Eh          -23662.33594 eV
Two Electron Energy:          323.92855547 Eh            8814.54412 eV

Virial components:
Potential Energy   :         -689.87827802 Eh          -18772.54232 eV
Kinetic Energy     :          344.60847728 Eh            9377.27340 eV
Virial Ratio       :            2.00191906


---------------
SCF CONVERGENCE
---------------

  Last Energy change         ...   -4.5306e-09  Tolerance :   1.0000e-08
  Last MAX-Density change    ...    4.5479e-06  Tolerance :   1.0000e-07
  Last RMS-Density change    ...    1.3505e-07  Tolerance :   5.0000e-09
  Last Orbital Gradient      ...    1.9969e-06  Tolerance :   1.0000e-05
  Last Orbital Rotation      ...    5.3780e-06  Tolerance :   1.0000e-05

             **** THE GBW FILE WAS UPDATED (12meoh.boyd.etal.mol2,3,6-orca.engrad-mp2.def2tzvp.frozencore.gbw) ****
             **** DENSITY FILE WAS UPDATED (12meoh.boyd.etal.mol2,3,6-orca.engrad-mp2.def2tzvp.frozencore.scfp) ****
             **** ENERGY FILE WAS UPDATED (12meoh.boyd.etal.mol2,3,6-orca.engrad-mp2.def2tzvp.frozencore.en.tmp) ****
             **** THE GBW FILE WAS UPDATED (12meoh.boyd.etal.mol2,3,6-orca.engrad-mp2.def2tzvp.frozencore.gbw) ****
             **** DENSITY FILE WAS UPDATED (12meoh.boyd.etal.mol2,3,6-orca.engrad-mp2.def2tzvp.frozencore.scfp) ****
----------------
ORBITAL ENERGIES
----------------

  NO   OCC          E(Eh)            E(eV) 
   0   2.0000     -20.565763      -559.6228 
   1   2.0000     -20.557523      -559.3986 
   2   2.0000     -20.556313      -559.3657 
   3   2.0000     -11.277807      -306.8847 
   4   2.0000     -11.271924      -306.7246 
   5   2.0000     -11.270994      -306.6993 
   6   2.0000      -1.354905       -36.8688 
   7   2.0000      -1.345632       -36.6165 
   8   2.0000      -1.345573       -36.6149 
   9   2.0000      -0.926172       -25.2024 
  10   2.0000      -0.918978       -25.0067 
  11   2.0000      -0.918779       -25.0013 
  12   2.0000      -0.689477       -18.7616 
  13   2.0000      -0.680483       -18.5169 
  14   2.0000      -0.680142       -18.5076 
  15   2.0000      -0.623540       -16.9674 
  16   2.0000      -0.617339       -16.7987 
  17   2.0000      -0.616479       -16.7753 
  18   2.0000      -0.597507       -16.2590 
  19   2.0000      -0.590828       -16.0773 
  20   2.0000      -0.589590       -16.0436 
  21   2.0000      -0.509016       -13.8510 
  22   2.0000      -0.500330       -13.6147 
  23   2.0000      -0.499408       -13.5896 
  24   2.0000      -0.456961       -12.4345 
  25   2.0000      -0.448843       -12.2136 
  26   2.0000      -0.448586       -12.2067 
  27   0.0000       0.112471         3.0605 
  28   0.0000       0.135373         3.6837 
  29   0.0000       0.154814         4.2127 
  30   0.0000       0.168003         4.5716 
  31   0.0000       0.175962         4.7882 
  32   0.0000       0.184854         5.0301 
  33   0.0000       0.221384         6.0242 
  34   0.0000       0.227620         6.1939 
  35   0.0000       0.229571         6.2469 
  36   0.0000       0.229924         6.2565 
  37   0.0000       0.231899         6.3103 
  38   0.0000       0.238944         6.5020 
  39   0.0000       0.249003         6.7757 
  40   0.0000       0.255641         6.9563 
  41   0.0000       0.281859         7.6698 
  42   0.0000       0.319763         8.7012 
  43   0.0000       0.331774         9.0280 
  44   0.0000       0.336304         9.1513 
  45   0.0000       0.339288         9.2325 
  46   0.0000       0.341624         9.2961 
  47   0.0000       0.365558         9.9473 
  48   0.0000       0.460463        12.5298 
  49   0.0000       0.461612        12.5611 
  50   0.0000       0.475463        12.9380 
  51   0.0000       0.517944        14.0940 
  52   0.0000       0.521729        14.1970 
  53   0.0000       0.525972        14.3124 
  54   0.0000       0.566693        15.4205 
  55   0.0000       0.569590        15.4993 
  56   0.0000       0.580426        15.7942 
  57   0.0000       0.600875        16.3506 
  58   0.0000       0.607062        16.5190 
  59   0.0000       0.610383        16.6094 
  60   0.0000       0.620724        16.8907 
  61   0.0000       0.627250        17.0683 
  62   0.0000       0.633228        17.2310 
  63   0.0000       0.644920        17.5492 
  64   0.0000       0.658599        17.9214 
  65   0.0000       0.664247        18.0751 
  66   0.0000       0.682459        18.5706 
  67   0.0000       0.683581        18.6012 
  68   0.0000       0.699464        19.0334 
  69   0.0000       0.700383        19.0584 
  70   0.0000       0.706491        19.2246 
  71   0.0000       0.735948        20.0262 
  72   0.0000       0.764259        20.7965 
  73   0.0000       0.773707        21.0536 
  74   0.0000       0.807429        21.9713 
  75   0.0000       0.876027        23.8379 
  76   0.0000       0.883046        24.0289 
  77   0.0000       0.888891        24.1879 
  78   0.0000       0.914585        24.8871 
  79   0.0000       0.922490        25.1022 
  80   0.0000       0.924253        25.1502 
  81   0.0000       0.942985        25.6599 
  82   0.0000       0.953345        25.9418 
  83   0.0000       0.961312        26.1586 
  84   0.0000       1.079704        29.3802 
  85   0.0000       1.091340        29.6969 
  86   0.0000       1.095930        29.8218 
  87   0.0000       1.115986        30.3675 
  88   0.0000       1.122317        30.5398 
  89   0.0000       1.139637        31.0111 
  90   0.0000       1.244271        33.8583 
  91   0.0000       1.246569        33.9209 
  92   0.0000       1.246891        33.9296 
  93   0.0000       1.526379        41.5349 
  94   0.0000       1.535191        41.7747 
  95   0.0000       1.536980        41.8234 
  96   0.0000       1.643571        44.7238 
  97   0.0000       1.659492        45.1571 
  98   0.0000       1.664128        45.2832 
  99   0.0000       1.699100        46.2349 
 100   0.0000       1.705846        46.4184 
 101   0.0000       1.715008        46.6677 
 102   0.0000       1.761599        47.9355 
 103   0.0000       1.775639        48.3176 
 104   0.0000       1.783149        48.5219 
 105   0.0000       1.784496        48.5586 
 106   0.0000       1.789944        48.7069 
 107   0.0000       1.792873        48.7865 
 108   0.0000       1.793644        48.8075 
 109   0.0000       1.799827        48.9758 
 110   0.0000       1.803119        49.0654 
 111   0.0000       1.840715        50.0884 
 112   0.0000       1.842896        50.1478 
 113   0.0000       1.854772        50.4709 
 114   0.0000       1.861826        50.6629 
 115   0.0000       1.862899        50.6921 
 116   0.0000       1.877317        51.0844 
 117   0.0000       1.956201        53.2309 
 118   0.0000       1.962158        53.3930 
 119   0.0000       1.974286        53.7231 
 120   0.0000       2.137286        58.1585 
 121   0.0000       2.139061        58.2068 
 122   0.0000       2.144401        58.3521 
 123   0.0000       2.202030        59.9203 
 124   0.0000       2.206344        60.0377 
 125   0.0000       2.217598        60.3439 
 126   0.0000       2.242625        61.0249 
 127   0.0000       2.244270        61.0697 
 128   0.0000       2.249723        61.2181 
 129   0.0000       2.284523        62.1650 
 130   0.0000       2.288057        62.2612 
 131   0.0000       2.289336        62.2960 
 132   0.0000       2.304170        62.6996 
 133   0.0000       2.305592        62.7384 
 134   0.0000       2.316199        63.0270 
 135   0.0000       2.442395        66.4609 
 136   0.0000       2.443799        66.4991 
 137   0.0000       2.446839        66.5819 
 138   0.0000       2.528199        68.7958 
 139   0.0000       2.548586        69.3506 
 140   0.0000       2.551986        69.4431 
 141   0.0000       2.556161        69.5567 
 142   0.0000       2.562146        69.7195 
 143   0.0000       2.572663        70.0057 
 144   0.0000       2.594175        70.5911 
 145   0.0000       2.600066        70.7514 
 146   0.0000       2.605989        70.9126 
 147   0.0000       2.625892        71.4542 
 148   0.0000       2.632361        71.6302 
 149   0.0000       2.644732        71.9668 
 150   0.0000       2.696189        73.3670 
 151   0.0000       2.696810        73.3839 
 152   0.0000       2.701437        73.5098 
 153   0.0000       2.772611        75.4466 
 154   0.0000       2.778951        75.6191 
 155   0.0000       2.782483        75.7152 
 156   0.0000       2.834010        77.1173 
 157   0.0000       2.840331        77.2893 
 158   0.0000       2.844119        77.3924 
 159   0.0000       2.889556        78.6288 
 160   0.0000       2.897667        78.8495 
 161   0.0000       2.905395        79.0598 
 162   0.0000       3.035993        82.6136 
 163   0.0000       3.045521        82.8729 
 164   0.0000       3.047411        82.9243 
 165   0.0000       3.093141        84.1686 
 166   0.0000       3.108832        84.5956 
 167   0.0000       3.113497        84.7226 
 168   0.0000       3.136863        85.3584 
 169   0.0000       3.139248        85.4233 
 170   0.0000       3.157150        85.9104 
 171   0.0000       3.231869        87.9436 
 172   0.0000       3.245725        88.3207 
 173   0.0000       3.258981        88.6814 
 174   0.0000       3.356147        91.3254 
 175   0.0000       3.356546        91.3363 
 176   0.0000       3.360106        91.4331 
 177   0.0000       3.414150        92.9037 
 178   0.0000       3.420324        93.0717 
 179   0.0000       3.421897        93.1146 
 180   0.0000       3.529654        96.0468 
 181   0.0000       3.538081        96.2761 
 182   0.0000       3.545536        96.4789 
 183   0.0000       3.637380        98.9781 
 184   0.0000       3.639450        99.0345 
 185   0.0000       3.640825        99.0719 
 186   0.0000       3.656778        99.5060 
 187   0.0000       3.667417        99.7955 
 188   0.0000       3.672173        99.9249 
 189   0.0000       3.721275       101.2610 
 190   0.0000       3.724126       101.3386 
 191   0.0000       3.729926       101.4964 
 192   0.0000       3.853400       104.8563 
 193   0.0000       3.862739       105.1105 
 194   0.0000       3.864117       105.1480 
 195   0.0000       3.878980       105.5524 
 196   0.0000       3.890718       105.8718 
 197   0.0000       3.893626       105.9509 
 198   0.0000       3.896263       106.0227 
 199   0.0000       3.903258       106.2130 
 200   0.0000       3.903546       106.2209 
 201   0.0000       4.246509       115.5534 
 202   0.0000       4.248162       115.5984 
 203   0.0000       4.262049       115.9763 
 204   0.0000       4.493718       122.2803 
 205   0.0000       4.496754       122.3629 
 206   0.0000       4.503007       122.5330 
 207   0.0000       4.527060       123.1876 
 208   0.0000       4.535285       123.4114 
 209   0.0000       4.540026       123.5404 
 210   0.0000       4.706894       128.0811 
 211   0.0000       4.709555       128.1535 
 212   0.0000       4.718505       128.3971 
 213   0.0000       4.866092       132.4131 
 214   0.0000       4.868432       132.4768 
 215   0.0000       4.868543       132.4798 
 216   0.0000       5.685692       154.7155 
 217   0.0000       5.692484       154.9004 
 218   0.0000       5.696025       154.9967 
 219   0.0000       5.761440       156.7768 
 220   0.0000       5.766684       156.9195 
 221   0.0000       5.776623       157.1899 
 222   0.0000       5.873700       159.8315 
 223   0.0000       5.876912       159.9189 
 224   0.0000       5.877114       159.9244 
 225   0.0000       6.148080       167.2978 
 226   0.0000       6.156828       167.5358 
 227   0.0000       6.159360       167.6047 
 228   0.0000       6.166806       167.8073 
 229   0.0000       6.171694       167.9403 
 230   0.0000       6.173583       167.9917 
 231   0.0000       6.314592       171.8288 
 232   0.0000       6.319676       171.9671 
 233   0.0000       6.328256       172.2006 
 234   0.0000       6.650486       180.9689 
 235   0.0000       6.657954       181.1722 
 236   0.0000       6.660200       181.2332 
 237   0.0000       6.940208       188.8527 
 238   0.0000       6.947653       189.0553 
 239   0.0000       6.950665       189.1372 
 240   0.0000       7.148993       194.5340 
 241   0.0000       7.149138       194.5379 
 242   0.0000       7.158460       194.7916 
 243   0.0000       7.210461       196.2066 
 244   0.0000       7.218590       196.4278 
 245   0.0000       7.218612       196.4284 
 246   0.0000       7.453266       202.8137 
 247   0.0000       7.458161       202.9469 
 248   0.0000       7.460661       203.0149 
 249   0.0000       7.588054       206.4814 
 250   0.0000       7.592355       206.5985 
 251   0.0000       7.593200       206.6215 
 252   0.0000      23.348571       635.3469 
 253   0.0000      23.360557       635.6731 
 254   0.0000      23.363249       635.7463 
 255   0.0000      45.134581      1228.1744 
 256   0.0000      45.148745      1228.5598 
 257   0.0000      45.166865      1229.0529 

                    ********************************
                    * MULLIKEN POPULATION ANALYSIS *
                    ********************************

-----------------------
MULLIKEN ATOMIC CHARGES
-----------------------
   0 O :   -0.552444
   1 H :    0.331916
   2 C :   -0.080163
   3 H :    0.109884
   4 H :    0.097805
   5 H :    0.095572
   6 O :   -0.552422
   7 H :    0.337381
   8 C :   -0.062576
   9 H :    0.106272
  10 H :    0.096009
  11 H :    0.072767
  12 O :   -0.548727
  13 H :    0.330938
  14 C :   -0.073666
  15 H :    0.107824
  16 H :    0.091690
  17 H :    0.091940
Sum of atomic charges:   -0.0000000

--------------------------------
MULLIKEN REDUCED ORBITAL CHARGES
--------------------------------
  0 O s       :     3.805852  s :     3.805852
      pz      :     1.585885  p :     4.712407
      px      :     1.485898
      py      :     1.640625
      dz2     :     0.005452  d :     0.032461
      dxz     :     0.006272
      dyz     :     0.006845
      dx2y2   :     0.008315
      dxy     :     0.005576
      f0      :     0.000221  f :     0.001723
      f+1     :     0.000107
      f-1     :     0.000434
      f+2     :     0.000336
      f-2     :     0.000278
      f+3     :     0.000117
      f-3     :     0.000230
  1 H s       :     0.624918  s :     0.624918
      pz      :     0.012758  p :     0.043166
      px      :     0.016851
      py      :     0.013557
  2 C s       :     3.197793  s :     3.197793
      pz      :     0.828768  p :     2.759794
      px      :     1.053647
      py      :     0.877378
      dz2     :     0.024474  d :     0.113698
      dxz     :     0.031218
      dyz     :     0.018675
      dx2y2   :     0.021296
      dxy     :     0.018035
      f0      :     0.001627  f :     0.008878
      f+1     :     0.000452
      f-1     :     0.001788
      f+2     :     0.002061
      f-2     :     0.001807
      f+3     :     0.000734
      f-3     :     0.000409
  3 H s       :     0.868953  s :     0.868953
      pz      :     0.005577  p :     0.021164
      px      :     0.012176
      py      :     0.003411
  4 H s       :     0.882149  s :     0.882149
      pz      :     0.007962  p :     0.020045
      px      :     0.008213
      py      :     0.003871
  5 H s       :     0.884077  s :     0.884077
      pz      :     0.003867  p :     0.020351
      px      :     0.004483
      py      :     0.012001
  6 O s       :     3.806803  s :     3.806803
      pz      :     1.388652  p :     4.711254
      px      :     1.742064
      py      :     1.580538
      dz2     :     0.010696  d :     0.032646
      dxz     :     0.003840
      dyz     :     0.007962
      dx2y2   :     0.002694
      dxy     :     0.007454
      f0      :     0.000397  f :     0.001718
      f+1     :     0.000371
      f-1     :     0.000182
      f+2     :     0.000088
      f-2     :     0.000279
      f+3     :     0.000348
      f-3     :     0.000054
  7 H s       :     0.620063  s :     0.620063
      pz      :     0.011115  p :     0.042556
      px      :     0.015607
      py      :     0.015833
  8 C s       :     3.188706  s :     3.188706
      pz      :     0.710341  p :     2.750053
      px      :     1.015438
      py      :     1.024274
      dz2     :     0.026889  d :     0.114916
      dxz     :     0.035465
      dyz     :     0.026087
      dx2y2   :     0.007239
      dxy     :     0.019235
      f0      :     0.002560  f :     0.008902
      f+1     :     0.002006
      f-1     :     0.001771
      f+2     :     0.000724
      f-2     :     0.000789
      f+3     :     0.001011
      f-3     :     0.000042
  9 H s       :     0.872684  s :     0.872684
      pz      :     0.003899  p :     0.021044
      px      :     0.007171
      py      :     0.009975
 10 H s       :     0.883754  s :     0.883754
      pz      :     0.006531  p :     0.020236
      px      :     0.010295
      py      :     0.003410
 11 H s       :     0.907254  s :     0.907254
      pz      :     0.002167  p :     0.019979
      px      :     0.006688
      py      :     0.011124
 12 O s       :     3.805247  s :     3.805247
      pz      :     1.470991  p :     4.709314
      px      :     1.580026
      py      :     1.658298
      dz2     :     0.003459  d :     0.032440
      dxz     :     0.006481
      dyz     :     0.010731
      dx2y2   :     0.006861
      dxy     :     0.004908
      f0      :     0.000218  f :     0.001727
      f+1     :     0.000180
      f-1     :     0.000373
      f+2     :     0.000464
      f-2     :     0.000282
      f+3     :     0.000045
      f-3     :     0.000164
 13 H s       :     0.626711  s :     0.626711
      pz      :     0.014100  p :     0.042351
      px      :     0.017142
      py      :     0.011109
 14 C s       :     3.193707  s :     3.193707
      pz      :     0.824227  p :     2.756287
      px      :     1.051481
      py      :     0.880578
      dz2     :     0.024404  d :     0.114753
      dxz     :     0.035263
      dyz     :     0.018436
      dx2y2   :     0.027538
      dxy     :     0.009113
      f0      :     0.001606  f :     0.008920
      f+1     :     0.000568
      f-1     :     0.001699
      f+2     :     0.002455
      f-2     :     0.001459
      f+3     :     0.000452
      f-3     :     0.000683
 15 H s       :     0.871028  s :     0.871028
      pz      :     0.005908  p :     0.021148
      px      :     0.011651
      py      :     0.003589
 16 H s       :     0.888134  s :     0.888134
      pz      :     0.007589  p :     0.020176
      px      :     0.009727
      py      :     0.002860
 17 H s       :     0.888024  s :     0.888024
      pz      :     0.003361  p :     0.020036
      px      :     0.003510
      py      :     0.013165


                     *******************************
                     * LOEWDIN POPULATION ANALYSIS *
                     *******************************

----------------------
LOEWDIN ATOMIC CHARGES
----------------------
   0 O :   -0.134640
   1 H :    0.186715
   2 C :   -0.331327
   3 H :    0.101303
   4 H :    0.089585
   5 H :    0.090042
   6 O :   -0.132481
   7 H :    0.192677
   8 C :   -0.335387
   9 H :    0.100003
  10 H :    0.090416
  11 H :    0.083093
  12 O :   -0.132875
  13 H :    0.192281
  14 C :   -0.336743
  15 H :    0.101042
  16 H :    0.088081
  17 H :    0.088213

-------------------------------
LOEWDIN REDUCED ORBITAL CHARGES
-------------------------------
  0 O s       :     3.395581  s :     3.395581
      pz      :     1.571246  p :     4.666918
      px      :     1.487222
      py      :     1.608450
      dz2     :     0.013366  d :     0.068040
      dxz     :     0.014500
      dyz     :     0.014852
      dx2y2   :     0.012936
      dxy     :     0.012386
      f0      :     0.000618  f :     0.004101
      f+1     :     0.000398
      f-1     :     0.000839
      f+2     :     0.000752
      f-2     :     0.000566
      f+3     :     0.000372
      f-3     :     0.000556
  1 H s       :     0.667269  s :     0.667269
      pz      :     0.035567  p :     0.146016
      px      :     0.072624
      py      :     0.037825
  2 C s       :     2.863526  s :     2.863526
      pz      :     0.933840  p :     2.991658
      px      :     1.091502
      py      :     0.966316
      dz2     :     0.087847  d :     0.419247
      dxz     :     0.104898
      dyz     :     0.092016
      dx2y2   :     0.077066
      dxy     :     0.057419
      f0      :     0.013007  f :     0.056896
      f+1     :     0.003500
      f-1     :     0.012616
      f+2     :     0.008857
      f-2     :     0.009774
      f+3     :     0.004948
      f-3     :     0.004195
  3 H s       :     0.839856  s :     0.839856
      pz      :     0.015471  p :     0.058841
      px      :     0.032658
      py      :     0.010712
  4 H s       :     0.851404  s :     0.851404
      pz      :     0.022496  p :     0.059010
      px      :     0.023700
      py      :     0.012814
  5 H s       :     0.851456  s :     0.851456
      pz      :     0.012465  p :     0.058501
      px      :     0.014719
      py      :     0.031317
  6 O s       :     3.395914  s :     3.395914
      pz      :     1.435066  p :     4.664283
      px      :     1.668303
      py      :     1.560914
      dz2     :     0.021136  d :     0.068174
      dxz     :     0.013934
      dyz     :     0.019083
      dx2y2   :     0.002760
      dxy     :     0.011262
      f0      :     0.001057  f :     0.004109
      f+1     :     0.000875
      f-1     :     0.000831
      f+2     :     0.000301
      f-2     :     0.000486
      f+3     :     0.000535
      f-3     :     0.000024
  7 H s       :     0.663133  s :     0.663133
      pz      :     0.030263  p :     0.144190
      px      :     0.049468
      py      :     0.064458
  8 C s       :     2.862125  s :     2.862125
      pz      :     0.845546  p :     2.991637
      px      :     1.066491
      py      :     1.079601
      dz2     :     0.119490  d :     0.424271
      dxz     :     0.127747
      dyz     :     0.088964
      dx2y2   :     0.020679
      dxy     :     0.067391
      f0      :     0.016831  f :     0.057354
      f+1     :     0.011202
      f-1     :     0.014173
      f+2     :     0.006976
      f-2     :     0.004547
      f+3     :     0.003031
      f-3     :     0.000595
  9 H s       :     0.841489  s :     0.841489
      pz      :     0.010883  p :     0.058507
      px      :     0.020232
      py      :     0.027392
 10 H s       :     0.851043  s :     0.851043
      pz      :     0.018106  p :     0.058541
      px      :     0.028447
      py      :     0.011988
 11 H s       :     0.858705  s :     0.858705
      pz      :     0.007995  p :     0.058202
      px      :     0.019845
      py      :     0.030362
 12 O s       :     3.396274  s :     3.396274
      pz      :     1.470604  p :     4.664040
      px      :     1.540423
      py      :     1.653013
      dz2     :     0.011374  d :     0.068467
      dxz     :     0.018301
      dyz     :     0.018872
      dx2y2   :     0.012485
      dxy     :     0.007436
      f0      :     0.000714  f :     0.004093
      f+1     :     0.000294
      f-1     :     0.000841
      f+2     :     0.000711
      f-2     :     0.000896
      f+3     :     0.000193
      f-3     :     0.000444
 13 H s       :     0.665369  s :     0.665369
      pz      :     0.040931  p :     0.142351
      px      :     0.064342
      py      :     0.037078
 14 C s       :     2.862227  s :     2.862227
      pz      :     0.924864  p :     2.992742
      px      :     1.088332
      py      :     0.979546
      dz2     :     0.086110  d :     0.424216
      dxz     :     0.115573
      dyz     :     0.093340
      dx2y2   :     0.099708
      dxy     :     0.029485
      f0      :     0.013437  f :     0.057558
      f+1     :     0.003459
      f-1     :     0.012614
      f+2     :     0.009848
      f-2     :     0.009664
      f+3     :     0.004266
      f-3     :     0.004269
 15 H s       :     0.840204  s :     0.840204
      pz      :     0.015913  p :     0.058754
      px      :     0.031006
      py      :     0.011835
 16 H s       :     0.853369  s :     0.853369
      pz      :     0.021093  p :     0.058550
      px      :     0.027336
      py      :     0.010121
 17 H s       :     0.853328  s :     0.853328
      pz      :     0.011373  p :     0.058459
      px      :     0.012546
      py      :     0.034540


                      *****************************
                      * MAYER POPULATION ANALYSIS *
                      *****************************

  NA   - Mulliken gross atomic population
  ZA   - Total nuclear charge
  QA   - Mulliken gross atomic charge
  VA   - Mayer's total valence
  BVA  - Mayer's bonded valence
  FA   - Mayer's free valence

  ATOM       NA         ZA         QA         VA         BVA        FA
  0 O      8.5524     8.0000    -0.5524     1.7888     1.7888     0.0000
  1 H      0.6681     1.0000     0.3319     0.8950     0.8950     0.0000
  2 C      6.0802     6.0000    -0.0802     3.8913     3.8913     0.0000
  3 H      0.8901     1.0000     0.1099     0.9626     0.9626    -0.0000
  4 H      0.9022     1.0000     0.0978     0.9622     0.9622     0.0000
  5 H      0.9044     1.0000     0.0956     0.9614     0.9614    -0.0000
  6 O      8.5524     8.0000    -0.5524     1.7911     1.7911     0.0000
  7 H      0.6626     1.0000     0.3374     0.8956     0.8956     0.0000
  8 C      6.0626     6.0000    -0.0626     3.9051     3.9051    -0.0000
  9 H      0.8937     1.0000     0.1063     0.9614     0.9614    -0.0000
 10 H      0.9040     1.0000     0.0960     0.9636     0.9636    -0.0000
 11 H      0.9272     1.0000     0.0728     0.9607     0.9607    -0.0000
 12 O      8.5487     8.0000    -0.5487     1.7909     1.7909    -0.0000
 13 H      0.6691     1.0000     0.3309     0.8972     0.8972     0.0000
 14 C      6.0737     6.0000    -0.0737     3.8988     3.8988    -0.0000
 15 H      0.8922     1.0000     0.1078     0.9617     0.9617    -0.0000
 16 H      0.9083     1.0000     0.0917     0.9612     0.9612    -0.0000
 17 H      0.9081     1.0000     0.0919     0.9616     0.9616    -0.0000

  Mayer bond orders larger than 0.100000
B(  0-O ,  1-H ) :   0.8871 B(  0-O ,  2-C ) :   0.9253 B(  2-C ,  3-H ) :   0.9833 
B(  2-C ,  4-H ) :   0.9884 B(  2-C ,  5-H ) :   0.9874 B(  6-O ,  7-H ) :   0.8821 
B(  6-O ,  8-C ) :   0.9368 B(  8-C ,  9-H ) :   0.9841 B(  8-C , 10-H ) :   0.9905 
B(  8-C , 11-H ) :   0.9866 B( 12-O , 13-H ) :   0.8861 B( 12-O , 14-C ) :   0.9321 
B( 14-C , 15-H ) :   0.9828 B( 14-C , 16-H ) :   0.9880 B( 14-C , 17-H ) :   0.9877 


-------
TIMINGS
-------

Total SCF time: 0 days 0 hours 0 min 9 sec 

Total time                  ....       9.533 sec
Sum of individual times     ....       9.278 sec  ( 97.3%)

Fock matrix formation       ....       8.924 sec  ( 93.6%)
Diagonalization             ....       0.074 sec  (  0.8%)
Density matrix formation    ....       0.009 sec  (  0.1%)
Population analysis         ....       0.024 sec  (  0.3%)
Initial guess               ....       0.136 sec  (  1.4%)
Orbital Transformation      ....       0.000 sec  (  0.0%)
Orbital Orthonormalization  ....       0.000 sec  (  0.0%)
DIIS solution               ....       0.025 sec  (  0.3%)
SOSCF solution              ....       0.031 sec  (  0.3%)


           ************************************************************
           *        Program running with 6 parallel MPI-processes     *
           *              working on a common directory               *
           ************************************************************

------------------------------------------------------------------------------
                                ORCA  MP2 
------------------------------------------------------------------------------

Freezing NCore=12 chemical core electrons
MP2 will be done in the AO integral direct mode
The Q1-step will be done using symmetric double matrices
Dimension of the basis                    ...  258
Memory devoted for MP2                    ... 8000 MB   
Memory needed for all in one shot         ...  264 MB
Number of MOs that can be treated together...  120      
MP2 density construction                  ... relaxed
The MP2 gradient is requested => amplitudes will be stored on disk
Total number of MOs              ...   21
Number of MOs treated per batch  ...    4 
Number of batches necessary      ...    1 
OPERATORS   0/  0 PASS   0
-----------------------------------------------
 MP2 CORRELATION ENERGY   :     -1.252313983 Eh
-----------------------------------------------


---------------------
MP2 DENSITY FORMATION
---------------------

Completing the external part of the density      ... done
Storing the unrelaxed density                    ... done

Calculating G(D)                                 ... done
Completing the Lagrangian                        ... done
Solving the Z-vector equations                   ... 

------------------------------------------------------------------------------
                           ORCA CP-SCF CALCULATION
------------------------------------------------------------------------------

Input orbitals are from        ... 12meoh.boyd.etal.mol2,3,6-orca.engrad-mp2.def2tzvp.frozencore.gbw
Input Perturbation             ... 12meoh.boyd.etal.mol2,3,6-orca.engrad-mp2.def2tzvp.frozencore.pin.tmp
Wavefunction output            ... 12meoh.boyd.etal.mol2,3,6-orca.engrad-mp2.def2tzvp.frozencore.pout.tmp
Perturbation mode              ... Real perturbation (singlet)
Solver                         ... POPLE
Max. number of iterations      ... 128
Convergence tolerance          ... 1.000e-08
Integral handling              ... Direct
Number of perturbations        ... 1
Number of operators            ... 1
Orbital ranges used for CP-SCF:
 Operator 0:  Orbitals   0... 26  to  27...257
Variables per vector in CP-SCF ... 6237
Number of vectors sought       ... 1
     CP-SCF ITERATION   0: 
     CP-SCF ITERATION   1:      0.000362402063
     CP-SCF ITERATION   2:      0.000017377529
     CP-SCF ITERATION   3:      0.000002546839
     CP-SCF ITERATION   4:      0.000000158196
     CP-SCF ITERATION   5:      0.000000004734
                                                 ... done
Finalizing the relaxed density                   ... done
Transforming P to the AO basis                   ... done
Storing the relaxed density                      ... done

------------------------------------
ENERGY WEIGHTED DENSITY FINALIZATION
------------------------------------

Gathering the parts of the W-matrix              ...                                                      done
Forming the Z-density                            ... done
Transforming Z to the AO basis                   ... done
Calculating G(Z)                                 ... done
Finalizing the W-matrix                          ...                                                      done
Transforming W to the AO basis and storing       ... done

                *********************************************
                * UNRELAXED MP2 DENSITY POPULATION ANALYSIS *
                *********************************************

------------------------------------------------------------------------------
                           ORCA POPULATION ANALYSIS
------------------------------------------------------------------------------
Input electron density              ... 12meoh.boyd.etal.mol2,3,6-orca.engrad-mp2.def2tzvp.frozencore.pmp2ur
BaseName (.gbw .S,...)              ... 12meoh.boyd.etal.mol2,3,6-orca.engrad-mp2.def2tzvp.frozencore

                    ********************************
                    * MULLIKEN POPULATION ANALYSIS *
                    ********************************

-----------------------
MULLIKEN ATOMIC CHARGES
-----------------------
   0 O :   -0.541252
   1 H :    0.329255
   2 C :   -0.096137
   3 H :    0.112634
   4 H :    0.100202
   5 H :    0.098019
   6 O :   -0.541281
   7 H :    0.334592
   8 C :   -0.078628
   9 H :    0.109071
  10 H :    0.098438
  11 H :    0.075087
  12 O :   -0.537679
  13 H :    0.328213
  14 C :   -0.089602
  15 H :    0.110604
  16 H :    0.094117
  17 H :    0.094347
Sum of atomic charges:   -0.0000000

--------------------------------
MULLIKEN REDUCED ORBITAL CHARGES
--------------------------------
  0 O s       :     3.800617  s :     3.800617
      pz      :     1.573577  p :     4.676503
      px      :     1.474833
      py      :     1.628093
      dz2     :     0.011033  d :     0.059754
      dxz     :     0.011721
      dyz     :     0.012292
      dx2y2   :     0.013643
      dxy     :     0.011063
      f0      :     0.000601  f :     0.004378
      f+1     :     0.000491
      f-1     :     0.000807
      f+2     :     0.000714
      f-2     :     0.000657
      f+3     :     0.000500
      f-3     :     0.000608
  1 H s       :     0.625848  s :     0.625848
      pz      :     0.013523  p :     0.044896
      px      :     0.017044
      py      :     0.014329
  2 C s       :     3.195875  s :     3.195875
      pz      :     0.828539  p :     2.753700
      px      :     1.048944
      py      :     0.876217
      dz2     :     0.029163  d :     0.134357
      dxz     :     0.035093
      dyz     :     0.021696
      dx2y2   :     0.025541
      dxy     :     0.022865
      f0      :     0.002089  f :     0.012205
      f+1     :     0.000998
      f-1     :     0.002211
      f+2     :     0.002468
      f-2     :     0.002285
      f+3     :     0.001226
      f-3     :     0.000927
  3 H s       :     0.863123  s :     0.863123
      pz      :     0.006656  p :     0.024243
      px      :     0.013049
      py      :     0.004538
  4 H s       :     0.876590  s :     0.876590
      pz      :     0.008967  p :     0.023208
      px      :     0.009238
      py      :     0.005003
  5 H s       :     0.878453  s :     0.878453
      pz      :     0.004986  p :     0.023528
      px      :     0.005612
      py      :     0.012930
  6 O s       :     3.801553  s :     3.801553
      pz      :     1.377193  p :     4.675446
      px      :     1.729585
      py      :     1.568668
      dz2     :     0.015973  d :     0.059908
      dxz     :     0.009463
      dyz     :     0.013311
      dx2y2   :     0.008307
      dxy     :     0.012854
      f0      :     0.000785  f :     0.004375
      f+1     :     0.000750
      f-1     :     0.000578
      f+2     :     0.000465
      f-2     :     0.000654
      f+3     :     0.000713
      f-3     :     0.000430
  7 H s       :     0.621166  s :     0.621166
      pz      :     0.011801  p :     0.044242
      px      :     0.016244
      py      :     0.016197
  8 C s       :     3.186781  s :     3.186781
      pz      :     0.712548  p :     2.744070
      px      :     1.011574
      py      :     1.019948
      dz2     :     0.029906  d :     0.135548
      dxz     :     0.039037
      dyz     :     0.030713
      dx2y2   :     0.012354
      dxy     :     0.023538
      f0      :     0.002962  f :     0.012229
      f+1     :     0.002477
      f-1     :     0.002222
      f+2     :     0.001194
      f-2     :     0.001329
      f+3     :     0.001448
      f-3     :     0.000597
  9 H s       :     0.866785  s :     0.866785
      pz      :     0.005025  p :     0.024144
      px      :     0.008208
      py      :     0.010911
 10 H s       :     0.878154  s :     0.878154
      pz      :     0.007596  p :     0.023408
      px      :     0.011248
      py      :     0.004564
 11 H s       :     0.901705  s :     0.901705
      pz      :     0.003354  p :     0.023207
      px      :     0.007765
      py      :     0.012087
 12 O s       :     3.799988  s :     3.799988
      pz      :     1.459914  p :     4.673600
      px      :     1.568844
      py      :     1.644842
      dz2     :     0.009108  d :     0.059710
      dxz     :     0.011946
      dyz     :     0.015992
      dx2y2   :     0.012309
      dxy     :     0.010355
      f0      :     0.000597  f :     0.004381
      f+1     :     0.000555
      f-1     :     0.000756
      f+2     :     0.000839
      f-2     :     0.000666
      f+3     :     0.000427
      f-3     :     0.000541
 13 H s       :     0.627729  s :     0.627729
      pz      :     0.014631  p :     0.044058
      px      :     0.017446
      py      :     0.011981
 14 C s       :     3.191810  s :     3.191810
      pz      :     0.824244  p :     2.750187
      px      :     1.046960
      py      :     0.878983
      dz2     :     0.028936  d :     0.135355
      dxz     :     0.039041
      dyz     :     0.021721
      dx2y2   :     0.031311
      dxy     :     0.014347
      f0      :     0.002066  f :     0.012249
      f+1     :     0.001129
      f-1     :     0.002105
      f+2     :     0.002853
      f-2     :     0.001957
      f+3     :     0.000969
      f-3     :     0.001170
 15 H s       :     0.865165  s :     0.865165
      pz      :     0.006983  p :     0.024231
      px      :     0.012553
      py      :     0.004696
 16 H s       :     0.882515  s :     0.882515
      pz      :     0.008629  p :     0.023368
      px      :     0.010712
      py      :     0.004028
 17 H s       :     0.882435  s :     0.882435
      pz      :     0.004504  p :     0.023218
      px      :     0.004657
      py      :     0.014058


                     *******************************
                     * LOEWDIN POPULATION ANALYSIS *
                     *******************************

----------------------
LOEWDIN ATOMIC CHARGES
----------------------
   0 O :   -0.126719
   1 H :    0.184864
   2 C :   -0.341997
   3 H :    0.103058
   4 H :    0.091093
   5 H :    0.091518
   6 O :   -0.124642
   7 H :    0.190771
   8 C :   -0.346087
   9 H :    0.101753
  10 H :    0.091893
  11 H :    0.084496
  12 O :   -0.125087
  13 H :    0.190380
  14 C :   -0.347319
  15 H :    0.102804
  16 H :    0.089539
  17 H :    0.089684

-------------------------------
LOEWDIN REDUCED ORBITAL CHARGES
-------------------------------
  0 O s       :     3.392120  s :     3.392120
      pz      :     1.558725  p :     4.630842
      px      :     1.476249
      py      :     1.595867
      dz2     :     0.019006  d :     0.096749
      dxz     :     0.019951
      dyz     :     0.021216
      dx2y2   :     0.018674
      dxy     :     0.017902
      f0      :     0.001024  f :     0.007007
      f+1     :     0.000798
      f-1     :     0.001275
      f+2     :     0.001185
      f-2     :     0.000984
      f+3     :     0.000773
      f-3     :     0.000970
  1 H s       :     0.665535  s :     0.665535
      pz      :     0.036470  p :     0.149601
      px      :     0.074388
      py      :     0.038743
  2 C s       :     2.862373  s :     2.862373
      pz      :     0.930556  p :     2.977862
      px      :     1.084891
      py      :     0.962415
      dz2     :     0.091844  d :     0.440002
      dxz     :     0.108836
      dyz     :     0.095811
      dx2y2   :     0.081578
      dxy     :     0.061934
      f0      :     0.013498  f :     0.061760
      f+1     :     0.004190
      f-1     :     0.013362
      f+2     :     0.009779
      f-2     :     0.010493
      f+3     :     0.005612
      f-3     :     0.004826
  3 H s       :     0.833098  s :     0.833098
      pz      :     0.017058  p :     0.063844
      px      :     0.034763
      py      :     0.012023
  4 H s       :     0.844692  s :     0.844692
      pz      :     0.024425  p :     0.064216
      px      :     0.025546
      py      :     0.014245
  5 H s       :     0.844781  s :     0.844781
      pz      :     0.013912  p :     0.063701
      px      :     0.016116
      py      :     0.033673
  6 O s       :     3.392443  s :     3.392443
      pz      :     1.422801  p :     4.628331
      px      :     1.656237
      py      :     1.549293
      dz2     :     0.027179  d :     0.096851
      dxz     :     0.019664
      dyz     :     0.024514
      dx2y2   :     0.008382
      dxy     :     0.017113
      f0      :     0.001516  f :     0.007017
      f+1     :     0.001301
      f-1     :     0.001263
      f+2     :     0.000689
      f-2     :     0.000902
      f+3     :     0.000942
      f-3     :     0.000405
  7 H s       :     0.661540  s :     0.661540
      pz      :     0.031142  p :     0.147689
      px      :     0.050569
      py      :     0.065978
  8 C s       :     2.860988  s :     2.860988
      pz      :     0.844062  p :     2.977847
      px      :     1.060548
      py      :     1.073236
      dz2     :     0.123005  d :     0.445018
      dxz     :     0.131090
      dyz     :     0.092822
      dx2y2   :     0.025889
      dxy     :     0.072212
      f0      :     0.017579  f :     0.062235
      f+1     :     0.011971
      f-1     :     0.014800
      f+2     :     0.007588
      f-2     :     0.005268
      f+3     :     0.003810
      f-3     :     0.001219
  9 H s       :     0.834703  s :     0.834703
      pz      :     0.012388  p :     0.063544
      px      :     0.021864
      py      :     0.029292
 10 H s       :     0.844353  s :     0.844353
      pz      :     0.020015  p :     0.063754
      px      :     0.030487
      py      :     0.013252
 11 H s       :     0.851996  s :     0.851996
      pz      :     0.009397  p :     0.063508
      px      :     0.021497
      py      :     0.032615
 12 O s       :     3.392805  s :     3.392805
      pz      :     1.459103  p :     4.628155
      px      :     1.529459
      py      :     1.639594
      dz2     :     0.016928  d :     0.097127
      dxz     :     0.024026
      dyz     :     0.025035
      dx2y2   :     0.018123
      dxy     :     0.013015
      f0      :     0.001119  f :     0.007000
      f+1     :     0.000688
      f-1     :     0.001289
      f+2     :     0.001169
      f-2     :     0.001310
      f+3     :     0.000582
      f-3     :     0.000843
 13 H s       :     0.663700  s :     0.663700
      pz      :     0.041977  p :     0.145921
      px      :     0.065857
      py      :     0.038086
 14 C s       :     2.861083  s :     2.861083
      pz      :     0.921762  p :     2.978908
      px      :     1.081880
      py      :     0.975266
      dz2     :     0.089988  d :     0.444895
      dxz     :     0.119279
      dyz     :     0.097332
      dx2y2   :     0.103930
      dxy     :     0.034366
      f0      :     0.013929  f :     0.062434
      f+1     :     0.004153
      f-1     :     0.013405
      f+2     :     0.010904
      f-2     :     0.010212
      f+3     :     0.004872
      f-3     :     0.004959
 15 H s       :     0.833436  s :     0.833436
      pz      :     0.017539  p :     0.063761
      px      :     0.033066
      py      :     0.013156
 16 H s       :     0.846673  s :     0.846673
      pz      :     0.023013  p :     0.063787
      px      :     0.029350
      py      :     0.011424
 17 H s       :     0.846631  s :     0.846631
      pz      :     0.012802  p :     0.063685
      px      :     0.013799
      py      :     0.037084


                      *****************************
                      * MAYER POPULATION ANALYSIS *
                      *****************************

  NA   - Mulliken gross atomic population
  ZA   - Total nuclear charge
  QA   - Mulliken gross atomic charge
  VA   - Mayer's total valence
  BVA  - Mayer's bonded valence
  FA   - Mayer's free valence

  ATOM       NA         ZA         QA         VA         BVA        FA
  0 O      8.5413     8.0000    -0.5413     2.0890     1.6830     0.4060
  1 H      0.6707     1.0000     0.3293     0.9014     0.8488     0.0526
  2 C      6.0961     6.0000    -0.0961     3.9969     3.7184     0.2785
  3 H      0.8874     1.0000     0.1126     0.9715     0.9246     0.0469
  4 H      0.8998     1.0000     0.1002     0.9719     0.9233     0.0487
  5 H      0.9020     1.0000     0.0980     0.9711     0.9222     0.0489
  6 O      8.5413     8.0000    -0.5413     2.0905     1.6853     0.4052
  7 H      0.6654     1.0000     0.3346     0.9021     0.8497     0.0524
  8 C      6.0786     6.0000    -0.0786     4.0090     3.7307     0.2784
  9 H      0.8909     1.0000     0.1091     0.9704     0.9233     0.0471
 10 H      0.9016     1.0000     0.0984     0.9732     0.9243     0.0489
 11 H      0.9249     1.0000     0.0751     0.9716     0.9211     0.0506
 12 O      8.5377     8.0000    -0.5377     2.0902     1.6849     0.4053
 13 H      0.6718     1.0000     0.3282     0.9037     0.8506     0.0531
 14 C      6.0896     6.0000    -0.0896     4.0036     3.7255     0.2780
 15 H      0.8894     1.0000     0.1106     0.9707     0.9238     0.0469
 16 H      0.9059     1.0000     0.0941     0.9711     0.9220     0.0491
 17 H      0.9057     1.0000     0.0943     0.9716     0.9224     0.0491

  Mayer bond orders larger than 0.100000
B(  0-O ,  1-H ) :   0.8418 B(  0-O ,  2-C ) :   0.8666 B(  2-C ,  3-H ) :   0.9459 
B(  2-C ,  4-H ) :   0.9504 B(  2-C ,  5-H ) :   0.9491 B(  6-O ,  7-H ) :   0.8372 
B(  6-O ,  8-C ) :   0.8775 B(  8-C ,  9-H ) :   0.9466 B(  8-C , 10-H ) :   0.9523 
B(  8-C , 11-H ) :   0.9480 B( 12-O , 13-H ) :   0.8404 B( 12-O , 14-C ) :   0.8734 
B( 14-C , 15-H ) :   0.9454 B( 14-C , 16-H ) :   0.9498 B( 14-C , 17-H ) :   0.9495 



                *******************************************
                * RELAXED MP2 DENSITY POPULATION ANALYSIS *
                *******************************************

------------------------------------------------------------------------------
                           ORCA POPULATION ANALYSIS
------------------------------------------------------------------------------
Input electron density              ... 12meoh.boyd.etal.mol2,3,6-orca.engrad-mp2.def2tzvp.frozencore.pmp2re
BaseName (.gbw .S,...)              ... 12meoh.boyd.etal.mol2,3,6-orca.engrad-mp2.def2tzvp.frozencore

                    ********************************
                    * MULLIKEN POPULATION ANALYSIS *
                    ********************************

-----------------------
MULLIKEN ATOMIC CHARGES
-----------------------
   0 O :   -0.502842
   1 H :    0.323900
   2 C :   -0.178245
   3 H :    0.130563
   4 H :    0.116220
   5 H :    0.114187
   6 O :   -0.503058
   7 H :    0.328129
   8 C :   -0.160974
   9 H :    0.127103
  10 H :    0.114688
  11 H :    0.090331
  12 O :   -0.500416
  13 H :    0.322933
  14 C :   -0.171529
  15 H :    0.128625
  16 H :    0.110182
  17 H :    0.110202
Sum of atomic charges:   -0.0000000

--------------------------------
MULLIKEN REDUCED ORBITAL CHARGES
--------------------------------
  0 O s       :     3.802591  s :     3.802591
      pz      :     1.564063  p :     4.638274
      px      :     1.457282
      py      :     1.616930
      dz2     :     0.010864  d :     0.057655
      dxz     :     0.011591
      dyz     :     0.011442
      dx2y2   :     0.012903
      dxy     :     0.010854
      f0      :     0.000601  f :     0.004323
      f+1     :     0.000487
      f-1     :     0.000792
      f+2     :     0.000700
      f-2     :     0.000653
      f+3     :     0.000495
      f-3     :     0.000596
  1 H s       :     0.630560  s :     0.630560
      pz      :     0.014150  p :     0.045540
      px      :     0.016433
      py      :     0.014957
  2 C s       :     3.218178  s :     3.218178
      pz      :     0.848852  p :     2.823375
      px      :     1.075470
      py      :     0.899053
      dz2     :     0.030136  d :     0.125039
      dxz     :     0.031799
      dyz     :     0.018048
      dx2y2   :     0.022910
      dxy     :     0.022147
      f0      :     0.001963  f :     0.011653
      f+1     :     0.000993
      f-1     :     0.002120
      f+2     :     0.002310
      f-2     :     0.002213
      f+3     :     0.001183
      f-3     :     0.000870
  3 H s       :     0.846345  s :     0.846345
      pz      :     0.006469  p :     0.023091
      px      :     0.011902
      py      :     0.004721
  4 H s       :     0.861701  s :     0.861701
      pz      :     0.008322  p :     0.022080
      px      :     0.008672
      py      :     0.005086
  5 H s       :     0.863384  s :     0.863384
      pz      :     0.005007  p :     0.022429
      px      :     0.005676
      py      :     0.011746
  6 O s       :     3.803025  s :     3.803025
      pz      :     1.369448  p :     4.637948
      px      :     1.716827
      py      :     1.551672
      dz2     :     0.014709  d :     0.057766
      dxz     :     0.009546
      dyz     :     0.013038
      dx2y2   :     0.008262
      dxy     :     0.012212
      f0      :     0.000767  f :     0.004319
      f+1     :     0.000744
      f-1     :     0.000570
      f+2     :     0.000466
      f-2     :     0.000646
      f+3     :     0.000696
      f-3     :     0.000431
  7 H s       :     0.627080  s :     0.627080
      pz      :     0.012102  p :     0.044791
      px      :     0.016747
      py      :     0.015942
  8 C s       :     3.208678  s :     3.208678
      pz      :     0.729214  p :     2.814532
      px      :     1.038235
      py      :     1.047083
      dz2     :     0.027293  d :     0.126092
      dxz     :     0.036084
      dyz     :     0.032314
      dx2y2   :     0.011192
      dxy     :     0.019209
      f0      :     0.002797  f :     0.011672
      f+1     :     0.002368
      f-1     :     0.002163
      f+2     :     0.001105
      f-2     :     0.001300
      f+3     :     0.001350
      f-3     :     0.000588
  9 H s       :     0.849899  s :     0.849899
      pz      :     0.005003  p :     0.022998
      px      :     0.007890
      py      :     0.010105
 10 H s       :     0.863026  s :     0.863026
      pz      :     0.007161  p :     0.022285
      px      :     0.010334
      py      :     0.004790
 11 H s       :     0.887528  s :     0.887528
      pz      :     0.003610  p :     0.022141
      px      :     0.007479
      py      :     0.011052
 12 O s       :     3.801521  s :     3.801521
      pz      :     1.451718  p :     4.636969
      px      :     1.554384
      py      :     1.630867
      dz2     :     0.009164  d :     0.057599
      dxz     :     0.011675
      dyz     :     0.014669
      dx2y2   :     0.011902
      dxy     :     0.010190
      f0      :     0.000597  f :     0.004326
      f+1     :     0.000558
      f-1     :     0.000735
      f+2     :     0.000815
      f-2     :     0.000664
      f+3     :     0.000426
      f-3     :     0.000532
 13 H s       :     0.632455  s :     0.632455
      pz      :     0.014720  p :     0.044611
      px      :     0.017169
      py      :     0.012722
 14 C s       :     3.213838  s :     3.213838
      pz      :     0.844229  p :     2.820248
      px      :     1.073709
      py      :     0.902309
      dz2     :     0.029428  d :     0.125755
      dxz     :     0.034877
      dyz     :     0.019654
      dx2y2   :     0.026860
      dxy     :     0.014936
      f0      :     0.001921  f :     0.011688
      f+1     :     0.001105
      f-1     :     0.002021
      f+2     :     0.002722
      f-2     :     0.001871
      f+3     :     0.000917
      f-3     :     0.001130
 15 H s       :     0.848300  s :     0.848300
      pz      :     0.006738  p :     0.023075
      px      :     0.011537
      py      :     0.004799
 16 H s       :     0.867551  s :     0.867551
      pz      :     0.008079  p :     0.022267
      px      :     0.009896
      py      :     0.004292
 17 H s       :     0.867694  s :     0.867694
      pz      :     0.004612  p :     0.022104
      px      :     0.004865
      py      :     0.012627


                     *******************************
                     * LOEWDIN POPULATION ANALYSIS *
                     *******************************

----------------------
LOEWDIN ATOMIC CHARGES
----------------------
   0 O :   -0.113219
   1 H :    0.187516
   2 C :   -0.376756
   3 H :    0.110220
   4 H :    0.097391
   5 H :    0.097440
   6 O :   -0.111345
   7 H :    0.192849
   8 C :   -0.381268
   9 H :    0.109093
  10 H :    0.097906
  11 H :    0.090172
  12 O :   -0.112171
  13 H :    0.193031
  14 C :   -0.382200
  15 H :    0.110038
  16 H :    0.095526
  17 H :    0.095777

-------------------------------
LOEWDIN REDUCED ORBITAL CHARGES
-------------------------------
  0 O s       :     3.395131  s :     3.395131
      pz      :     1.552648  p :     4.614707
      px      :     1.472647
      py      :     1.589412
      dz2     :     0.019221  d :     0.096265
      dxz     :     0.019923
      dyz     :     0.020824
      dx2y2   :     0.018442
      dxy     :     0.017855
      f0      :     0.001047  f :     0.007117
      f+1     :     0.000796
      f-1     :     0.001303
      f+2     :     0.001210
      f-2     :     0.001005
      f+3     :     0.000774
      f-3     :     0.000983
  1 H s       :     0.662237  s :     0.662237
      pz      :     0.036779  p :     0.150246
      px      :     0.074305
      py      :     0.039163
  2 C s       :     2.868384  s :     2.868384
      pz      :     0.942652  p :     3.017859
      px      :     1.099797
      py      :     0.975410
      dz2     :     0.093096  d :     0.430286
      dxz     :     0.105686
      dyz     :     0.090699
      dx2y2   :     0.079929
      dxy     :     0.060876
      f0      :     0.013206  f :     0.060227
      f+1     :     0.004054
      f-1     :     0.013076
      f+2     :     0.009456
      f-2     :     0.010255
      f+3     :     0.005477
      f-3     :     0.004702
  3 H s       :     0.825573  s :     0.825573
      pz      :     0.017345  p :     0.064206
      px      :     0.034380
      py      :     0.012481
  4 H s       :     0.837673  s :     0.837673
      pz      :     0.024679  p :     0.064936
      px      :     0.025613
      py      :     0.014644
  5 H s       :     0.838152  s :     0.838152
      pz      :     0.014281  p :     0.064409
      px      :     0.016526
      py      :     0.033602
  6 O s       :     3.395337  s :     3.395337
      pz      :     1.418615  p :     4.612563
      px      :     1.650237
      py      :     1.543710
      dz2     :     0.026593  d :     0.096317
      dxz     :     0.019891
      dyz     :     0.024575
      dx2y2   :     0.008476
      dxy     :     0.016782
      f0      :     0.001555  f :     0.007127
      f+1     :     0.001328
      f-1     :     0.001280
      f+2     :     0.000699
      f-2     :     0.000914
      f+3     :     0.000946
      f-3     :     0.000407
  7 H s       :     0.658945  s :     0.658945
      pz      :     0.031108  p :     0.148206
      px      :     0.050982
      py      :     0.066116
  8 C s       :     2.866958  s :     2.866958
      pz      :     0.853648  p :     3.017876
      px      :     1.075836
      py      :     1.088392
      dz2     :     0.120170  d :     0.435726
      dxz     :     0.129410
      dyz     :     0.093202
      dx2y2   :     0.024002
      dxy     :     0.068943
      f0      :     0.017101  f :     0.060708
      f+1     :     0.011564
      f-1     :     0.014622
      f+2     :     0.007496
      f-2     :     0.005033
      f+3     :     0.003692
      f-3     :     0.001200
  9 H s       :     0.826984  s :     0.826984
      pz      :     0.012751  p :     0.063923
      px      :     0.022043
      py      :     0.029129
 10 H s       :     0.837622  s :     0.837622
      pz      :     0.020443  p :     0.064472
      px      :     0.030306
      py      :     0.013723
 11 H s       :     0.845553  s :     0.845553
      pz      :     0.010054  p :     0.064275
      px      :     0.021752
      py      :     0.032469
 12 O s       :     3.395766  s :     3.395766
      pz      :     1.456587  p :     4.612679
      px      :     1.526263
      py      :     1.629830
      dz2     :     0.017266  d :     0.096614
      dxz     :     0.023925
      dyz     :     0.024346
      dx2y2   :     0.017892
      dxy     :     0.013185
      f0      :     0.001142  f :     0.007112
      f+1     :     0.000694
      f-1     :     0.001316
      f+2     :     0.001195
      f-2     :     0.001331
      f+3     :     0.000591
      f-3     :     0.000843
 13 H s       :     0.660419  s :     0.660419
      pz      :     0.041798  p :     0.146550
      px      :     0.065825
      py      :     0.038927
 14 C s       :     2.867009  s :     2.867009
      pz      :     0.933501  p :     3.018892
      px      :     1.097144
      py      :     0.988247
      dz2     :     0.090661  d :     0.435404
      dxz     :     0.116009
      dyz     :     0.093749
      dx2y2   :     0.100840
      dxy     :     0.034145
      f0      :     0.013659  f :     0.060896
      f+1     :     0.003984
      f-1     :     0.013113
      f+2     :     0.010621
      f-2     :     0.009913
      f+3     :     0.004760
      f-3     :     0.004846
 15 H s       :     0.825848  s :     0.825848
      pz      :     0.017770  p :     0.064114
      px      :     0.032801
      py      :     0.013542
 16 H s       :     0.839940  s :     0.839940
      pz      :     0.023316  p :     0.064534
      px      :     0.029273
      py      :     0.011945
 17 H s       :     0.839803  s :     0.839803
      pz      :     0.013249  p :     0.064420
      px      :     0.014262
      py      :     0.036909


                      *****************************
                      * MAYER POPULATION ANALYSIS *
                      *****************************

  NA   - Mulliken gross atomic population
  ZA   - Total nuclear charge
  QA   - Mulliken gross atomic charge
  VA   - Mayer's total valence
  BVA  - Mayer's bonded valence
  FA   - Mayer's free valence

  ATOM       NA         ZA         QA         VA         BVA        FA
  0 O      8.5028     8.0000    -0.5028     2.1445     1.7453     0.3992
  1 H      0.6761     1.0000     0.3239     0.9035     0.8508     0.0527
  2 C      6.1782     6.0000    -0.1782     4.0196     3.7433     0.2763
  3 H      0.8694     1.0000     0.1306     0.9630     0.9167     0.0463
  4 H      0.8838     1.0000     0.1162     0.9658     0.9177     0.0481
  5 H      0.8858     1.0000     0.1142     0.9625     0.9143     0.0483
  6 O      8.5031     8.0000    -0.5031     2.1454     1.7467     0.3987
  7 H      0.6719     1.0000     0.3281     0.9066     0.8542     0.0524
  8 C      6.1610     6.0000    -0.1610     4.0317     3.7555     0.2761
  9 H      0.8729     1.0000     0.1271     0.9619     0.9154     0.0465
 10 H      0.8853     1.0000     0.1147     0.9655     0.9173     0.0483
 11 H      0.9097     1.0000     0.0903     0.9654     0.9156     0.0499
 12 O      8.5004     8.0000    -0.5004     2.1445     1.7457     0.3988
 13 H      0.6771     1.0000     0.3229     0.9061     0.8529     0.0533
 14 C      6.1715     6.0000    -0.1715     4.0254     3.7496     0.2758
 15 H      0.8714     1.0000     0.1286     0.9623     0.9159     0.0464
 16 H      0.8898     1.0000     0.1102     0.9635     0.9150     0.0485
 17 H      0.8898     1.0000     0.1102     0.9646     0.9161     0.0485

  Mayer bond orders larger than 0.100000
B(  0-O ,  1-H ) :   0.8414 B(  0-O ,  2-C ) :   0.9187 B(  2-C ,  3-H ) :   0.9378 
B(  2-C ,  4-H ) :   0.9408 B(  2-C ,  5-H ) :   0.9383 B(  6-O ,  7-H ) :   0.8377 
B(  6-O ,  8-C ) :   0.9301 B(  8-C ,  9-H ) :   0.9381 B(  8-C , 10-H ) :   0.9418 
B(  8-C , 11-H ) :   0.9376 B( 12-O , 13-H ) :   0.8407 B( 12-O , 14-C ) :   0.9252 
B( 14-C , 15-H ) :   0.9373 B( 14-C , 16-H ) :   0.9391 B( 14-C , 17-H ) :   0.9392 



----------------------------------
MP2 DERIVATIVE INTEGRAL GENERATION
----------------------------------


Input Wavefunction Amplitudes       ... 12meoh.boyd.etal.mol2,3,6-orca.engrad-mp2.def2tzvp.frozencore.mp2tsaa.tmp
Input Correlated Electron Density   ... 12meoh.boyd.etal.mol2,3,6-orca.engrad-mp2.def2tzvp.frozencore.pmp2re
Input Energy Weighted Density       ... 12meoh.boyd.etal.mol2,3,6-orca.engrad-mp2.def2tzvp.frozencore.wmp2.tmp
Input SCF Electron Density          ... 12meoh.boyd.etal.mol2,3,6-orca.engrad-mp2.def2tzvp.frozencore.scfp

One-Electron Terms    ...
                        ... One-Electron Terms done
Prescreening matrices              ... done

Batch handling in the gradient evaluation:
Memory available                      ... 8000.0 MB
Memory per occupied orbital in Q2     ...   10.7 MB
Memory per occupied orbital in Q3     ...    0.1 MB
Total memory requirement per |i>      ...   10.8 MB
Max. Number of orbitals possible      ...    743
Number of orbitals treated per batch  ...     21
Number of batches to be done          ...      1
Batch   0: i=    6 ...    26

---------------------------------------
MP2 TOTAL ENERGY:     -346.522114722 Eh
---------------------------------------

The final MP2 gradient
  0:  -0.02036092   0.00971716  -0.00476918
  1:   0.02192297  -0.01001217   0.00760318
  2:  -0.00202020  -0.00283645  -0.00192289
  3:  -0.00329482   0.00222667  -0.00238416
  4:   0.00298020  -0.00142400  -0.00081904
  5:   0.00065545   0.00335990   0.00231303
  6:   0.01120964  -0.02110566   0.00792022
  7:  -0.01442104   0.02096417  -0.01052424
  8:   0.00368668  -0.00015839  -0.00156215
  9:   0.00199492  -0.00278123   0.00318828
 10:  -0.00386080  -0.00071480   0.00115190
 11:   0.00135607   0.00273948  -0.00018208
 12:   0.02101424   0.00765416  -0.01633087
 13:  -0.02487319  -0.00741848   0.01883203
 14:   0.00441138   0.00283102   0.00087680
 15:   0.00291255  -0.00031241  -0.00363887
 16:  -0.00276311   0.00083743  -0.00109252
 17:  -0.00055000  -0.00356641   0.00134054

-----------------------------------
NORM OF THE MP2 GRADIENT:  0.067544
-----------------------------------

-------------------------   --------------------
FINAL SINGLE POINT ENERGY      -346.522114722038
-------------------------   --------------------


                            ***************************************
                            *     ORCA property calculations      *
                            ***************************************

                                    ---------------------
                                    Active property flags
                                    ---------------------
   (+) Dipole Moment


------------------------------------------------------------------------------
                       ORCA ELECTRIC PROPERTIES CALCULATION
------------------------------------------------------------------------------

Dipole Moment Calculation                       ... on
Quadrupole Moment Calculation                   ... off
Polarizability Calculation                      ... off
GBWName                                         ... 12meoh.boyd.etal.mol2,3,6-orca.engrad-mp2.def2tzvp.frozencore.gbw
Electron density file                           ... 12meoh.boyd.etal.mol2,3,6-orca.engrad-mp2.def2tzvp.frozencore.scfp
The origin for moment calculation is the CENTER OF MASS  = (-2.941168, -0.894185 -0.355763)

-------------
DIPOLE MOMENT
-------------
                                X             Y             Z
Electronic contribution:     -0.92496      -0.40053       0.89049
Nuclear contribution   :      0.96140       0.67768      -0.94211
                        -----------------------------------------
Total Dipole Moment    :      0.03644       0.27716      -0.05162
                        -----------------------------------------
Magnitude (a.u.)       :      0.28427
Magnitude (Debye)      :      0.72255



--------------------
Rotational spectrum 
--------------------
 
Rotational constants in cm-1:     0.044010     0.013676     0.010897 
Rotational constants in MHz :  1319.400823   409.984167   326.687895 

 Dipole components along the rotational axes: 
x,y,z [a.u.] :    -0.075697     0.271818    -0.034534 
x,y,z [Debye]:    -0.192406     0.690906    -0.087779 

 

                         *** MP2 UNRELAXED DENSITY ***

------------------------------------------------------------------------------
                       ORCA ELECTRIC PROPERTIES CALCULATION
------------------------------------------------------------------------------

Dipole Moment Calculation                       ... on
Quadrupole Moment Calculation                   ... off
Polarizability Calculation                      ... off
GBWName                                         ... 12meoh.boyd.etal.mol2,3,6-orca.engrad-mp2.def2tzvp.frozencore.gbw
Electron density file                           ... 12meoh.boyd.etal.mol2,3,6-orca.engrad-mp2.def2tzvp.frozencore.pmp2ur
The origin for moment calculation is the CENTER OF MASS  = (-2.941168, -0.894185 -0.355763)

-------------
DIPOLE MOMENT
-------------
                                X             Y             Z
Electronic contribution:     -0.92889      -0.40525       0.89307
Nuclear contribution   :      0.96140       0.67768      -0.94211
                        -----------------------------------------
Total Dipole Moment    :      0.03251       0.27243      -0.04903
                        -----------------------------------------
Magnitude (a.u.)       :      0.27871
Magnitude (Debye)      :      0.70842



--------------------
Rotational spectrum 
--------------------
 
Rotational constants in cm-1:     0.044010     0.013676     0.010897 
Rotational constants in MHz :  1319.400823   409.984167   326.687895 

 Dipole components along the rotational axes: 
x,y,z [a.u.] :    -0.077728     0.265497    -0.033879 
x,y,z [Debye]:    -0.197570     0.674839    -0.086113 

 

                           *** MP2 RELAXED DENSITY ***

------------------------------------------------------------------------------
                       ORCA ELECTRIC PROPERTIES CALCULATION
------------------------------------------------------------------------------

Dipole Moment Calculation                       ... on
Quadrupole Moment Calculation                   ... off
Polarizability Calculation                      ... off
GBWName                                         ... 12meoh.boyd.etal.mol2,3,6-orca.engrad-mp2.def2tzvp.frozencore.gbw
Electron density file                           ... 12meoh.boyd.etal.mol2,3,6-orca.engrad-mp2.def2tzvp.frozencore.pmp2re
The origin for moment calculation is the CENTER OF MASS  = (-2.941168, -0.894185 -0.355763)

-------------
DIPOLE MOMENT
-------------
                                X             Y             Z
Electronic contribution:     -0.93672      -0.41135       0.89896
Nuclear contribution   :      0.96140       0.67768      -0.94211
                        -----------------------------------------
Total Dipole Moment    :      0.02468       0.26633      -0.04315
                        -----------------------------------------
Magnitude (a.u.)       :      0.27093
Magnitude (Debye)      :      0.68864



--------------------
Rotational spectrum 
--------------------
 
Rotational constants in cm-1:     0.044010     0.013676     0.010897 
Rotational constants in MHz :  1319.400823   409.984167   326.687895 

 Dipole components along the rotational axes: 
x,y,z [a.u.] :    -0.083488     0.255498    -0.033947 
x,y,z [Debye]:    -0.212211     0.649425    -0.086286 

 

Timings for individual modules:

Sum of individual times         ...       47.545 sec (=   0.792 min)
GTO integral calculation        ...        1.414 sec (=   0.024 min)   3.0 %
SCF iterations                  ...       10.451 sec (=   0.174 min)  22.0 %
MP2 module                      ...       35.680 sec (=   0.595 min)  75.0 %
                             ****ORCA TERMINATED NORMALLY****
TOTAL RUN TIME: 0 days 0 hours 0 minutes 48 seconds 588 msec
