18
Energy:   -139.96224003
O   -0.94441412  -1.70211425   0.40091337
H   -1.43306561  -0.87913797   0.41362555
H   -0.05583257  -1.45763168   0.65953076
O   -0.28044635  -2.00742901  -2.22518035
H   -0.58509138  -2.02494654  -1.31792272
H   -0.29388457  -2.92405396  -2.50058905
O    1.57586636  -0.63264382   0.72449459
H    1.39423031  -0.18262293  -0.10056382
H    2.48158868  -0.93081938   0.64088682
O    0.66113022   0.49484420  -1.56311726
H    0.40215015  -0.31859636  -1.99610181
H   -0.15004723   0.83415173  -1.18484039
C   -0.42308045   2.92288603   2.14988607
H    0.48873813   2.50889066   2.52684084
H   -1.12125426   3.03783254   2.95253153
H   -0.22588726   3.87777104   1.70919508
C   -1.01438104   1.97897057   1.08640725
N   -1.45463121   1.27618260   0.29459893
