18
Energy:   -141.19531968
O   -1.96123677  -1.13960084  -1.38849231
H   -2.61919227  -1.15482528  -2.08354240
H   -1.54303077  -0.28271473  -1.47264566
O   -1.15137635  -1.49260938   1.19072780
H   -1.17248983  -2.42427201   1.40933891
H   -1.48115368  -1.44917676   0.29317983
O   -0.72554330   1.26898573  -1.37794907
H   -0.58628475   1.33531597  -0.43325907
H    0.15615206   1.22573830  -1.74805012
O   -0.29201657   1.09747983   1.32759911
H   -0.55043343   0.17672423   1.36836316
H   -0.89513822   1.54259076   1.92287415
C    3.00854028   0.13422531   0.68921696
H    2.58540530   0.78714312   1.42376124
H    4.07541925   0.21153096   0.71552639
H    2.71872413  -0.87417564   0.89905789
C    2.49914785   0.53459366  -0.70786018
N    2.11988204   0.83268610  -1.74804761
