18
Energy:   -141.19422691
O   -0.30489777  -1.85443053   1.85110422
H    0.18848574  -1.86257380   1.03089799
H   -0.14383137  -2.71563483   2.23661248
O    1.12013417  -1.61265580  -0.43779636
H    0.57137769  -1.67353130  -1.21971218
H    1.32868237  -0.68146009  -0.36286940
O   -0.41315213   0.86145324   1.99832793
H   -0.42653290  -0.09504849   2.03234616
H   -1.12140848   1.13229957   2.58249147
O    1.39052944   1.09620954  -0.04920050
H    0.75738501   1.10790214   0.66859004
H    2.20084729   1.42484883   0.34017469
C   -1.25515111   1.58339794  -2.29161454
H   -1.86593955   1.72532308  -1.42461113
H   -1.77216671   1.94603061  -3.15538043
H   -0.33755856   2.12092708  -2.17335448
C   -0.95260317   0.08356908  -2.46648057
N   -0.72734247  -1.03312168  -2.59667627
