18
Energy:   -141.26241388
O   -1.45888587   0.93897414   0.39870160
H   -0.67025372   0.89666442   0.93953528
H   -2.16327344   1.13514901   1.01642760
O    0.70045757  -2.11941238   1.31756291
H    0.05681387  -2.02907426   0.61485838
H    0.69042824  -3.05181779   1.53378368
O    0.79258036   0.54013272   1.92792140
H    0.83355948  -0.40483099   1.78096513
H    1.53110999   0.72502608   2.50811126
O   -1.13944741  -1.61114361  -0.60070344
H   -1.37785279  -0.73487607  -0.29813127
H   -0.70219393  -1.46469635  -1.43950880
C    0.72946492   2.07690618  -1.97472112
H    1.04788993   2.07850480  -0.95320111
H   -0.19260355   2.61274042  -2.06172976
H    1.47442024   2.54811894  -2.58126806
C    0.52608109   0.62520788  -2.44674557
N    0.37465258  -0.45564749  -2.79818922
