18
Energy:   -141.20406996
O    0.21579838  -0.49542016  -2.14477474
H    0.85788337  -0.83653244  -2.76735094
H    0.50301614   0.40092403  -1.97069169
O   -1.64832880  -0.55739739  -0.13875927
H   -2.50206139  -0.56075518  -0.57161170
H   -1.01604711  -0.62033298  -0.85464391
O   -0.56344008   1.76468497   0.86502251
H   -1.05367399   0.99249671   0.58283841
H   -0.05364501   1.46366114   1.61716976
O    0.88378836   2.03770357  -1.40408276
H    0.94742258   2.96866434  -1.61737732
H    0.41635559   2.01420632  -0.56910591
C    0.62019569  -2.38236605   1.79119531
H    0.87847047  -3.08780977   2.55312934
H    1.25789469  -2.52334392   0.94363155
H   -0.39865979  -2.52958848   1.49937659
C    0.79705379  -0.95225886   2.33443987
N    0.92873269   0.11252094   2.73891014
