
                                 *****************
                                 * O   R   C   A *
                                 *****************

           --- An Ab Initio, DFT and Semiempirical electronic structure package ---

                  #######################################################
                  #                        -***-                        #
                  #          Department of theory and spectroscopy      #
                  #               Directorship: Frank Neese             #
                  #        Max Planck Institute fuer Kohlenforschung    #
                  #                Kaiser Wilhelm Platz 1               #
                  #                 D-45470 Muelheim/Ruhr               #
                  #                      Germany                        #
                  #                                                     #
                  #                  All rights reserved                #
                  #                        -***-                        #
                  #######################################################


                         Program Version 4.2.0 -  RELEASE  -


 With contributions from (in alphabetic order):
   Daniel Aravena         : Magnetic Suceptibility
   Michael Atanasov       : Ab Initio Ligand Field Theory (pilot matlab implementation)
   Alexander A. Auer      : GIAO ZORA, VPT2
   Ute Becker             : Parallelization
   Giovanni Bistoni       : ED, misc. LED, open-shell LED, HFLED
   Martin Brehm           : Molecular dynamics
   Dmytro Bykov           : SCF Hessian
   Vijay G. Chilkuri      : MRCI spin determinant printing, contributions to CSF-ICE
   Dipayan Datta          : RHF DLPNO-CCSD density
   Achintya Kumar Dutta   : EOM-CC, STEOM-CC
   Dmitry Ganyushin       : Spin-Orbit,Spin-Spin,Magnetic field MRCI
   Miquel Garcia          : C-PCM Hessian, Gaussian charge scheme
   Yang Guo               : DLPNO-NEVPT2, CIM, IAO-localization
   Andreas Hansen         : Spin unrestricted coupled pair/coupled cluster methods
   Benjamin Helmich-Paris : CASSCF linear response (MC-RPA)
   Lee Huntington         : MR-EOM, pCC
   Robert Izsak           : Overlap fitted RIJCOSX, COSX-SCS-MP3, EOM
   Christian Kollmar      : KDIIS, OOCD, Brueckner-CCSD(T), CCSD density
   Simone Kossmann        : Meta GGA functionals, TD-DFT gradient, OOMP2, MP2 Hessian
   Martin Krupicka        : AUTO-CI
   Lucas Lang             : DCDCAS
   Dagmar Lenk            : GEPOL surface, SMD
   Dimitrios Liakos       : Extrapolation schemes; Compound Job, initial MDCI parallelization
   Dimitrios Manganas     : Further ROCIS development; embedding schemes
   Dimitrios Pantazis     : SARC Basis sets
   Taras Petrenko         : DFT Hessian,TD-DFT gradient, ASA, ECA, R-Raman, ABS, FL, XAS/XES, NRVS
   Peter Pinski           : DLPNO-MP2, DLPNO-MP2 Gradient
   Christoph Reimann      : Effective Core Potentials
   Marius Retegan         : Local ZFS, SOC
   Christoph Riplinger    : Optimizer, TS searches, QM/MM, DLPNO-CCSD(T), (RO)-DLPNO pert. Triples
   Tobias Risthaus        : Range-separated hybrids, TD-DFT gradient, RPA, STAB
   Michael Roemelt        : Original ROCIS implementation
   Masaaki Saitow         : Open-shell DLPNO-CCSD energy and density
   Barbara Sandhoefer     : DKH picture change effects
   Avijit Sen             : IP-ROCIS
   Kantharuban Sivalingam : CASSCF convergence, NEVPT2, FIC-MRCI
   Bernardo de Souza      : ESD, SOC TD-DFT
   Georgi Stoychev        : AutoAux, RI-MP2 NMR
   Willem Van den Heuvel  : Paramagnetic NMR
   Boris Wezisla          : Elementary symmetry handling
   Frank Wennmohs         : Technical directorship


 We gratefully acknowledge several colleagues who have allowed us to
 interface, adapt or use parts of their codes:
   Stefan Grimme, W. Hujo, H. Kruse,             : VdW corrections, initial TS optimization,
                  C. Bannwarth                     DFT functionals, gCP, sTDA/sTD-DF
   Ed Valeev, F. Pavosevic, A. Kumar             : LibInt (2-el integral package), F12 methods
   Garnet Chan, S. Sharma, J. Yang, R. Olivares  : DMRG
   Ulf Ekstrom                                   : XCFun DFT Library
   Mihaly Kallay                                 : mrcc  (arbitrary order and MRCC methods)
   Andreas Klamt, Michael Diedenhofen            : otool_cosmo (COSMO solvation model)
   Jiri Pittner, Ondrej Demel                    : Mk-CCSD
   Frank Weinhold                                : gennbo (NPA and NBO analysis)
   Christopher J. Cramer and Donald G. Truhlar   : smd solvation model
   Lars Goerigk                                  : TD-DFT with DH, B97 family of functionals
   V. Asgeirsson, H. Jonsson                     : NEB implementation
   FAccTs GmbH                                   : IRC, NEB, NEB-TS, Multilevel, MM, QM/MM, CI optimization
   S Lehtola, MJT Oliveira, MAL Marques          : LibXC Library


 Your calculation uses the libint2 library for the computation of 2-el integrals
 For citations please refer to: http://libint.valeyev.net

 Your ORCA version has been built with support for libXC version: 4.2.3
 For citations please refer to: https://tddft.org/programs/libxc/

 This ORCA versions uses:
   CBLAS   interface :  Fast vector & matrix operations
   LAPACKE interface :  Fast linear algebra routines
   SCALAPACK package :  Parallel linear algebra routines


----- Orbital basis set information -----
Your calculation utilizes the basis: def2-TZVP
   F. Weigend and R. Ahlrichs, Phys. Chem. Chem. Phys. 7, 3297 (2005).

================================================================================
                                        WARNINGS
                       Please study these warnings very carefully!
================================================================================


WARNING: The frozen-core approximation for MP2-gradient calculations is turned on by default.

INFO   : the flag for use of LIBINT has been found!

================================================================================
                                       INPUT FILE
================================================================================
NAME = 12h2o.su.etal.mol0,3,4,5,6,7,8,10,11-orca.engrad-mp2.def2tzvp.frozencore.inp
|  1> # 12h2o.su.etal.mol0,3,4,5,6,7,8,10,11
|  2> ! MP2 def2-TZVP EnGrad TightSCF
|  3> 
|  4> %pal
|  5>     nprocs 6
|  6> end
|  7> 
|  8> %maxcore 8000
|  9> 
| 10> %scf
| 11>     ConvForced true
| 12> end
| 13> 
| 14> *xyz 0 1
| 15> O   1.794470000   0.923410000   2.768350000
| 16> H   2.338250000   1.359750000   3.430940000
| 17> H   0.879480000   1.303000000   2.865760000
| 18> O  -1.752130000  -0.741530000  -2.896280000
| 19> H  -2.036450000  -0.920500000  -1.984040000
| 20> H  -0.921210000  -1.242140000  -2.984230000
| 21> O  -0.885520000   1.737840000   0.052730000
| 22> H  -1.032320000   2.090180000  -0.841890000
| 23> H  -1.284090000   0.839590000   0.017130000
| 24> O   0.885520000  -1.737840000   0.052730000
| 25> H   1.284090000  -0.839590000   0.017130000
| 26> H   1.032320000  -2.090180000  -0.841890000
| 27> O   1.737840000   0.885520000  -0.052730000
| 28> H   2.090180000   1.032320000   0.841890000
| 29> H   0.839590000   1.284090000  -0.017130000
| 30> O  -1.737840000  -0.885520000  -0.052730000
| 31> H  -2.090180000  -1.032320000   0.841890000
| 32> H  -0.839590000  -1.284090000  -0.017130000
| 33> O   1.752130000   0.741530000  -2.896280000
| 34> H   2.036450000   0.920500000  -1.984040000
| 35> H   0.921210000   1.242140000  -2.984230000
| 36> O  -0.923410000   1.794470000  -2.768350000
| 37> H  -1.359750000   2.338250000  -3.430940000
| 38> H  -1.303000000   0.879480000  -2.865760000
| 39> O  -0.741530000   1.752130000   2.896280000
| 40> H  -0.920500000   2.036450000   1.984040000
| 41> H  -1.242140000   0.921210000   2.984230000
| 42> *
| 43> 
| 44>                          ****END OF INPUT****
================================================================================

                     *******************************
                     * Energy+Gradient Calculation *
                     *******************************

---------------------------------
CARTESIAN COORDINATES (ANGSTROEM)
---------------------------------
  O      1.794470    0.923410    2.768350
  H      2.338250    1.359750    3.430940
  H      0.879480    1.303000    2.865760
  O     -1.752130   -0.741530   -2.896280
  H     -2.036450   -0.920500   -1.984040
  H     -0.921210   -1.242140   -2.984230
  O     -0.885520    1.737840    0.052730
  H     -1.032320    2.090180   -0.841890
  H     -1.284090    0.839590    0.017130
  O      0.885520   -1.737840    0.052730
  H      1.284090   -0.839590    0.017130
  H      1.032320   -2.090180   -0.841890
  O      1.737840    0.885520   -0.052730
  H      2.090180    1.032320    0.841890
  H      0.839590    1.284090   -0.017130
  O     -1.737840   -0.885520   -0.052730
  H     -2.090180   -1.032320    0.841890
  H     -0.839590   -1.284090   -0.017130
  O      1.752130    0.741530   -2.896280
  H      2.036450    0.920500   -1.984040
  H      0.921210    1.242140   -2.984230
  O     -0.923410    1.794470   -2.768350
  H     -1.359750    2.338250   -3.430940
  H     -1.303000    0.879480   -2.865760
  O     -0.741530    1.752130    2.896280
  H     -0.920500    2.036450    1.984040
  H     -1.242140    0.921210    2.984230

----------------------------
CARTESIAN COORDINATES (A.U.)
----------------------------
  NO LB      ZA    FRAG     MASS         X           Y           Z
   0 O     8.0000    0    15.999    3.391057    1.744992    5.231423
   1 H     1.0000    0     1.008    4.418652    2.569555    6.483537
   2 H     1.0000    0     1.008    1.661976    2.462313    5.415502
   3 O     8.0000    0    15.999   -3.311046   -1.401289   -5.473176
   4 H     1.0000    0     1.008   -3.848333   -1.739493   -3.749292
   5 H     1.0000    0     1.008   -1.740835   -2.347304   -5.639377
   6 O     8.0000    0    15.999   -1.673390    3.284042    0.099645
   7 H     1.0000    0     1.008   -1.950802    3.949868   -1.590942
   8 H     1.0000    0     1.008   -2.426578    1.586595    0.032371
   9 O     8.0000    0    15.999    1.673390   -3.284042    0.099645
  10 H     1.0000    0     1.008    2.426578   -1.586595    0.032371
  11 H     1.0000    0     1.008    1.950802   -3.949868   -1.590942
  12 O     8.0000    0    15.999    3.284042    1.673390   -0.099645
  13 H     1.0000    0     1.008    3.949868    1.950802    1.590942
  14 H     1.0000    0     1.008    1.586595    2.426578   -0.032371
  15 O     8.0000    0    15.999   -3.284042   -1.673390   -0.099645
  16 H     1.0000    0     1.008   -3.949868   -1.950802    1.590942
  17 H     1.0000    0     1.008   -1.586595   -2.426578   -0.032371
  18 O     8.0000    0    15.999    3.311046    1.401289   -5.473176
  19 H     1.0000    0     1.008    3.848333    1.739493   -3.749292
  20 H     1.0000    0     1.008    1.740835    2.347304   -5.639377
  21 O     8.0000    0    15.999   -1.744992    3.391057   -5.231423
  22 H     1.0000    0     1.008   -2.569555    4.418652   -6.483537
  23 H     1.0000    0     1.008   -2.462313    1.661976   -5.415502
  24 O     8.0000    0    15.999   -1.401289    3.311046    5.473176
  25 H     1.0000    0     1.008   -1.739493    3.848333    3.749292
  26 H     1.0000    0     1.008   -2.347304    1.740835    5.639377

--------------------------------
INTERNAL COORDINATES (ANGSTROEM)
--------------------------------
 O      0   0   0     0.000000000000     0.00000000     0.00000000
 H      1   0   0     0.961828878803     0.00000000     0.00000000
 H      1   2   0     0.995381322057   106.21731035     0.00000000
 O      3   1   2     6.656318732948    99.29837960   164.71437028
 H      4   3   1     0.972136791249    50.19793542   121.30203245
 H      4   3   1     0.974050112161    84.18963930     7.83137870
 O      3   1   2     3.349245975813   116.85538783   143.82107740
 H      7   3   1     0.972645187106   154.03893681   304.15813038
 H      7   3   1     0.983350632989    97.20424340    87.67157074
 O      9   7   3     3.369216573181   115.93827062   304.27214190
 H     10   9   7     0.983350632989    64.01297461   355.38487433
 H     10   9   7     0.972645187106   111.38238039   260.12892927
 O     11  10   9     1.785153773264   170.81379649   358.44265882
 H     13  11  10     0.972645187106   101.65007623   109.44492584
 H     13  11  10     0.983350632989    99.09581498     3.33484705
 O      9   7   3     1.785153773264   170.81379649   301.36914736
 H     16   9   7     0.972645187106   101.65007623   109.44492584
 H     16   9   7     0.983350632989    99.09581498     3.33484705
 O     13  11  10     2.847229166523    89.51229470   269.85728871
 H     19  13  11     0.972136791249    19.08819947   230.61896091
 H     19  13  11     0.974050112161    93.43428486   106.52268102
 O     21  19  13     1.937600461318   161.54375213   306.34627465
 H     22  21  19     0.961828878803   121.08403650   202.75419110
 H     22  21  19     0.995381322057    95.17003195   315.21089530
 O      3   1   2     1.682356278379   171.61043709   195.73896161
 H     25   3   1     0.972136791249   103.79460456   289.35412162
 H     25   3   1     0.974050112161   105.61118924    38.30604821

---------------------------
INTERNAL COORDINATES (A.U.)
---------------------------
 O      0   0   0     0.000000000000     0.00000000     0.00000000
 H      1   0   0     1.817593168635     0.00000000     0.00000000
 H      1   2   0     1.880998097508   106.21731035     0.00000000
 O      3   1   2    12.578619465362    99.29837960   164.71437028
 H      4   3   1     1.837072300170    50.19793542   121.30203245
 H      4   3   1     1.840687952699    84.18963930     7.83137870
 O      3   1   2     6.329157649425   116.85538783   143.82107740
 H      7   3   1     1.838033029106   154.03893681   304.15813038
 H      7   3   1     1.858263389967    97.20424340    87.67157074
 O      9   7   3     6.366896609181   115.93827062   304.27214190
 H     10   9   7     1.858263389967    64.01297461   355.38487433
 H     10   9   7     1.838033029106   111.38238039   260.12892927
 O     11  10   9     3.373451738406   170.81379649   358.44265882
 H     13  11  10     1.838033029106   101.65007623   109.44492584
 H     13  11  10     1.858263389967    99.09581498     3.33484705
 O      9   7   3     3.373451738406   170.81379649   301.36914736
 H     16   9   7     1.838033029106   101.65007623   109.44492584
 H     16   9   7     1.858263389967    99.09581498     3.33484705
 O     13  11  10     5.380483365242    89.51229470   269.85728871
 H     19  13  11     1.837072300170    19.08819947   230.61896091
 H     19  13  11     1.840687952699    93.43428486   106.52268102
 O     21  19  13     3.661534228851   161.54375213   306.34627465
 H     22  21  19     1.817593168635   121.08403650   202.75419110
 H     22  21  19     1.880998097508    95.17003195   315.21089530
 O      3   1   2     3.179192625819   171.61043709   195.73896161
 H     25   3   1     1.837072300170   103.79460456   289.35412162
 H     25   3   1     1.840687952699   105.61118924    38.30604821

---------------------
BASIS SET INFORMATION
---------------------
There are 2 groups of distinct atoms

 Group   1 Type O   : 11s6p2d1f contracted to 5s3p2d1f pattern {62111/411/11/1}
 Group   2 Type H   : 5s1p contracted to 3s1p pattern {311/1}

Atom   0O    basis set group =>   1
Atom   1H    basis set group =>   2
Atom   2H    basis set group =>   2
Atom   3O    basis set group =>   1
Atom   4H    basis set group =>   2
Atom   5H    basis set group =>   2
Atom   6O    basis set group =>   1
Atom   7H    basis set group =>   2
Atom   8H    basis set group =>   2
Atom   9O    basis set group =>   1
Atom  10H    basis set group =>   2
Atom  11H    basis set group =>   2
Atom  12O    basis set group =>   1
Atom  13H    basis set group =>   2
Atom  14H    basis set group =>   2
Atom  15O    basis set group =>   1
Atom  16H    basis set group =>   2
Atom  17H    basis set group =>   2
Atom  18O    basis set group =>   1
Atom  19H    basis set group =>   2
Atom  20H    basis set group =>   2
Atom  21O    basis set group =>   1
Atom  22H    basis set group =>   2
Atom  23H    basis set group =>   2
Atom  24O    basis set group =>   1
Atom  25H    basis set group =>   2
Atom  26H    basis set group =>   2


           ************************************************************
           *        Program running with 6 parallel MPI-processes     *
           *              working on a common directory               *
           ************************************************************
------------------------------------------------------------------------------
                           ORCA GTO INTEGRAL CALCULATION
------------------------------------------------------------------------------

                         BASIS SET STATISTICS AND STARTUP INFO

 # of primitive gaussian shells          ...  288
 # of primitive gaussian functions       ...  558
 # of contracted shells                  ...  171
 # of contracted basis functions         ...  387
 Highest angular momentum                ...    3
 Maximum contraction depth               ...    6
 Integral package used                   ... LIBINT
 Integral threshhold            Thresh   ...  2.500e-11
 Primitive cut-off              TCut     ...  2.500e-12


------------------------------ INTEGRAL EVALUATION ----------------------------


 * One electron integrals 
 Pre-screening matrix                    ... done
 Shell pair data                         ... done (   0.003 sec)



           ************************************************************
           *        Program running with 6 parallel MPI-processes     *
           *              working on a common directory               *
           ************************************************************
-------------------------------------------------------------------------------
                                 ORCA SCF
-------------------------------------------------------------------------------

------------
SCF SETTINGS
------------
Hamiltonian:
 Ab initio Hamiltonian  Method          .... Hartree-Fock(GTOs)


General Settings:
 Integral files         IntName         .... 12h2o.su.etal.mol0,3,4,5,6,7,8,10,11-orca.engrad-mp2.def2tzvp.frozencore
 Hartree-Fock type      HFTyp           .... RHF
 Total Charge           Charge          ....    0
 Multiplicity           Mult            ....    1
 Number of Electrons    NEL             ....   90
 Basis Dimension        Dim             ....  387
 Nuclear Repulsion      ENuc            ....    594.6926829916 Eh

Convergence Acceleration:
 DIIS                   CNVDIIS         .... on
   Start iteration      DIISMaxIt       ....    12
   Startup error        DIISStart       ....  0.200000
   # of expansion vecs  DIISMaxEq       ....     5
   Bias factor          DIISBfac        ....   1.050
   Max. coefficient     DIISMaxC        ....  10.000
 Newton-Raphson         CNVNR           .... off
 SOSCF                  CNVSOSCF        .... on
   Start iteration      SOSCFMaxIt      ....   150
   Startup grad/error   SOSCFStart      ....  0.003300
 Level Shifting         CNVShift        .... on
   Level shift para.    LevelShift      ....    0.2500
   Turn off err/grad.   ShiftErr        ....    0.0010
 Zerner damping         CNVZerner       .... off
 Static damping         CNVDamp         .... on
   Fraction old density DampFac         ....    0.7000
   Max. Damping (<1)    DampMax         ....    0.9800
   Min. Damping (>=0)   DampMin         ....    0.0000
   Turn off err/grad.   DampErr         ....    0.1000
 Fernandez-Rico         CNVRico         .... off

SCF Procedure:
 Maximum # iterations   MaxIter         ....   125
 SCF integral mode      SCFMode         .... Direct
   Integral package                     .... LIBINT
 Reset frequency        DirectResetFreq ....    20
 Integral Threshold     Thresh          ....  2.500e-11 Eh
 Primitive CutOff       TCut            ....  2.500e-12 Eh

Convergence Tolerance:
 Convergence Check Mode ConvCheckMode   .... Total+1el-Energy
 Convergence forced     ConvForced      .... 1
 Energy Change          TolE            ....  1.000e-08 Eh
 1-El. energy change                    ....  1.000e-05 Eh
 Orbital Gradient       TolG            ....  1.000e-05
 Orbital Rotation angle TolX            ....  1.000e-05
 DIIS Error             TolErr          ....  5.000e-07


Diagonalization of the overlap matrix:
Smallest eigenvalue                        ... 2.720e-03
Time for diagonalization                   ...    0.024 sec
Threshold for overlap eigenvalues          ... 1.000e-08
Number of eigenvalues below threshold      ... 0
Time for construction of square roots      ...    0.010 sec
Total time needed                          ...    0.034 sec

-------------------
DFT GRID GENERATION
-------------------

General Integration Accuracy     IntAcc      ...  4.340
Radial Grid Type                 RadialGrid  ... Gauss-Chebyshev
Angular Grid (max. acc.)         AngularGrid ... Lebedev-110
Angular grid pruning method      GridPruning ... 3 (G Style)
Weight generation scheme         WeightScheme... Becke
Basis function cutoff            BFCut       ...    1.0000e-11
Integration weight cutoff        WCut        ...    1.0000e-14
Grids for H and He will be reduced by one unit

# of grid points (after initial pruning)     ...  29736 (   0.0 sec)
# of grid points (after weights+screening)   ...  27359 (   0.0 sec)
nearest neighbour list constructed           ...    0.0 sec
Grid point re-assignment to atoms done       ...    0.0 sec
Grid point division into batches done        ...    0.0 sec
Reduced shell lists constructed in    0.1 sec

Total number of grid points                  ...    27359
Total number of batches                      ...      440
Average number of points per batch           ...       62
Average number of grid points per atom       ...     1013
Average number of shells per batch           ...    73.99 (43.27%)
Average number of basis functions per batch  ...   145.91 (37.70%)
Average number of large shells per batch     ...    48.08 (64.98%)
Average number of large basis fcns per batch ...    93.49 (64.08%)
Maximum spatial batch extension              ...  15.87, 20.63, 14.40 au
Average spatial batch extension              ...   0.59,  0.72,  0.58 au

Time for grid setup =    0.112 sec

------------------------------
INITIAL GUESS: MODEL POTENTIAL
------------------------------
Loading Hartree-Fock densities                     ... done
Calculating cut-offs                               ... done
Setting up the integral package                    ... done
Initializing the effective Hamiltonian             ... done
Starting the Coulomb interaction                   ... done (   0.1 sec)
Reading the grid                                   ... done
Mapping shells                                     ... done
Starting the XC term evaluation                    ... done (   0.1 sec)
Transforming the Hamiltonian                       ... done (   0.0 sec)
Diagonalizing the Hamiltonian                      ... done (   0.0 sec)
Back transforming the eigenvectors                 ... done (   0.0 sec)
Now organizing SCF variables                       ... done
                      ------------------
                      INITIAL GUESS DONE (   0.3 sec)
                      ------------------
--------------
SCF ITERATIONS
--------------
ITER       Energy         Delta-E        Max-DP      RMS-DP      [F,P]     Damp
               ***  Starting incremental Fock matrix formation  ***
  0   -683.8511356104   0.000000000000 0.04390553  0.00077460  0.3393615 0.7000
  1   -684.1396665522  -0.288530941752 0.02917143  0.00053880  0.2163152 0.7000
                               ***Turning on DIIS***
  2   -684.2939227378  -0.154256185680 0.01619186  0.00030469  0.1633978 0.7000
  3   -685.7363612992  -1.442438561390 0.00748126  0.00014309  0.1217244 0.7000
  4   -685.4461776024   0.290183696882 0.01653040  0.00033173  0.0861142 0.0000
  5   -684.6440976359   0.802079966501 0.00221350  0.00005249  0.0055321 0.0000
                      *** Initiating the SOSCF procedure ***
                           *** Shutting down DIIS ***
                      *** Re-Reading the Fockian *** 
                      *** Removing any level shift *** 
ITER      Energy       Delta-E        Grad      Rot      Max-DP    RMS-DP
  6   -684.60420182   0.0398958156  0.000784  0.000784  0.001458  0.000033
               *** Restarting incremental Fock matrix formation ***
  7   -684.59334560   0.0108562226  0.000251  0.000374  0.000679  0.000014
  8   -684.59335830  -0.0000127008  0.000119  0.000320  0.000639  0.000012
  9   -684.59336146  -0.0000031574  0.000054  0.000035  0.000092  0.000002
 10   -684.59336171  -0.0000002537  0.000011  0.000008  0.000020  0.000000
                  ***Gradient check signals convergence***
              ***Rediagonalizing the Fockian in SOSCF/NRSCF***

               *****************************************************
               *                     SUCCESS                       *
               *           SCF CONVERGED AFTER  11 CYCLES          *
               *****************************************************


----------------
TOTAL SCF ENERGY
----------------

Total Energy       :         -684.59336172 Eh          -18628.73244 eV

Components:
Nuclear Repulsion  :          594.69268299 Eh           16182.41060 eV
Electronic Energy  :        -1279.28604471 Eh          -34811.14304 eV
One Electron Energy:        -2130.98722835 Eh          -57987.11049 eV
Two Electron Energy:          851.70118364 Eh           23175.96745 eV

Virial components:
Potential Energy   :        -1368.40287940 Eh          -37236.13540 eV
Kinetic Energy     :          683.80951768 Eh           18607.40296 eV
Virial Ratio       :            2.00114629


---------------
SCF CONVERGENCE
---------------

  Last Energy change         ...   -8.5756e-09  Tolerance :   1.0000e-08
  Last MAX-Density change    ...    6.6013e-06  Tolerance :   1.0000e-07
  Last RMS-Density change    ...    1.1990e-07  Tolerance :   5.0000e-09
  Last Orbital Gradient      ...    2.4606e-06  Tolerance :   1.0000e-05
  Last Orbital Rotation      ...    3.0084e-06  Tolerance :   1.0000e-05

             **** THE GBW FILE WAS UPDATED (12h2o.su.etal.mol0,3,4,5,6,7,8,10,11-orca.engrad-mp2.def2tzvp.frozencore.gbw) ****
             **** DENSITY FILE WAS UPDATED (12h2o.su.etal.mol0,3,4,5,6,7,8,10,11-orca.engrad-mp2.def2tzvp.frozencore.scfp) ****
             **** ENERGY FILE WAS UPDATED (12h2o.su.etal.mol0,3,4,5,6,7,8,10,11-orca.engrad-mp2.def2tzvp.frozencore.en.tmp) ****
             **** THE GBW FILE WAS UPDATED (12h2o.su.etal.mol0,3,4,5,6,7,8,10,11-orca.engrad-mp2.def2tzvp.frozencore.gbw) ****
             **** DENSITY FILE WAS UPDATED (12h2o.su.etal.mol0,3,4,5,6,7,8,10,11-orca.engrad-mp2.def2tzvp.frozencore.scfp) ****
----------------
ORBITAL ENERGIES
----------------

  NO   OCC          E(Eh)            E(eV) 
   0   2.0000     -20.603778      -560.6573 
   1   2.0000     -20.590725      -560.3021 
   2   2.0000     -20.586155      -560.1777 
   3   2.0000     -20.572475      -559.8055 
   4   2.0000     -20.571025      -559.7661 
   5   2.0000     -20.568139      -559.6875 
   6   2.0000     -20.547838      -559.1351 
   7   2.0000     -20.545016      -559.0583 
   8   2.0000     -20.509706      -558.0975 
   9   2.0000      -1.397489       -38.0276 
  10   2.0000      -1.380095       -37.5543 
  11   2.0000      -1.377617       -37.4869 
  12   2.0000      -1.364542       -37.1311 
  13   2.0000      -1.355137       -36.8752 
  14   2.0000      -1.351697       -36.7816 
  15   2.0000      -1.336554       -36.3695 
  16   2.0000      -1.324898       -36.0523 
  17   2.0000      -1.294607       -35.2281 
  18   2.0000      -0.758999       -20.6534 
  19   2.0000      -0.743577       -20.2338 
  20   2.0000      -0.739176       -20.1140 
  21   2.0000      -0.736493       -20.0410 
  22   2.0000      -0.730008       -19.8645 
  23   2.0000      -0.718287       -19.5456 
  24   2.0000      -0.714161       -19.4333 
  25   2.0000      -0.710222       -19.3261 
  26   2.0000      -0.672532       -18.3005 
  27   2.0000      -0.658557       -17.9202 
  28   2.0000      -0.631146       -17.1743 
  29   2.0000      -0.621072       -16.9002 
  30   2.0000      -0.606785       -16.5115 
  31   2.0000      -0.606344       -16.4995 
  32   2.0000      -0.588805       -16.0222 
  33   2.0000      -0.583046       -15.8655 
  34   2.0000      -0.567114       -15.4320 
  35   2.0000      -0.547247       -14.8913 
  36   2.0000      -0.536978       -14.6119 
  37   2.0000      -0.528739       -14.3877 
  38   2.0000      -0.522185       -14.2094 
  39   2.0000      -0.516919       -14.0661 
  40   2.0000      -0.515200       -14.0193 
  41   2.0000      -0.512089       -13.9346 
  42   2.0000      -0.496507       -13.5106 
  43   2.0000      -0.493197       -13.4206 
  44   2.0000      -0.459771       -12.5110 
  45   0.0000       0.082616         2.2481 
  46   0.0000       0.115253         3.1362 
  47   0.0000       0.140925         3.8348 
  48   0.0000       0.148947         4.0530 
  49   0.0000       0.185836         5.0569 
  50   0.0000       0.196126         5.3369 
  51   0.0000       0.202963         5.5229 
  52   0.0000       0.231996         6.3129 
  53   0.0000       0.250224         6.8090 
  54   0.0000       0.270549         7.3620 
  55   0.0000       0.282256         7.6806 
  56   0.0000       0.292987         7.9726 
  57   0.0000       0.308983         8.4079 
  58   0.0000       0.325179         8.8486 
  59   0.0000       0.334099         9.0913 
  60   0.0000       0.338962         9.2236 
  61   0.0000       0.340362         9.2617 
  62   0.0000       0.354956         9.6588 
  63   0.0000       0.402043        10.9401 
  64   0.0000       0.447511        12.1774 
  65   0.0000       0.469451        12.7744 
  66   0.0000       0.486982        13.2514 
  67   0.0000       0.498129        13.5548 
  68   0.0000       0.502327        13.6690 
  69   0.0000       0.516215        14.0469 
  70   0.0000       0.517051        14.0697 
  71   0.0000       0.524805        14.2807 
  72   0.0000       0.535897        14.5825 
  73   0.0000       0.542526        14.7629 
  74   0.0000       0.554450        15.0874 
  75   0.0000       0.557449        15.1690 
  76   0.0000       0.563280        15.3276 
  77   0.0000       0.581684        15.8284 
  78   0.0000       0.597262        16.2523 
  79   0.0000       0.601258        16.3611 
  80   0.0000       0.618707        16.8359 
  81   0.0000       0.628088        17.0911 
  82   0.0000       0.636819        17.3287 
  83   0.0000       0.646801        17.6003 
  84   0.0000       0.655662        17.8415 
  85   0.0000       0.678769        18.4702 
  86   0.0000       0.688945        18.7471 
  87   0.0000       0.705966        19.2103 
  88   0.0000       0.712507        19.3883 
  89   0.0000       0.725789        19.7497 
  90   0.0000       0.744277        20.2528 
  91   0.0000       0.753847        20.5132 
  92   0.0000       0.764627        20.8065 
  93   0.0000       0.770620        20.9696 
  94   0.0000       0.780638        21.2422 
  95   0.0000       0.785104        21.3638 
  96   0.0000       0.793386        21.5891 
  97   0.0000       0.803183        21.8557 
  98   0.0000       0.814736        22.1701 
  99   0.0000       0.829384        22.5687 
 100   0.0000       0.841401        22.8957 
 101   0.0000       0.853865        23.2349 
 102   0.0000       0.859348        23.3841 
 103   0.0000       0.898417        24.4472 
 104   0.0000       0.904927        24.6243 
 105   0.0000       0.909358        24.7449 
 106   0.0000       0.938389        25.5349 
 107   0.0000       0.942460        25.6456 
 108   0.0000       0.994068        27.0500 
 109   0.0000       1.010371        27.4936 
 110   0.0000       1.034401        28.1475 
 111   0.0000       1.049497        28.5583 
 112   0.0000       1.068866        29.0853 
 113   0.0000       1.088643        29.6235 
 114   0.0000       1.121242        30.5105 
 115   0.0000       1.175404        31.9844 
 116   0.0000       1.190769        32.4025 
 117   0.0000       1.330755        36.2117 
 118   0.0000       1.343694        36.5638 
 119   0.0000       1.374175        37.3932 
 120   0.0000       1.390471        37.8366 
 121   0.0000       1.395832        37.9825 
 122   0.0000       1.402435        38.1622 
 123   0.0000       1.416421        38.5428 
 124   0.0000       1.422783        38.7159 
 125   0.0000       1.432636        38.9840 
 126   0.0000       1.435837        39.0711 
 127   0.0000       1.447350        39.3844 
 128   0.0000       1.456952        39.6457 
 129   0.0000       1.491069        40.5740 
 130   0.0000       1.507187        41.0126 
 131   0.0000       1.511295        41.1244 
 132   0.0000       1.526041        41.5257 
 133   0.0000       1.545543        42.0564 
 134   0.0000       1.554916        42.3114 
 135   0.0000       1.559528        42.4369 
 136   0.0000       1.576952        42.9111 
 137   0.0000       1.591106        43.2962 
 138   0.0000       1.596744        43.4496 
 139   0.0000       1.606278        43.7090 
 140   0.0000       1.616337        43.9828 
 141   0.0000       1.618993        44.0550 
 142   0.0000       1.642632        44.6983 
 143   0.0000       1.673784        45.5460 
 144   0.0000       1.808184        49.2032 
 145   0.0000       1.813395        49.3450 
 146   0.0000       1.817535        49.4576 
 147   0.0000       1.842942        50.1490 
 148   0.0000       1.865833        50.7719 
 149   0.0000       1.881299        51.1928 
 150   0.0000       1.903041        51.7844 
 151   0.0000       1.917429        52.1759 
 152   0.0000       1.930403        52.5289 
 153   0.0000       1.948346        53.0172 
 154   0.0000       1.961636        53.3788 
 155   0.0000       1.964048        53.4445 
 156   0.0000       1.978135        53.8278 
 157   0.0000       2.000525        54.4370 
 158   0.0000       2.012911        54.7741 
 159   0.0000       2.027521        55.1717 
 160   0.0000       2.048132        55.7325 
 161   0.0000       2.048354        55.7385 
 162   0.0000       2.086844        56.7859 
 163   0.0000       2.114904        57.5495 
 164   0.0000       2.120605        57.7046 
 165   0.0000       2.126251        57.8582 
 166   0.0000       2.157473        58.7078 
 167   0.0000       2.164531        58.8999 
 168   0.0000       2.169502        59.0351 
 169   0.0000       2.185206        59.4625 
 170   0.0000       2.223096        60.4935 
 171   0.0000       2.242324        61.0167 
 172   0.0000       2.251780        61.2740 
 173   0.0000       2.276212        61.9389 
 174   0.0000       2.280517        62.0560 
 175   0.0000       2.298235        62.5382 
 176   0.0000       2.307300        62.7848 
 177   0.0000       2.321898        63.1820 
 178   0.0000       2.338374        63.6304 
 179   0.0000       2.353150        64.0325 
 180   0.0000       2.363115        64.3036 
 181   0.0000       2.369840        64.4866 
 182   0.0000       2.378905        64.7333 
 183   0.0000       2.397160        65.2300 
 184   0.0000       2.402177        65.3665 
 185   0.0000       2.415880        65.7394 
 186   0.0000       2.431910        66.1756 
 187   0.0000       2.472249        67.2733 
 188   0.0000       2.488660        67.7199 
 189   0.0000       2.496351        67.9292 
 190   0.0000       2.507325        68.2278 
 191   0.0000       2.528735        68.8104 
 192   0.0000       2.544724        69.2455 
 193   0.0000       2.549808        69.3838 
 194   0.0000       2.559079        69.6361 
 195   0.0000       2.574714        70.0615 
 196   0.0000       2.588824        70.4455 
 197   0.0000       2.596324        70.6496 
 198   0.0000       2.608615        70.9840 
 199   0.0000       2.615137        71.1615 
 200   0.0000       2.627602        71.5007 
 201   0.0000       2.638784        71.8050 
 202   0.0000       2.650018        72.1107 
 203   0.0000       2.657644        72.3182 
 204   0.0000       2.667719        72.5923 
 205   0.0000       2.674714        72.7827 
 206   0.0000       2.687867        73.1406 
 207   0.0000       2.705389        73.6174 
 208   0.0000       2.711716        73.7895 
 209   0.0000       2.721840        74.0650 
 210   0.0000       2.737925        74.5027 
 211   0.0000       2.766305        75.2750 
 212   0.0000       2.786742        75.8311 
 213   0.0000       2.796686        76.1017 
 214   0.0000       2.822551        76.8055 
 215   0.0000       2.856315        77.7243 
 216   0.0000       2.894231        78.7560 
 217   0.0000       2.903032        78.9955 
 218   0.0000       2.937536        79.9344 
 219   0.0000       2.947643        80.2094 
 220   0.0000       2.959070        80.5204 
 221   0.0000       2.974743        80.9469 
 222   0.0000       2.983745        81.1918 
 223   0.0000       2.998647        81.5973 
 224   0.0000       3.016650        82.0872 
 225   0.0000       3.028325        82.4049 
 226   0.0000       3.038570        82.6837 
 227   0.0000       3.046310        82.8943 
 228   0.0000       3.052618        83.0660 
 229   0.0000       3.083759        83.9134 
 230   0.0000       3.096416        84.2578 
 231   0.0000       3.110729        84.6473 
 232   0.0000       3.128319        85.1259 
 233   0.0000       3.139853        85.4397 
 234   0.0000       3.180880        86.5562 
 235   0.0000       3.202586        87.1468 
 236   0.0000       3.226242        87.7905 
 237   0.0000       3.233744        87.9946 
 238   0.0000       3.236619        88.0729 
 239   0.0000       3.253365        88.5286 
 240   0.0000       3.278825        89.2214 
 241   0.0000       3.310309        90.0781 
 242   0.0000       3.325961        90.5040 
 243   0.0000       3.350790        91.1796 
 244   0.0000       3.361767        91.4783 
 245   0.0000       3.373194        91.7893 
 246   0.0000       3.414335        92.9088 
 247   0.0000       3.462388        94.2164 
 248   0.0000       3.473545        94.5200 
 249   0.0000       3.510188        95.5171 
 250   0.0000       3.528139        96.0055 
 251   0.0000       3.558532        96.8326 
 252   0.0000       4.035138       109.8017 
 253   0.0000       4.045323       110.0788 
 254   0.0000       4.057195       110.4019 
 255   0.0000       4.098744       111.5325 
 256   0.0000       4.115312       111.9833 
 257   0.0000       4.124266       112.2270 
 258   0.0000       4.125961       112.2731 
 259   0.0000       4.172771       113.5469 
 260   0.0000       4.182849       113.8211 
 261   0.0000       4.289582       116.7255 
 262   0.0000       4.295254       116.8798 
 263   0.0000       4.309313       117.2624 
 264   0.0000       4.331680       117.8710 
 265   0.0000       4.354695       118.4973 
 266   0.0000       4.364880       118.7744 
 267   0.0000       4.371561       118.9562 
 268   0.0000       4.387775       119.3974 
 269   0.0000       4.408209       119.9535 
 270   0.0000       5.497704       149.6001 
 271   0.0000       5.514218       150.0495 
 272   0.0000       5.519063       150.1813 
 273   0.0000       5.526849       150.3932 
 274   0.0000       5.532702       150.5525 
 275   0.0000       5.534992       150.6148 
 276   0.0000       5.551193       151.0557 
 277   0.0000       5.563783       151.3982 
 278   0.0000       5.593715       152.2127 
 279   0.0000       5.625974       153.0905 
 280   0.0000       5.629215       153.1787 
 281   0.0000       5.646406       153.6465 
 282   0.0000       5.659450       154.0015 
 283   0.0000       5.662529       154.0852 
 284   0.0000       5.666035       154.1807 
 285   0.0000       5.669721       154.2809 
 286   0.0000       5.689771       154.8265 
 287   0.0000       5.701571       155.1476 
 288   0.0000       5.778992       157.2544 
 289   0.0000       5.790083       157.5562 
 290   0.0000       5.797667       157.7625 
 291   0.0000       5.801993       157.8803 
 292   0.0000       5.808901       158.0682 
 293   0.0000       5.812111       158.1556 
 294   0.0000       5.817928       158.3139 
 295   0.0000       5.820866       158.3938 
 296   0.0000       5.831842       158.6925 
 297   0.0000       5.838852       158.8832 
 298   0.0000       5.843082       158.9983 
 299   0.0000       5.847246       159.1117 
 300   0.0000       5.850793       159.2082 
 301   0.0000       5.855609       159.3392 
 302   0.0000       5.863349       159.5498 
 303   0.0000       5.869334       159.7127 
 304   0.0000       5.873355       159.8221 
 305   0.0000       5.878353       159.9581 
 306   0.0000       5.884019       160.1123 
 307   0.0000       5.888876       160.2445 
 308   0.0000       5.891277       160.3098 
 309   0.0000       5.894286       160.3917 
 310   0.0000       5.911519       160.8606 
 311   0.0000       5.920828       161.1139 
 312   0.0000       5.933159       161.4495 
 313   0.0000       5.943947       161.7430 
 314   0.0000       5.955991       162.0707 
 315   0.0000       6.436151       175.1366 
 316   0.0000       6.451933       175.5660 
 317   0.0000       6.457929       175.7292 
 318   0.0000       6.467177       175.9808 
 319   0.0000       6.472732       176.1320 
 320   0.0000       6.477125       176.2515 
 321   0.0000       6.483444       176.4235 
 322   0.0000       6.493542       176.6983 
 323   0.0000       6.541991       178.0166 
 324   0.0000       6.627076       180.3319 
 325   0.0000       6.676055       181.6647 
 326   0.0000       6.688078       181.9918 
 327   0.0000       6.707458       182.5192 
 328   0.0000       6.719474       182.8462 
 329   0.0000       6.737748       183.3434 
 330   0.0000       6.744968       183.5399 
 331   0.0000       6.754776       183.8068 
 332   0.0000       6.777929       184.4368 
 333   0.0000       6.827252       185.7790 
 334   0.0000       6.837452       186.0565 
 335   0.0000       6.841772       186.1741 
 336   0.0000       6.863738       186.7718 
 337   0.0000       6.872990       187.0236 
 338   0.0000       6.879190       187.1923 
 339   0.0000       6.886461       187.3901 
 340   0.0000       6.888054       187.4335 
 341   0.0000       6.894077       187.5974 
 342   0.0000       6.898124       187.7075 
 343   0.0000       6.903566       187.8556 
 344   0.0000       6.905764       187.9154 
 345   0.0000       6.928780       188.5417 
 346   0.0000       6.935251       188.7178 
 347   0.0000       6.939233       188.8261 
 348   0.0000       6.948225       189.0708 
 349   0.0000       6.952815       189.1957 
 350   0.0000       6.964338       189.5093 
 351   0.0000       6.983399       190.0280 
 352   0.0000       6.996193       190.3761 
 353   0.0000       7.005604       190.6322 
 354   0.0000       7.014811       190.8827 
 355   0.0000       7.033406       191.3887 
 356   0.0000       7.049439       191.8250 
 357   0.0000       7.079319       192.6381 
 358   0.0000       7.087967       192.8734 
 359   0.0000       7.126549       193.9233 
 360   0.0000       7.339657       199.7222 
 361   0.0000       7.387876       201.0343 
 362   0.0000       7.409828       201.6317 
 363   0.0000       7.436206       202.3495 
 364   0.0000       7.450936       202.7503 
 365   0.0000       7.454275       202.8411 
 366   0.0000       7.484891       203.6742 
 367   0.0000       7.489820       203.8084 
 368   0.0000       7.516399       204.5316 
 369   0.0000       7.523000       204.7112 
 370   0.0000       7.530669       204.9199 
 371   0.0000       7.545638       205.3272 
 372   0.0000       7.561611       205.7619 
 373   0.0000       7.566073       205.8833 
 374   0.0000       7.589420       206.5186 
 375   0.0000       7.625812       207.5089 
 376   0.0000       7.637560       207.8286 
 377   0.0000       7.653235       208.2551 
 378   0.0000      44.965794      1223.5815 
 379   0.0000      44.969390      1223.6793 
 380   0.0000      44.991277      1224.2749 
 381   0.0000      45.011794      1224.8332 
 382   0.0000      45.020665      1225.0746 
 383   0.0000      45.058952      1226.1164 
 384   0.0000      45.062962      1226.2255 
 385   0.0000      45.122379      1227.8423 
 386   0.0000      45.204525      1230.0777 

                    ********************************
                    * MULLIKEN POPULATION ANALYSIS *
                    ********************************

-----------------------
MULLIKEN ATOMIC CHARGES
-----------------------
   0 O :   -0.771043
   1 H :    0.347132
   2 H :    0.401509
   3 O :   -0.734324
   4 H :    0.405394
   5 H :    0.365514
   6 O :   -0.805213
   7 H :    0.411864
   8 H :    0.382272
   9 O :   -0.757489
  10 H :    0.416769
  11 H :    0.353469
  12 O :   -0.806094
  13 H :    0.407118
  14 H :    0.389702
  15 O :   -0.783460
  16 H :    0.367465
  17 H :    0.404308
  18 O :   -0.767009
  19 H :    0.387305
  20 H :    0.368081
  21 O :   -0.791819
  22 H :    0.361432
  23 H :    0.414915
  24 O :   -0.725463
  25 H :    0.410774
  26 H :    0.346891
Sum of atomic charges:    0.0000000

--------------------------------
MULLIKEN REDUCED ORBITAL CHARGES
--------------------------------
  0 O s       :     3.807780  s :     3.807780
      pz      :     1.709118  p :     4.939025
      px      :     1.417943
      py      :     1.811964
      dz2     :     0.003568  d :     0.022806
      dxz     :     0.004175
      dyz     :     0.005387
      dx2y2   :     0.002258
      dxy     :     0.007419
      f0      :     0.000079  f :     0.001431
      f+1     :     0.000310
      f-1     :     0.000178
      f+2     :     0.000070
      f-2     :     0.000349
      f+3     :     0.000089
      f-3     :     0.000356
  1 H s       :     0.607025  s :     0.607025
      pz      :     0.016878  p :     0.045843
      px      :     0.013899
      py      :     0.015066
  2 H s       :     0.541960  s :     0.541960
      pz      :     0.010208  p :     0.056531
      px      :     0.032263
      py      :     0.014060
  3 O s       :     3.797699  s :     3.797699
      pz      :     1.572930  p :     4.910196
      px      :     1.553126
      py      :     1.784141
      dz2     :     0.012027  d :     0.025036
      dxz     :     0.001223
      dyz     :     0.002336
      dx2y2   :     0.002444
      dxy     :     0.007007
      f0      :     0.000227  f :     0.001393
      f+1     :     0.000382
      f-1     :     0.000154
      f+2     :     0.000050
      f-2     :     0.000055
      f+3     :     0.000050
      f-3     :     0.000474
  4 H s       :     0.546778  s :     0.546778
      pz      :     0.024829  p :     0.047828
      px      :     0.011081
      py      :     0.011918
  5 H s       :     0.590933  s :     0.590933
      pz      :     0.010443  p :     0.043553
      px      :     0.018475
      py      :     0.014635
  6 O s       :     3.798651  s :     3.798651
      pz      :     1.618131  p :     4.983462
      px      :     1.849030
      py      :     1.516301
      dz2     :     0.009822  d :     0.021788
      dxz     :     0.001837
      dyz     :     0.002348
      dx2y2   :     0.003138
      dxy     :     0.004644
      f0      :     0.000168  f :     0.001312
      f+1     :     0.000105
      f-1     :     0.000428
      f+2     :     0.000068
      f-2     :     0.000035
      f+3     :     0.000412
      f-3     :     0.000097
  7 H s       :     0.539610  s :     0.539610
      pz      :     0.025298  p :     0.048526
      px      :     0.012210
      py      :     0.011017
  8 H s       :     0.565001  s :     0.565001
      pz      :     0.008952  p :     0.052727
      px      :     0.014780
      py      :     0.028995
  9 O s       :     3.803876  s :     3.803876
      pz      :     1.546457  p :     4.927608
      px      :     1.835743
      py      :     1.545409
      dz2     :     0.011954  d :     0.024668
      dxz     :     0.002120
      dyz     :     0.003035
      dx2y2   :     0.003296
      dxy     :     0.004263
      f0      :     0.000167  f :     0.001337
      f+1     :     0.000109
      f-1     :     0.000465
      f+2     :     0.000065
      f-2     :     0.000040
      f+3     :     0.000402
      f-3     :     0.000090
 10 H s       :     0.530298  s :     0.530298
      pz      :     0.008875  p :     0.052933
      px      :     0.014189
      py      :     0.029869
 11 H s       :     0.602522  s :     0.602522
      pz      :     0.018800  p :     0.044009
      px      :     0.013573
      py      :     0.011636
 12 O s       :     3.800463  s :     3.800463
      pz      :     1.617448  p :     4.982122
      px      :     1.519911
      py      :     1.844763
      dz2     :     0.010168  d :     0.022211
      dxz     :     0.002457
      dyz     :     0.001857
      dx2y2   :     0.003182
      dxy     :     0.004547
      f0      :     0.000162  f :     0.001298
      f+1     :     0.000430
      f-1     :     0.000104
      f+2     :     0.000067
      f-2     :     0.000035
      f+3     :     0.000094
      f-3     :     0.000406
 13 H s       :     0.544431  s :     0.544431
      pz      :     0.025351  p :     0.048451
      px      :     0.010921
      py      :     0.012179
 14 H s       :     0.557588  s :     0.557588
      pz      :     0.008975  p :     0.052710
      px      :     0.028974
      py      :     0.014760
 15 O s       :     3.800769  s :     3.800769
      pz      :     1.562418  p :     4.958803
      px      :     1.543387
      py      :     1.852998
      dz2     :     0.010505  d :     0.022533
      dxz     :     0.002579
      dyz     :     0.001920
      dx2y2   :     0.003076
      dxy     :     0.004453
      f0      :     0.000192  f :     0.001355
      f+1     :     0.000444
      f-1     :     0.000111
      f+2     :     0.000068
      f-2     :     0.000037
      f+3     :     0.000094
      f-3     :     0.000409
 16 H s       :     0.588471  s :     0.588471
      pz      :     0.018857  p :     0.044064
      px      :     0.011811
      py      :     0.013395
 17 H s       :     0.543166  s :     0.543166
      pz      :     0.008269  p :     0.052526
      px      :     0.030215
      py      :     0.014043
 18 O s       :     3.806672  s :     3.806672
      pz      :     1.554038  p :     4.934404
      px      :     1.562906
      py      :     1.817460
      dz2     :     0.011415  d :     0.024504
      dxz     :     0.001225
      dyz     :     0.002797
      dx2y2   :     0.002050
      dxy     :     0.007017
      f0      :     0.000249  f :     0.001429
      f+1     :     0.000370
      f-1     :     0.000158
      f+2     :     0.000055
      f-2     :     0.000054
      f+3     :     0.000063
      f-3     :     0.000480
 19 H s       :     0.564029  s :     0.564029
      pz      :     0.024296  p :     0.048666
      px      :     0.011472
      py      :     0.012899
 20 H s       :     0.581447  s :     0.581447
      pz      :     0.010260  p :     0.050472
      px      :     0.023636
      py      :     0.016576
 21 O s       :     3.807522  s :     3.807522
      pz      :     1.721695  p :     4.960918
      px      :     1.799973
      py      :     1.439250
      dz2     :     0.003523  d :     0.021991
      dxz     :     0.005059
      dyz     :     0.004273
      dx2y2   :     0.002230
      dxy     :     0.006905
      f0      :     0.000080  f :     0.001389
      f+1     :     0.000170
      f-1     :     0.000313
      f+2     :     0.000062
      f-2     :     0.000346
      f+3     :     0.000334
      f-3     :     0.000083
 22 H s       :     0.593198  s :     0.593198
      pz      :     0.016836  p :     0.045371
      px      :     0.014790
      py      :     0.013744
 23 H s       :     0.529559  s :     0.529559
      pz      :     0.009917  p :     0.055526
      px      :     0.013086
      py      :     0.032523
 24 O s       :     3.797747  s :     3.797747
      pz      :     1.581441  p :     4.901233
      px      :     1.782002
      py      :     1.537791
      dz2     :     0.011916  d :     0.025085
      dxz     :     0.002376
      dyz     :     0.001185
      dx2y2   :     0.002524
      dxy     :     0.007084
      f0      :     0.000225  f :     0.001398
      f+1     :     0.000155
      f-1     :     0.000381
      f+2     :     0.000050
      f-2     :     0.000055
      f+3     :     0.000478
      f-3     :     0.000053
 25 H s       :     0.541252  s :     0.541252
      pz      :     0.025291  p :     0.047974
      px      :     0.011751
      py      :     0.010932
 26 H s       :     0.609115  s :     0.609115
      pz      :     0.010743  p :     0.043994
      px      :     0.015032
      py      :     0.018219


                     *******************************
                     * LOEWDIN POPULATION ANALYSIS *
                     *******************************

----------------------
LOEWDIN ATOMIC CHARGES
----------------------
   0 O :   -0.347270
   1 H :    0.154051
   2 H :    0.154353
   3 O :   -0.283838
   4 H :    0.163922
   5 H :    0.173184
   6 O :   -0.317755
   7 H :    0.162359
   8 H :    0.148516
   9 O :   -0.317364
  10 H :    0.159360
  11 H :    0.163613
  12 O :   -0.316561
  13 H :    0.160491
  14 H :    0.149901
  15 O :   -0.310486
  16 H :    0.169947
  17 H :    0.157956
  18 O :   -0.362690
  19 H :    0.153665
  20 H :    0.146728
  21 O :   -0.325298
  22 H :    0.159505
  23 H :    0.157436
  24 O :   -0.284896
  25 H :    0.165053
  26 H :    0.166115

-------------------------------
LOEWDIN REDUCED ORBITAL CHARGES
-------------------------------
  0 O s       :     3.460475  s :     3.460475
      pz      :     1.676654  p :     4.855697
      px      :     1.396465
      py      :     1.782577
      dz2     :     0.004553  d :     0.029118
      dxz     :     0.006711
      dyz     :     0.005582
      dx2y2   :     0.003232
      dxy     :     0.009039
      f0      :     0.000082  f :     0.001981
      f+1     :     0.000426
      f-1     :     0.000262
      f+2     :     0.000034
      f-2     :     0.000617
      f+3     :     0.000084
      f-3     :     0.000477
  1 H s       :     0.681166  s :     0.681166
      pz      :     0.065722  p :     0.164783
      px      :     0.045777
      py      :     0.053283
  2 H s       :     0.649828  s :     0.649828
      pz      :     0.033424  p :     0.195819
      px      :     0.114775
      py      :     0.047620
  3 O s       :     3.451680  s :     3.451680
      pz      :     1.542873  p :     4.798374
      px      :     1.531779
      py      :     1.723721
      dz2     :     0.015440  d :     0.031688
      dxz     :     0.001766
      dyz     :     0.001773
      dx2y2   :     0.003653
      dxy     :     0.009057
      f0      :     0.000410  f :     0.002096
      f+1     :     0.000557
      f-1     :     0.000330
      f+2     :     0.000020
      f-2     :     0.000046
      f+3     :     0.000026
      f-3     :     0.000708
  4 H s       :     0.664527  s :     0.664527
      pz      :     0.094125  p :     0.171550
      px      :     0.036065
      py      :     0.041360
  5 H s       :     0.668360  s :     0.668360
      pz      :     0.031083  p :     0.158456
      px      :     0.072683
      py      :     0.054690
  6 O s       :     3.447931  s :     3.447931
      pz      :     1.564472  p :     4.840211
      px      :     1.788597
      py      :     1.487142
      dz2     :     0.012902  d :     0.027734
      dxz     :     0.001105
      dyz     :     0.003339
      dx2y2   :     0.004678
      dxy     :     0.005711
      f0      :     0.000332  f :     0.001877
      f+1     :     0.000186
      f-1     :     0.000675
      f+2     :     0.000034
      f-2     :     0.000042
      f+3     :     0.000542
      f-3     :     0.000066
  7 H s       :     0.662402  s :     0.662402
      pz      :     0.095713  p :     0.175239
      px      :     0.042355
      py      :     0.037171
  8 H s       :     0.663852  s :     0.663852
      pz      :     0.030733  p :     0.187632
      px      :     0.052795
      py      :     0.104104
  9 O s       :     3.461101  s :     3.461101
      pz      :     1.543818  p :     4.824069
      px      :     1.781025
      py      :     1.499226
      dz2     :     0.014963  d :     0.030236
      dxz     :     0.001300
      dyz     :     0.004308
      dx2y2   :     0.004601
      dxy     :     0.005064
      f0      :     0.000373  f :     0.001958
      f+1     :     0.000194
      f-1     :     0.000740
      f+2     :     0.000040
      f-2     :     0.000047
      f+3     :     0.000501
      f-3     :     0.000062
 10 H s       :     0.651807  s :     0.651807
      pz      :     0.028640  p :     0.188833
      px      :     0.052436
      py      :     0.107758
 11 H s       :     0.676608  s :     0.676608
      pz      :     0.079247  p :     0.159779
      px      :     0.043168
      py      :     0.037364
 12 O s       :     3.448786  s :     3.448786
      pz      :     1.565442  p :     4.837795
      px      :     1.487817
      py      :     1.784536
      dz2     :     0.013334  d :     0.028114
      dxz     :     0.003441
      dyz     :     0.001115
      dx2y2   :     0.004671
      dxy     :     0.005553
      f0      :     0.000327  f :     0.001867
      f+1     :     0.000679
      f-1     :     0.000186
      f+2     :     0.000034
      f-2     :     0.000044
      f+3     :     0.000066
      f-3     :     0.000531
 13 H s       :     0.664207  s :     0.664207
      pz      :     0.095782  p :     0.175301
      px      :     0.037293
      py      :     0.042226
 14 H s       :     0.662338  s :     0.662338
      pz      :     0.030761  p :     0.187760
      px      :     0.104301
      py      :     0.052699
 15 O s       :     3.454437  s :     3.454437
      pz      :     1.532938  p :     4.824789
      px      :     1.500008
      py      :     1.791842
      dz2     :     0.014391  d :     0.029299
      dxz     :     0.004014
      dyz     :     0.001223
      dx2y2   :     0.004419
      dxy     :     0.005252
      f0      :     0.000387  f :     0.001961
      f+1     :     0.000725
      f-1     :     0.000191
      f+2     :     0.000038
      f-2     :     0.000046
      f+3     :     0.000062
      f-3     :     0.000510
 16 H s       :     0.670064  s :     0.670064
      pz      :     0.079473  p :     0.159989
      px      :     0.037330
      py      :     0.043186
 17 H s       :     0.651108  s :     0.651108
      pz      :     0.028672  p :     0.190936
      px      :     0.109562
      py      :     0.052701
 18 O s       :     3.460034  s :     3.460034
      pz      :     1.535823  p :     4.870881
      px      :     1.543875
      py      :     1.791184
      dz2     :     0.014749  d :     0.029763
      dxz     :     0.001879
      dyz     :     0.002154
      dx2y2   :     0.002148
      dxy     :     0.008834
      f0      :     0.000442  f :     0.002012
      f+1     :     0.000540
      f-1     :     0.000301
      f+2     :     0.000022
      f-2     :     0.000047
      f+3     :     0.000002
      f-3     :     0.000657
 19 H s       :     0.674474  s :     0.674474
      pz      :     0.092852  p :     0.171861
      px      :     0.036869
      py      :     0.042140
 20 H s       :     0.679288  s :     0.679288
      pz      :     0.031387  p :     0.173984
      px      :     0.084684
      py      :     0.057913
 21 O s       :     3.454723  s :     3.454723
      pz      :     1.681348  p :     4.840121
      px      :     1.753425
      py      :     1.405348
      dz2     :     0.004605  d :     0.028502
      dxz     :     0.005155
      dyz     :     0.006540
      dx2y2   :     0.003578
      dxy     :     0.008624
      f0      :     0.000083  f :     0.001952
      f+1     :     0.000261
      f-1     :     0.000426
      f+2     :     0.000032
      f-2     :     0.000606
      f+3     :     0.000462
      f-3     :     0.000083
 22 H s       :     0.674990  s :     0.674990
      pz      :     0.066026  p :     0.165505
      px      :     0.053302
      py      :     0.046177
 23 H s       :     0.645027  s :     0.645027
      pz      :     0.033224  p :     0.197537
      px      :     0.047596
      py      :     0.116717
 24 O s       :     3.453382  s :     3.453382
      pz      :     1.547907  p :     4.797256
      px      :     1.724369
      py      :     1.524980
      dz2     :     0.015342  d :     0.032137
      dxz     :     0.001791
      dyz     :     0.001677
      dx2y2   :     0.003822
      dxy     :     0.009506
      f0      :     0.000400  f :     0.002120
      f+1     :     0.000332
      f-1     :     0.000561
      f+2     :     0.000021
      f-2     :     0.000046
      f+3     :     0.000735
      f-3     :     0.000027
 25 H s       :     0.661984  s :     0.661984
      pz      :     0.095954  p :     0.172963
      px      :     0.041221
      py      :     0.035788
 26 H s       :     0.675972  s :     0.675972
      pz      :     0.031513  p :     0.157913
      px      :     0.054806
      py      :     0.071594


                      *****************************
                      * MAYER POPULATION ANALYSIS *
                      *****************************

  NA   - Mulliken gross atomic population
  ZA   - Total nuclear charge
  QA   - Mulliken gross atomic charge
  VA   - Mayer's total valence
  BVA  - Mayer's bonded valence
  FA   - Mayer's free valence

  ATOM       NA         ZA         QA         VA         BVA        FA
  0 O      8.7710     8.0000    -0.7710     1.6934     1.6934     0.0000
  1 H      0.6529     1.0000     0.3471     0.8963     0.8963     0.0000
  2 H      0.5985     1.0000     0.4015     0.8743     0.8743     0.0000
  3 O      8.7343     8.0000    -0.7343     1.7570     1.7570    -0.0000
  4 H      0.5946     1.0000     0.4054     0.8588     0.8588     0.0000
  5 H      0.6345     1.0000     0.3655     0.8864     0.8864     0.0000
  6 O      8.8052     8.0000    -0.8052     1.6631     1.6631     0.0000
  7 H      0.5881     1.0000     0.4119     0.8660     0.8660    -0.0000
  8 H      0.6177     1.0000     0.3823     0.8952     0.8952     0.0000
  9 O      8.7575     8.0000    -0.7575     1.7272     1.7272     0.0000
 10 H      0.5832     1.0000     0.4168     0.8666     0.8666    -0.0000
 11 H      0.6465     1.0000     0.3535     0.8909     0.8909     0.0000
 12 O      8.8061     8.0000    -0.8061     1.6714     1.6714     0.0000
 13 H      0.5929     1.0000     0.4071     0.8703     0.8703    -0.0000
 14 H      0.6103     1.0000     0.3897     0.8875     0.8875     0.0000
 15 O      8.7835     8.0000    -0.7835     1.6782     1.6782    -0.0000
 16 H      0.6325     1.0000     0.3675     0.8825     0.8825    -0.0000
 17 H      0.5957     1.0000     0.4043     0.8865     0.8865    -0.0000
 18 O      8.7670     8.0000    -0.7670     1.7228     1.7228    -0.0000
 19 H      0.6127     1.0000     0.3873     0.8755     0.8755    -0.0000
 20 H      0.6319     1.0000     0.3681     0.8963     0.8963    -0.0000
 21 O      8.7918     8.0000    -0.7918     1.6788     1.6788     0.0000
 22 H      0.6386     1.0000     0.3614     0.8871     0.8871     0.0000
 23 H      0.5851     1.0000     0.4149     0.8621     0.8621    -0.0000
 24 O      8.7255     8.0000    -0.7255     1.7566     1.7566    -0.0000
 25 H      0.5892     1.0000     0.4108     0.8579     0.8579    -0.0000
 26 H      0.6531     1.0000     0.3469     0.8956     0.8956     0.0000

  Mayer bond orders larger than 0.100000
B(  0-O ,  1-H ) :   0.8878 B(  0-O ,  2-H ) :   0.7978 B(  3-O ,  4-H ) :   0.8333 
B(  3-O ,  5-H ) :   0.8710 B(  6-O ,  7-H ) :   0.8190 B(  6-O ,  8-H ) :   0.8138 
B(  9-O , 10-H ) :   0.7867 B(  9-O , 11-H ) :   0.8818 B( 12-O , 13-H ) :   0.8202 
B( 12-O , 14-H ) :   0.8100 B( 15-O , 16-H ) :   0.8732 B( 15-O , 17-H ) :   0.7742 
B( 18-O , 19-H ) :   0.8519 B( 18-O , 20-H ) :   0.8607 B( 21-O , 22-H ) :   0.8768 
B( 21-O , 23-H ) :   0.7778 B( 24-O , 25-H ) :   0.8246 B( 24-O , 26-H ) :   0.8867 


-------
TIMINGS
-------

Total SCF time: 0 days 0 hours 0 min 43 sec 

Total time                  ....      43.918 sec
Sum of individual times     ....      43.571 sec  ( 99.2%)

Fock matrix formation       ....      42.786 sec  ( 97.4%)
Diagonalization             ....       0.207 sec  (  0.5%)
Density matrix formation    ....       0.018 sec  (  0.0%)
Population analysis         ....       0.041 sec  (  0.1%)
Initial guess               ....       0.237 sec  (  0.5%)
Orbital Transformation      ....       0.000 sec  (  0.0%)
Orbital Orthonormalization  ....       0.000 sec  (  0.0%)
DIIS solution               ....       0.080 sec  (  0.2%)
SOSCF solution              ....       0.090 sec  (  0.2%)


           ************************************************************
           *        Program running with 6 parallel MPI-processes     *
           *              working on a common directory               *
           ************************************************************

------------------------------------------------------------------------------
                                ORCA  MP2 
------------------------------------------------------------------------------

Freezing NCore=18 chemical core electrons
MP2 will be done in the AO integral direct mode
The Q1-step will be done using symmetric double matrices
Dimension of the basis                    ...  387
Memory devoted for MP2                    ... 8000 MB   
Memory needed for all in one shot         ... 1331 MB
Number of MOs that can be treated together...   35      
MP2 density construction                  ... relaxed
The MP2 gradient is requested => amplitudes will be stored on disk
Total number of MOs              ...   36
Number of MOs treated per batch  ...    6 
Number of batches necessary      ...    1 
OPERATORS   0/  0 PASS   0
-----------------------------------------------
 MP2 CORRELATION ENERGY   :     -2.340196927 Eh
-----------------------------------------------


---------------------
MP2 DENSITY FORMATION
---------------------

Completing the external part of the density      ... done
Storing the unrelaxed density                    ... done

Calculating G(D)                                 ... done
Completing the Lagrangian                        ... done
Solving the Z-vector equations                   ... 

------------------------------------------------------------------------------
                           ORCA CP-SCF CALCULATION
------------------------------------------------------------------------------

Input orbitals are from        ... 12h2o.su.etal.mol0,3,4,5,6,7,8,10,11-orca.engrad-mp2.def2tzvp.frozencore.gbw
Input Perturbation             ... 12h2o.su.etal.mol0,3,4,5,6,7,8,10,11-orca.engrad-mp2.def2tzvp.frozencore.pin.tmp
Wavefunction output            ... 12h2o.su.etal.mol0,3,4,5,6,7,8,10,11-orca.engrad-mp2.def2tzvp.frozencore.pout.tmp
Perturbation mode              ... Real perturbation (singlet)
Solver                         ... POPLE
Max. number of iterations      ... 128
Convergence tolerance          ... 1.000e-08
Integral handling              ... Direct
Number of perturbations        ... 1
Number of operators            ... 1
Orbital ranges used for CP-SCF:
 Operator 0:  Orbitals   0... 44  to  45...386
Variables per vector in CP-SCF ... 15390
Number of vectors sought       ... 1
     CP-SCF ITERATION   0: 
     CP-SCF ITERATION   1:      0.001210787314
     CP-SCF ITERATION   2:      0.000036588002
     CP-SCF ITERATION   3:      0.000001642914
     CP-SCF ITERATION   4:      0.000000191111
     CP-SCF ITERATION   5:      0.000000017544
     CP-SCF ITERATION   6:      0.000000001076
                                                 ... done
Finalizing the relaxed density                   ... done
Transforming P to the AO basis                   ... done
Storing the relaxed density                      ... done

------------------------------------
ENERGY WEIGHTED DENSITY FINALIZATION
------------------------------------

Gathering the parts of the W-matrix              ...                                                      done
Forming the Z-density                            ... done
Transforming Z to the AO basis                   ... done
Calculating G(Z)                                 ... done
Finalizing the W-matrix                          ...                                                      done
Transforming W to the AO basis and storing       ... done

                *********************************************
                * UNRELAXED MP2 DENSITY POPULATION ANALYSIS *
                *********************************************

------------------------------------------------------------------------------
                           ORCA POPULATION ANALYSIS
------------------------------------------------------------------------------
Input electron density              ... 12h2o.su.etal.mol0,3,4,5,6,7,8,10,11-orca.engrad-mp2.def2tzvp.frozencore.pmp2ur
BaseName (.gbw .S,...)              ... 12h2o.su.etal.mol0,3,4,5,6,7,8,10,11-orca.engrad-mp2.def2tzvp.frozencore

                    ********************************
                    * MULLIKEN POPULATION ANALYSIS *
                    ********************************

-----------------------
MULLIKEN ATOMIC CHARGES
-----------------------
   0 O :   -0.764947
   1 H :    0.344855
   2 H :    0.396903
   3 O :   -0.727439
   4 H :    0.402492
   5 H :    0.362822
   6 O :   -0.797480
   7 H :    0.408658
   8 H :    0.377386
   9 O :   -0.750006
  10 H :    0.412114
  11 H :    0.350918
  12 O :   -0.798397
  13 H :    0.403863
  14 H :    0.384851
  15 O :   -0.776175
  16 H :    0.365046
  17 H :    0.399234
  18 O :   -0.760949
  19 H :    0.384263
  20 H :    0.364644
  21 O :   -0.785161
  22 H :    0.359091
  23 H :    0.410106
  24 O :   -0.718765
  25 H :    0.407703
  26 H :    0.344370
Sum of atomic charges:   -0.0000000

--------------------------------
MULLIKEN REDUCED ORBITAL CHARGES
--------------------------------
  0 O s       :     3.802876  s :     3.802876
      pz      :     1.698084  p :     4.907735
      px      :     1.409171
      py      :     1.800480
      dz2     :     0.009227  d :     0.050322
      dxz     :     0.009676
      dyz     :     0.010838
      dx2y2   :     0.007798
      dxy     :     0.012784
      f0      :     0.000451  f :     0.004013
      f+1     :     0.000676
      f-1     :     0.000544
      f+2     :     0.000440
      f-2     :     0.000716
      f+3     :     0.000464
      f-3     :     0.000722
  1 H s       :     0.607645  s :     0.607645
      pz      :     0.017364  p :     0.047500
      px      :     0.014347
      py      :     0.015790
  2 H s       :     0.544920  s :     0.544920
      pz      :     0.011025  p :     0.058177
      px      :     0.032366
      py      :     0.014786
  3 O s       :     3.792553  s :     3.792553
      pz      :     1.563190  p :     4.878491
      px      :     1.543654
      py      :     1.771647
      dz2     :     0.017246  d :     0.052404
      dxz     :     0.006680
      dyz     :     0.007964
      dx2y2   :     0.008092
      dxy     :     0.012422
      f0      :     0.000612  f :     0.003990
      f+1     :     0.000751
      f-1     :     0.000533
      f+2     :     0.000413
      f-2     :     0.000423
      f+3     :     0.000425
      f-3     :     0.000834
  4 H s       :     0.548219  s :     0.548219
      pz      :     0.024873  p :     0.049289
      px      :     0.011711
      py      :     0.012705
  5 H s       :     0.592075  s :     0.592075
      pz      :     0.011224  p :     0.045103
      px      :     0.018628
      py      :     0.015251
  6 O s       :     3.793407  s :     3.793407
      pz      :     1.607768  p :     4.949971
      px      :     1.835751
      py      :     1.506452
      dz2     :     0.015423  d :     0.050169
      dxz     :     0.007664
      dyz     :     0.007942
      dx2y2   :     0.008878
      dxy     :     0.010263
      f0      :     0.000560  f :     0.003933
      f+1     :     0.000485
      f-1     :     0.000802
      f+2     :     0.000437
      f-2     :     0.000406
      f+3     :     0.000773
      f-3     :     0.000470
  7 H s       :     0.541384  s :     0.541384
      pz      :     0.025385  p :     0.049958
      px      :     0.013000
      py      :     0.011573
  8 H s       :     0.568225  s :     0.568225
      pz      :     0.009762  p :     0.054388
      px      :     0.015477
      py      :     0.029149
  9 O s       :     3.798538  s :     3.798538
      pz      :     1.537057  p :     4.895376
      px      :     1.822472
      py      :     1.535846
      dz2     :     0.017110  d :     0.052160
      dxz     :     0.007751
      dyz     :     0.008450
      dx2y2   :     0.008983
      dxy     :     0.009866
      f0      :     0.000549  f :     0.003932
      f+1     :     0.000482
      f-1     :     0.000832
      f+2     :     0.000432
      f-2     :     0.000407
      f+3     :     0.000765
      f-3     :     0.000464
 10 H s       :     0.533377  s :     0.533377
      pz      :     0.009654  p :     0.054509
      px      :     0.014827
      py      :     0.030027
 11 H s       :     0.603418  s :     0.603418
      pz      :     0.018952  p :     0.045664
      px      :     0.014424
      py      :     0.012289
 12 O s       :     3.795224  s :     3.795224
      pz      :     1.607182  p :     4.948723
      px      :     1.510090
      py      :     1.831450
      dz2     :     0.015743  d :     0.050533
      dxz     :     0.008043
      dyz     :     0.007661
      dx2y2   :     0.008918
      dxy     :     0.010168
      f0      :     0.000554  f :     0.003918
      f+1     :     0.000805
      f-1     :     0.000483
      f+2     :     0.000436
      f-2     :     0.000406
      f+3     :     0.000467
      f-3     :     0.000768
 13 H s       :     0.546245  s :     0.546245
      pz      :     0.025439  p :     0.049892
      px      :     0.011485
      py      :     0.012969
 14 H s       :     0.560786  s :     0.560786
      pz      :     0.009786  p :     0.054363
      px      :     0.029134
      py      :     0.015443
 15 O s       :     3.795431  s :     3.795431
      pz      :     1.552843  p :     4.926216
      px      :     1.533566
      py      :     1.839807
      dz2     :     0.015924  d :     0.050567
      dxz     :     0.008088
      dyz     :     0.007667
      dx2y2   :     0.008806
      dxy     :     0.010082
      f0      :     0.000577  f :     0.003961
      f+1     :     0.000814
      f-1     :     0.000487
      f+2     :     0.000435
      f-2     :     0.000406
      f+3     :     0.000468
      f-3     :     0.000773
 16 H s       :     0.589297  s :     0.589297
      pz      :     0.019004  p :     0.045657
      px      :     0.012422
      py      :     0.014231
 17 H s       :     0.546693  s :     0.546693
      pz      :     0.009021  p :     0.054073
      px      :     0.030360
      py      :     0.014692
 18 O s       :     3.801893  s :     3.801893
      pz      :     1.544463  p :     4.903477
      px      :     1.553295
      py      :     1.805719
      dz2     :     0.016602  d :     0.051573
      dxz     :     0.006703
      dyz     :     0.008319
      dx2y2   :     0.007626
      dxy     :     0.012323
      f0      :     0.000630  f :     0.004006
      f+1     :     0.000739
      f-1     :     0.000532
      f+2     :     0.000416
      f-2     :     0.000421
      f+3     :     0.000432
      f-3     :     0.000836
 19 H s       :     0.565504  s :     0.565504
      pz      :     0.024352  p :     0.050233
      px      :     0.012146
      py      :     0.013735
 20 H s       :     0.583241  s :     0.583241
      pz      :     0.011073  p :     0.052115
      px      :     0.023839
      py      :     0.017202
 21 O s       :     3.802604  s :     3.802604
      pz      :     1.710457  p :     4.928604
      px      :     1.787889
      py      :     1.430258
      dz2     :     0.009225  d :     0.049968
      dxz     :     0.010617
      dyz     :     0.009816
      dx2y2   :     0.007910
      dxy     :     0.012400
      f0      :     0.000454  f :     0.003987
      f+1     :     0.000538
      f-1     :     0.000681
      f+2     :     0.000434
      f-2     :     0.000714
      f+3     :     0.000704
      f-3     :     0.000460
 22 H s       :     0.593942  s :     0.593942
      pz      :     0.017296  p :     0.046968
      px      :     0.015490
      py      :     0.014182
 23 H s       :     0.532755  s :     0.532755
      pz      :     0.010719  p :     0.057140
      px      :     0.013789
      py      :     0.032632
 24 O s       :     3.792585  s :     3.792585
      pz      :     1.571661  p :     4.869775
      px      :     1.769632
      py      :     1.528482
      dz2     :     0.017142  d :     0.052410
      dxz     :     0.008002
      dyz     :     0.006639
      dx2y2   :     0.008162
      dxy     :     0.012466
      f0      :     0.000610  f :     0.003995
      f+1     :     0.000535
      f-1     :     0.000750
      f+2     :     0.000414
      f-2     :     0.000423
      f+3     :     0.000836
      f-3     :     0.000427
 25 H s       :     0.542895  s :     0.542895
      pz      :     0.025325  p :     0.049403
      px      :     0.012529
      py      :     0.011549
 26 H s       :     0.610002  s :     0.610002
      pz      :     0.011549  p :     0.045628
      px      :     0.015668
      py      :     0.018411


                     *******************************
                     * LOEWDIN POPULATION ANALYSIS *
                     *******************************

----------------------
LOEWDIN ATOMIC CHARGES
----------------------
   0 O :   -0.343913
   1 H :    0.152749
   2 H :    0.151761
   3 O :   -0.279330
   4 H :    0.162035
   5 H :    0.171571
   6 O :   -0.313033
   7 H :    0.160219
   8 H :    0.145666
   9 O :   -0.312913
  10 H :    0.156682
  11 H :    0.162026
  12 O :   -0.311832
  13 H :    0.158357
  14 H :    0.147085
  15 O :   -0.305965
  16 H :    0.168416
  17 H :    0.155120
  18 O :   -0.359665
  19 H :    0.151645
  20 H :    0.144469
  21 O :   -0.321111
  22 H :    0.158182
  23 H :    0.154745
  24 O :   -0.280566
  25 H :    0.163065
  26 H :    0.164536

-------------------------------
LOEWDIN REDUCED ORBITAL CHARGES
-------------------------------
  0 O s       :     3.456826  s :     3.456826
      pz      :     1.665161  p :     4.824579
      px      :     1.387962
      py      :     1.771456
      dz2     :     0.010300  d :     0.057747
      dxz     :     0.012422
      dyz     :     0.011365
      dx2y2   :     0.008881
      dxy     :     0.014779
      f0      :     0.000466  f :     0.004761
      f+1     :     0.000841
      f-1     :     0.000647
      f+2     :     0.000411
      f-2     :     0.001028
      f+3     :     0.000472
      f-3     :     0.000897
  1 H s       :     0.679260  s :     0.679260
      pz      :     0.066974  p :     0.167991
      px      :     0.046722
      py      :     0.054295
  2 H s       :     0.649988  s :     0.649988
      pz      :     0.034263  p :     0.198250
      px      :     0.115497
      py      :     0.048491
  3 O s       :     3.447878  s :     3.447878
      pz      :     1.533133  p :     4.766456
[...]
                     * LOEWDIN POPULATION ANALYSIS *
                     *******************************

----------------------
LOEWDIN ATOMIC CHARGES
----------------------
   0 O :   -0.341172
   1 H :    0.154696
   2 H :    0.144445
   3 O :   -0.271909
   4 H :    0.158829
   5 H :    0.172511
   6 O :   -0.302960
   7 H :    0.155294
   8 H :    0.138613
   9 O :   -0.305392
  10 H :    0.148795
  11 H :    0.163583
  12 O :   -0.301458
  13 H :    0.153559
  14 H :    0.140195
  15 O :   -0.297961
  16 H :    0.169759
  17 H :    0.146438
  18 O :   -0.358638
  19 H :    0.148150
  20 H :    0.140109
  21 O :   -0.313808
  22 H :    0.160059
  23 H :    0.147063
  24 O :   -0.274062
  25 H :    0.158923
  26 H :    0.166339

-------------------------------
LOEWDIN REDUCED ORBITAL CHARGES
-------------------------------
  0 O s       :     3.458300  s :     3.458300
      pz      :     1.659495  p :     4.820967
      px      :     1.391402
      py      :     1.770069
      dz2     :     0.010342  d :     0.057105
      dxz     :     0.012075
      dyz     :     0.011298
      dx2y2   :     0.008883
      dxy     :     0.014507
      f0      :     0.000469  f :     0.004799
      f+1     :     0.000852
      f-1     :     0.000648
      f+2     :     0.000412
      f-2     :     0.001029
      f+3     :     0.000476
      f-3     :     0.000912
  1 H s       :     0.677224  s :     0.677224
      pz      :     0.066919  p :     0.168080
      px      :     0.046281
      py      :     0.054881
  2 H s       :     0.657102  s :     0.657102
      pz      :     0.034840  p :     0.198453
      px      :     0.114583
      py      :     0.049030
  3 O s       :     3.448553  s :     3.448553
      pz      :     1.534706  p :     4.759210
      px      :     1.523665
      py      :     1.700839
      dz2     :     0.020796  d :     0.059237
      dxz     :     0.007074
      dyz     :     0.007382
      dx2y2   :     0.009319
      dxy     :     0.014667
      f0      :     0.000838  f :     0.004909
      f+1     :     0.000986
      f-1     :     0.000733
      f+2     :     0.000390
      f-2     :     0.000421
      f+3     :     0.000407
      f-3     :     0.001134
  4 H s       :     0.666818  s :     0.666818
      pz      :     0.094509  p :     0.174353
      px      :     0.037118
      py      :     0.042727
  5 H s       :     0.666004  s :     0.666004
      pz      :     0.032281  p :     0.161485
      px      :     0.073222
      py      :     0.055981
  6 O s       :     3.444892  s :     3.444892
      pz      :     1.552104  p :     4.796413
      px      :     1.764527
      py      :     1.479781
      dz2     :     0.018885  d :     0.056917
      dxz     :     0.006928
      dyz     :     0.008833
      dx2y2   :     0.010634
      dxy     :     0.011637
      f0      :     0.000760  f :     0.004737
      f+1     :     0.000584
      f-1     :     0.001133
      f+2     :     0.000413
      f-2     :     0.000419
      f+3     :     0.000975
      f-3     :     0.000454
  7 H s       :     0.666535  s :     0.666535
      pz      :     0.096374  p :     0.178171
      px      :     0.043711
      py      :     0.038087
  8 H s       :     0.669993  s :     0.669993
      pz      :     0.032085  p :     0.191395
      px      :     0.054220
      py      :     0.105090
  9 O s       :     3.458556  s :     3.458556
      pz      :     1.535940  p :     4.783908
      px      :     1.754742
      py      :     1.493225
      dz2     :     0.020223  d :     0.058150
      dxz     :     0.006930
      dyz     :     0.009520
      dx2y2   :     0.010493
      dxy     :     0.010983
      f0      :     0.000784  f :     0.004778
      f+1     :     0.000584
      f-1     :     0.001190
      f+2     :     0.000415
      f-2     :     0.000420
      f+3     :     0.000935
      f-3     :     0.000450
 10 H s       :     0.659371  s :     0.659371
      pz      :     0.029817  p :     0.191833
      px      :     0.053526
      py      :     0.108490
 11 H s       :     0.673253  s :     0.673253
      pz      :     0.080299  p :     0.163164
      px      :     0.044501
      py      :     0.038364
 12 O s       :     3.445881  s :     3.445881
      pz      :     1.553636  p :     4.793581
      px      :     1.480392
      py      :     1.759553
      dz2     :     0.019316  d :     0.057269
      dxz     :     0.008934
      dyz     :     0.006927
      dx2y2   :     0.010606
      dxy     :     0.011486
      f0      :     0.000756  f :     0.004727
      f+1     :     0.001137
      f-1     :     0.000584
      f+2     :     0.000412
      f-2     :     0.000420
      f+3     :     0.000454
      f-3     :     0.000964
 13 H s       :     0.668179  s :     0.668179
      pz      :     0.096561  p :     0.178262
      px      :     0.038212
      py      :     0.043488
 14 H s       :     0.668471  s :     0.668471
      pz      :     0.032160  p :     0.191334
      px      :     0.105176
      py      :     0.053998
 15 O s       :     3.451986  s :     3.451986
      pz      :     1.521863  p :     4.783190
      px      :     1.493478
      py      :     1.767849
      dz2     :     0.020037  d :     0.057984
      dxz     :     0.009358
      dyz     :     0.006972
      dx2y2   :     0.010400
      dxy     :     0.011216
      f0      :     0.000806  f :     0.004802
      f+1     :     0.001178
      f-1     :     0.000586
      f+2     :     0.000415
      f-2     :     0.000421
      f+3     :     0.000451
      f-3     :     0.000945
 16 H s       :     0.667059  s :     0.667059
      pz      :     0.080222  p :     0.163182
      px      :     0.038285
      py      :     0.044675
 17 H s       :     0.659303  s :     0.659303
      pz      :     0.029735  p :     0.194259
      px      :     0.110546
      py      :     0.053977
 18 O s       :     3.457158  s :     3.457158
      pz      :     1.527467  p :     4.839600
      px      :     1.535333
      py      :     1.776800
      dz2     :     0.020091  d :     0.057072
      dxz     :     0.007204
      dyz     :     0.007653
      dx2y2   :     0.007672
      dxy     :     0.014452
      f0      :     0.000868  f :     0.004808
      f+1     :     0.000973
      f-1     :     0.000697
      f+2     :     0.000390
      f-2     :     0.000421
      f+3     :     0.000376
      f-3     :     0.001083
 19 H s       :     0.676682  s :     0.676682
      pz      :     0.093436  p :     0.175168
      px      :     0.038050
      py      :     0.043683
 20 H s       :     0.682140  s :     0.682140
      pz      :     0.032730  p :     0.177751
      px      :     0.085579
      py      :     0.059442
 21 O s       :     3.452597  s :     3.452597
      pz      :     1.664108  p :     4.799211
      px      :     1.734596
      py      :     1.400506
      dz2     :     0.010514  d :     0.057213
      dxz     :     0.011022
      dyz     :     0.011965
      dx2y2   :     0.009413
      dxy     :     0.014298
      f0      :     0.000471  f :     0.004787
      f+1     :     0.000651
      f-1     :     0.000854
      f+2     :     0.000412
      f-2     :     0.001020
      f+3     :     0.000900
      f-3     :     0.000480
 22 H s       :     0.671402  s :     0.671402
      pz      :     0.067085  p :     0.168539
      px      :     0.054761
      py      :     0.046692
 23 H s       :     0.652862  s :     0.652862
      pz      :     0.034580  p :     0.200075
      px      :     0.048891
      py      :     0.116604
 24 O s       :     3.450465  s :     3.450465
      pz      :     1.540004  p :     4.759001
      px      :     1.702070
      py      :     1.516927
      dz2     :     0.020721  d :     0.059660
      dxz     :     0.007399
      dyz     :     0.006986
      dx2y2   :     0.009478
      dxy     :     0.015076
      f0      :     0.000829  f :     0.004935
      f+1     :     0.000735
      f-1     :     0.000990
      f+2     :     0.000391
      f-2     :     0.000420
      f+3     :     0.001162
      f-3     :     0.000408
 25 H s       :     0.665275  s :     0.665275
      pz      :     0.096408  p :     0.175802
      px      :     0.042607
      py      :     0.036787
 26 H s       :     0.672263  s :     0.672263
      pz      :     0.032795  p :     0.161398
      px      :     0.056264
      py      :     0.072340


                      *****************************
                      * MAYER POPULATION ANALYSIS *
                      *****************************

  NA   - Mulliken gross atomic population
  ZA   - Total nuclear charge
  QA   - Mulliken gross atomic charge
  VA   - Mayer's total valence
  BVA  - Mayer's bonded valence
  FA   - Mayer's free valence

  ATOM       NA         ZA         QA         VA         BVA        FA
  0 O      8.7398     8.0000    -0.7398     2.0331     1.6445     0.3886
  1 H      0.6618     1.0000     0.3382     0.9065     0.8594     0.0471
  2 H      0.6261     1.0000     0.3739     0.9097     0.8648     0.0449
  3 O      8.6985     8.0000    -0.6985     2.1059     1.7232     0.3828
  4 H      0.6103     1.0000     0.3897     0.8821     0.8394     0.0427
  5 H      0.6450     1.0000     0.3550     0.9014     0.8550     0.0464
  6 O      8.7581     8.0000    -0.7581     2.0378     1.6468     0.3910
  7 H      0.6096     1.0000     0.3904     0.8966     0.8543     0.0423
  8 H      0.6464     1.0000     0.3536     0.9356     0.8886     0.0469
  9 O      8.7174     8.0000    -0.7174     2.0784     1.6910     0.3874
 10 H      0.6122     1.0000     0.3878     0.9082     0.8648     0.0435
 11 H      0.6550     1.0000     0.3450     0.9018     0.8541     0.0478
 12 O      8.7598     8.0000    -0.7598     2.0457     1.6544     0.3913
 13 H      0.6144     1.0000     0.3856     0.9009     0.8581     0.0428
 14 H      0.6390     1.0000     0.3610     0.9281     0.8816     0.0465
 15 O      8.7424     8.0000    -0.7424     2.0392     1.6501     0.3891
 16 H      0.6424     1.0000     0.3576     0.8937     0.8473     0.0464
 17 H      0.6282     1.0000     0.3718     0.9309     0.8863     0.0446
 18 O      8.7367     8.0000    -0.7367     2.0586     1.6718     0.3868
 19 H      0.6292     1.0000     0.3708     0.8999     0.8555     0.0444
 20 H      0.6523     1.0000     0.3477     0.9270     0.8808     0.0462
 21 O      8.7544     8.0000    -0.7544     2.0408     1.6503     0.3905
 22 H      0.6482     1.0000     0.3518     0.8982     0.8521     0.0461
 23 H      0.6135     1.0000     0.3865     0.8978     0.8534     0.0444
 24 O      8.6910     8.0000    -0.6910     2.1026     1.7205     0.3822
 25 H      0.6070     1.0000     0.3930     0.8845     0.8422     0.0423
 26 H      0.6616     1.0000     0.3384     0.9068     0.8588     0.0480

  Mayer bond orders larger than 0.100000
B(  0-O ,  1-H ) :   0.8501 B(  0-O ,  2-H ) :   0.7610 B(  3-O ,  4-H ) :   0.8011 
B(  3-O ,  5-H ) :   0.8340 B(  6-O ,  7-H ) :   0.7877 B(  6-O ,  8-H ) :   0.7724 
B(  9-O , 10-H ) :   0.7508 B(  9-O , 11-H ) :   0.8430 B(  9-O , 17-H ) :   0.1355 
B( 10-H , 12-O ) :   0.1046 B( 12-O , 13-H ) :   0.7880 B( 12-O , 14-H ) :   0.7688 
B( 15-O , 16-H ) :   0.8361 B( 15-O , 17-H ) :   0.7354 B( 18-O , 19-H ) :   0.8189 
B( 18-O , 20-H ) :   0.8252 B( 21-O , 22-H ) :   0.8398 B( 21-O , 23-H ) :   0.7405 
B( 24-O , 25-H ) :   0.7928 B( 24-O , 26-H ) :   0.8478 


----------------------------------
MP2 DERIVATIVE INTEGRAL GENERATION
----------------------------------


Input Wavefunction Amplitudes       ... 12h2o.su.etal.mol0,3,4,5,6,7,8,10,11-orca.engrad-mp2.def2tzvp.frozencore.mp2tsaa.tmp
Input Correlated Electron Density   ... 12h2o.su.etal.mol0,3,4,5,6,7,8,10,11-orca.engrad-mp2.def2tzvp.frozencore.pmp2re
Input Energy Weighted Density       ... 12h2o.su.etal.mol0,3,4,5,6,7,8,10,11-orca.engrad-mp2.def2tzvp.frozencore.wmp2.tmp
Input SCF Electron Density          ... 12h2o.su.etal.mol0,3,4,5,6,7,8,10,11-orca.engrad-mp2.def2tzvp.frozencore.scfp

One-Electron Terms    ...
                        ... One-Electron Terms done
Prescreening matrices              ... done

Batch handling in the gradient evaluation:
Memory available                      ... 8000.0 MB
Memory per occupied orbital in Q2     ...   41.1 MB
Memory per occupied orbital in Q3     ...    0.1 MB
Total memory requirement per |i>      ...   41.3 MB
Max. Number of orbitals possible      ...    193
Number of orbitals treated per batch  ...     36
Number of batches to be done          ...      1
Batch   0: i=    9 ...    44

---------------------------------------
MP2 TOTAL ENERGY:     -686.933558645 Eh
---------------------------------------

The final MP2 gradient
  0:   0.00575082  -0.00438470   0.00257695
  1:   0.00083095  -0.00023690  -0.00049348
  2:  -0.01308367   0.00436779  -0.00230327
  3:  -0.00788858   0.00596600  -0.00217430
  4:   0.00154746   0.00107843  -0.00042363
  5:   0.00707204  -0.00477225   0.00200517
  6:   0.00312638   0.00319482  -0.00392070
  7:  -0.00055686  -0.00067208   0.00312392
  8:  -0.00121314  -0.00421716   0.00263414
  9:   0.00951578   0.00255346   0.01277665
 10:  -0.00445989  -0.00310746  -0.00083764
 11:  -0.00359883  -0.00138846  -0.00838233
 12:   0.00365083   0.00151228  -0.00014313
 13:   0.00008431   0.00088733  -0.00389156
 14:  -0.00419377  -0.00069736  -0.00018495
 15:   0.00485793  -0.00158540  -0.01090679
 16:   0.00099429   0.00275014   0.00966983
 17:  -0.00890057   0.00329756  -0.00256331
 18:   0.00423697   0.00005860  -0.00144408
 19:   0.00094365   0.00091000   0.00342779
 20:  -0.00582671   0.00132203  -0.00113794
 21:   0.00400020   0.00322259  -0.00281849
 22:   0.00057007  -0.00035436   0.00133244
 23:  -0.00233245  -0.00736956   0.00241647
 24:   0.00902110   0.00920243  -0.00038521
 25:   0.00035277  -0.00170656   0.00352096
 26:  -0.00450109  -0.00983120  -0.00147350

-----------------------------------
NORM OF THE MP2 GRADIENT:  0.041871
-----------------------------------

-------------------------   --------------------
FINAL SINGLE POINT ENERGY      -686.933558645269
-------------------------   --------------------


                            ***************************************
                            *     ORCA property calculations      *
                            ***************************************

                                    ---------------------
                                    Active property flags
                                    ---------------------
   (+) Dipole Moment


------------------------------------------------------------------------------
                       ORCA ELECTRIC PROPERTIES CALCULATION
------------------------------------------------------------------------------

Dipole Moment Calculation                       ... on
Quadrupole Moment Calculation                   ... off
Polarizability Calculation                      ... off
GBWName                                         ... 12h2o.su.etal.mol0,3,4,5,6,7,8,10,11-orca.engrad-mp2.def2tzvp.frozencore.gbw
Electron density file                           ... 12h2o.su.etal.mol0,3,4,5,6,7,8,10,11-orca.engrad-mp2.def2tzvp.frozencore.scfp
The origin for moment calculation is the CENTER OF MASS  = ( 0.005266,  0.937369 -0.598446)

-------------
DIPOLE MOMENT
-------------
                                X             Y             Z
Electronic contribution:     -0.18874      -0.06656       0.03789
Nuclear contribution   :     -1.55378      -0.08480       0.68611
                        -----------------------------------------
Total Dipole Moment    :     -1.74252      -0.15136       0.72399
                        -----------------------------------------
Magnitude (a.u.)       :      1.89300
Magnitude (Debye)      :      4.81163



--------------------
Rotational spectrum 
--------------------
 
Rotational constants in cm-1:     0.030931     0.017081     0.015937 
Rotational constants in MHz :   927.284128   512.089476   477.779921 

 Dipole components along the rotational axes: 
x,y,z [a.u.] :     0.258264    -1.874724    -0.046602 
x,y,z [Debye]:     0.656454    -4.765169    -0.118453 

 

                         *** MP2 UNRELAXED DENSITY ***

------------------------------------------------------------------------------
                       ORCA ELECTRIC PROPERTIES CALCULATION
------------------------------------------------------------------------------

Dipole Moment Calculation                       ... on
Quadrupole Moment Calculation                   ... off
Polarizability Calculation                      ... off
GBWName                                         ... 12h2o.su.etal.mol0,3,4,5,6,7,8,10,11-orca.engrad-mp2.def2tzvp.frozencore.gbw
Electron density file                           ... 12h2o.su.etal.mol0,3,4,5,6,7,8,10,11-orca.engrad-mp2.def2tzvp.frozencore.pmp2ur
The origin for moment calculation is the CENTER OF MASS  = ( 0.005266,  0.937369 -0.598446)

-------------
DIPOLE MOMENT
-------------
                                X             Y             Z
Electronic contribution:     -0.17527      -0.06690       0.03192
Nuclear contribution   :     -1.55378      -0.08480       0.68611
                        -----------------------------------------
Total Dipole Moment    :     -1.72906      -0.15170       0.71803
                        -----------------------------------------
Magnitude (a.u.)       :      1.87836
Magnitude (Debye)      :      4.77440



--------------------
Rotational spectrum 
--------------------
 
Rotational constants in cm-1:     0.030931     0.017081     0.015937 
Rotational constants in MHz :   927.284128   512.089476   477.779921 

 Dipole components along the rotational axes: 
x,y,z [a.u.] :     0.255685    -1.860263    -0.047681 
x,y,z [Debye]:     0.649898    -4.728412    -0.121196 

 

                           *** MP2 RELAXED DENSITY ***

------------------------------------------------------------------------------
                       ORCA ELECTRIC PROPERTIES CALCULATION
------------------------------------------------------------------------------

Dipole Moment Calculation                       ... on
Quadrupole Moment Calculation                   ... off
Polarizability Calculation                      ... off
GBWName                                         ... 12h2o.su.etal.mol0,3,4,5,6,7,8,10,11-orca.engrad-mp2.def2tzvp.frozencore.gbw
Electron density file                           ... 12h2o.su.etal.mol0,3,4,5,6,7,8,10,11-orca.engrad-mp2.def2tzvp.frozencore.pmp2re
The origin for moment calculation is the CENTER OF MASS  = ( 0.005266,  0.937369 -0.598446)

-------------
DIPOLE MOMENT
-------------
                                X             Y             Z
Electronic contribution:     -0.16696      -0.08426       0.02739
Nuclear contribution   :     -1.55378      -0.08480       0.68611
                        -----------------------------------------
Total Dipole Moment    :     -1.72075      -0.16907       0.71350
                        -----------------------------------------
Magnitude (a.u.)       :      1.87046
Magnitude (Debye)      :      4.75434



--------------------
Rotational spectrum 
--------------------
 
Rotational constants in cm-1:     0.030931     0.017081     0.015937 
Rotational constants in MHz :   927.284128   512.089476   477.779921 

 Dipole components along the rotational axes: 
x,y,z [a.u.] :     0.250691    -1.852441    -0.065146 
x,y,z [Debye]:     0.637205    -4.708531    -0.165589 

 

Timings for individual modules:

Sum of individual times         ...      316.419 sec (=   5.274 min)
GTO integral calculation        ...        1.158 sec (=   0.019 min)   0.4 %
SCF iterations                  ...       44.596 sec (=   0.743 min)  14.1 %
MP2 module                      ...      270.665 sec (=   4.511 min)  85.5 %
                             ****ORCA TERMINATED NORMALLY****
TOTAL RUN TIME: 0 days 0 hours 5 minutes 17 seconds 378 msec
