40
Energy:  -1231.49318554
O   -2.91138200  -0.01262012   1.71147938
H   -2.02688844  -0.23575217   1.42145339
H   -3.05344737   0.87637986   1.38632046
O   -2.99779780   1.43453475  -0.99500417
H   -2.16272562   1.38892576  -0.52937971
H   -3.34171292   0.54197823  -0.95898890
O   -1.38177064  -1.72066625  -1.75917880
H   -0.99089186  -1.41441053  -0.94085548
H   -1.29308820  -0.98028007  -2.35934176
O    0.90896692  -3.27106750  -1.94840714
H    0.09059750  -2.77458362  -1.95107326
H    1.49210147  -2.76949484  -1.37866086
O   -3.77404449  -1.16425200  -0.59661510
H   -2.96182406  -1.43856574  -1.02238708
H   -3.50300115  -0.87830815   0.27574003
O    1.26618031  -1.89937952   2.28476905
H    0.53723159  -1.66533827   1.71023420
H    1.62743309  -1.05955628   2.56836244
O    3.68355985   0.66490831   0.41423629
H    3.31606009  -0.18141282   0.15944946
H    3.12332534   1.30967195  -0.01779264
O    1.87904970   2.37928100  -0.67860557
H    1.44810236   2.84389119   0.03878805
H    1.34951314   1.59234407  -0.80726465
O    0.49460143   3.08754168   1.59238031
H   -0.06371145   2.47738038   1.11048638
H    1.08588570   2.52657370   2.09430629
O    1.89636299   0.82003901   2.46466066
H    1.12147612   0.66643760   1.92411576
H    2.62704953   0.80472448   1.84652273
O    2.37310367  -1.66586382  -0.22180960
H    1.70339338  -1.03762443  -0.49205992
H    2.10329697  -1.94240266   0.65395433
O   -1.00932509   0.77719514  -2.77099653
H   -0.37423687   0.58944949  -2.07987688
H   -1.76868211   1.13248605  -2.30906889
C    0.03072664   0.19769503   0.35988411
O   -0.64559415  -0.95774342   0.65059112
O   -0.84619011   1.25033908   0.35238107
O    0.61932942   0.08418539  -0.87236689
