40
Energy:  -1231.69003451
O   -2.07068530   1.82053871  -2.56397557
H   -1.97101932   0.86854608  -2.56690310
H   -1.28638749   2.14258204  -2.11968186
O    0.23448018   2.45941137  -1.21815226
H    0.05013071   2.80412997  -0.34441534
H    0.23069440   1.50871982  -1.10678304
O   -1.99161342  -0.88032811  -2.03725973
H   -2.66134399  -0.60014199  -1.41340995
H   -1.16269479  -0.63817439  -1.62435861
O   -0.83291747  -3.24286619   0.70693654
H   -0.68618443  -2.30439985   0.82518286
H   -0.82305373  -3.36964858  -0.24177879
O   -3.32417562   0.80364684  -0.30977941
H   -3.03532975   1.35030204  -1.04051055
H   -2.52323576   0.61272552   0.17835606
O    1.76248358  -2.12082611  -1.46230511
H    1.27578621  -1.31617250  -1.28372714
H    1.97343525  -2.47081601  -0.59671958
O   -0.21029281   2.89198319   1.43553508
H   -0.44532790   1.99530301   1.19688258
H    0.67458187   2.82093866   1.79355930
O    2.25172510   2.35995616   2.48300515
H    1.71905498   1.66521280   2.87007887
H    2.45754572   2.04285340   1.60362152
O    1.84897272  -2.83139059   1.18120033
H    1.68090551  -1.88930611   1.15970428
H    0.98337531  -3.23153934   1.09841177
O    0.43979876   0.51617876   3.36324898
H    0.63355297   0.09482410   2.52590114
H   -0.36943307   1.00251817   3.20561116
O    2.54797933   1.47904154  -0.06236808
H    1.95097757   1.96444299  -0.63175914
H    2.03972536   0.72186759   0.22848816
O   -0.63384672  -3.27631202  -2.02734082
H   -1.20148730  -2.50709042  -2.07544650
H    0.24308316  -2.91906727  -1.88733363
C   -0.06829899  -0.40579066   0.30760609
O   -0.97089181   0.48410287   0.82758118
O    1.09299740  -0.35438369   1.03275904
O    0.19297639  -0.08059951  -0.99767783
