61
Energy:   -386.84785116
    C      1.97366233      3.21083366     -0.11995599
    H      1.15271418      2.52583978     -0.16152174
    H      1.83767245      3.97560336     -0.85584536
    H      2.01841764      3.65533261      0.85231801
    C      3.28652587      2.45626858     -0.40035007
    N      4.26401246      1.89446058     -0.60911621
    C      3.29378276     -1.10883980     -1.85495991
    H      4.27660278     -0.73076935     -1.66515018
    H      2.57221860     -0.48758077     -1.36681908
    H      3.10922549     -1.10935604     -2.90892264
    C      3.18339395     -2.54638678     -1.31378250
    N      3.10120446     -3.61670585     -0.91085132
    C     -0.40200608     -2.82061167     -2.46542331
    H     -1.06610583     -1.99732547     -2.30395648
    H      0.21927929     -2.95190730     -1.60422354
    H     -0.97161098     -3.71069771     -2.63334052
    C      0.47942146     -2.53550177     -3.69562567
    N      1.13568432     -2.32322450     -4.61156725
    C     -2.26034028      2.80356607     -0.71577576
    H     -2.63322292      2.46462585     -1.65969220
    H     -1.25842892      2.45285770     -0.58132746
    H     -2.27003919      3.87325160     -0.69173630
    C     -3.15171385      2.25659600      0.41465641
    N     -3.81538199      1.84935192      1.25631455
    C      0.60675607     -3.58939306      1.42290174
    H      0.69665431     -3.42107854      2.47574964
    H      0.92401508     -2.71527741      0.89359307
    H      1.22015502     -4.41947197      1.14074959
    C     -0.86208455     -3.89502066      1.07548413
    N     -1.95570316     -4.12257430      0.81681594
    C     -0.52452627      2.36649198      2.95374989
    H      0.09787355      2.39566223      3.82361639
    H     -0.10474496      1.69167877      2.23729342
    H     -1.50380035      2.03285424      3.22689314
    C     -0.61506557      3.77592667      2.33983091
    N     -0.68247619      4.82531485      1.88274033
    C      2.75966699     -0.30544610      2.21682157
    H      3.51925303     -0.93186149      2.63578815
    H      2.90149737     -0.23185405      1.15881995
    H      1.79750456     -0.72757210      2.41918806
    C      2.84709599      1.09775462      2.84529901
    N      2.91219086      2.14250135      3.31322903
    C     -3.56575814     -1.31671626     -0.61239057
    H     -4.10147472     -2.23466627     -0.73598546
    H     -4.03314290     -0.73104841      0.15144433
    H     -2.55529400     -1.52852184     -0.33132170
    C     -3.57635509     -0.53363523     -1.93838899
    N     -3.58424500      0.04940419     -2.92565508
    C     -2.30219304     -0.92431728      2.81746400
    H     -2.02448310     -0.25869056      2.02707268
    H     -3.06203229     -0.46845062      3.41723812
    H     -2.67587513     -1.83633714      2.40095400
    C     -1.07046220     -1.22580311      3.69127486
    N     -0.15338259     -1.45027302      4.34186676
    C      0.03992810      1.00469839     -3.45079017
    H      0.86497948      0.52039018     -2.97158670
    H      0.00239820      0.71129792     -4.47909302
    H     -0.87070804      0.72143887     -2.96560469
    C      0.21712151      2.53170220     -3.35880175
    N      0.34905006      3.66862594     -3.29031219
   Cl     -0.00730091     -0.14741367     -0.05929385
