61
Energy:   -386.83125677
    C      2.40325819      2.74096254     -0.17519407
    H      1.82849019      1.92907434      0.21898795
    H      2.75028904      3.35572970      0.62887684
    H      3.24163046      2.35475398     -0.71637239
    C      1.52439854      3.58052263     -1.12089200
    N      0.87004758      4.20561327     -1.82500710
    C      0.89746305      0.84282285     -3.57102578
    H      0.80034843      1.88256603     -3.80427041
    H      0.20727593      0.58540505     -2.79496076
    H      0.68662370      0.26036496     -4.44348705
    C      2.33404260      0.55516255     -3.09658850
    N      3.40364138      0.34098639     -2.74334838
    C      1.58236775     -3.04266593     -1.74599806
    H      1.42168434     -2.13481341     -1.20296508
    H      2.60287369     -3.34616050     -1.63942527
    H      0.94075725     -3.80723251     -1.36041668
    C      1.26830498     -2.81208487     -3.23589636
    N      1.03447098     -2.64040679     -4.34519337
    C     -0.82902259      3.30464688      1.78949084
    H     -1.76217187      3.52168971      1.31301941
    H     -0.33688145      2.51205448      1.26556959
    H     -0.21082545      4.17790987      1.77752661
    C     -1.08404275      2.87616136      3.24653060
    N     -1.27391686      2.55713441      4.33136293
    C     -0.53044455     -3.36238770      1.46497307
    H      0.40548798     -2.84631527      1.41398551
    H     -1.19242130     -2.97505888      0.71887505
    H     -0.37176729     -4.40658789      1.29360627
    C     -1.15311382     -3.15974210      2.85882304
    N     -1.61671940     -3.00886324      3.89660770
    C      0.85368504     -0.23386620      3.67213073
    H      0.23952374      0.06168856      4.49696615
    H      1.39729197     -1.11834602      3.93114048
    H      0.23652868     -0.43106253      2.82058465
    C      1.84347614      0.89756294      3.33779309
    N      2.58042061      1.73996337      3.08886353
    C      3.54964975     -0.67085160      0.51891581
    H      3.90820869      0.13156808      1.12920944
    H      2.64017008     -0.37508842      0.03905128
    H      4.28285327     -0.90996416     -0.22279631
    C      3.28729833     -1.90727285      1.39870796
    N      3.09196577     -2.82784466      2.05375321
    C     -2.25671044     -1.69399019     -2.57091224
    H     -2.97293426     -1.66847107     -3.36543876
    H     -1.32375597     -1.30243090     -2.91901619
    H     -2.60968397     -1.10078717     -1.75334331
    C     -2.06062221     -3.14804284     -2.10306577
    N     -1.91462561     -4.23065112     -1.75473281
    C     -3.06985533     -0.15830222      2.26335423
    H     -3.69357309     -0.64977361      2.98052382
    H     -2.13665346      0.09907585      2.71919398
    H     -2.89387642     -0.81305272      1.43556664
    C     -3.76856046      1.12097069      1.76649211
    N     -4.28877818      2.07344752      1.39655568
    C     -2.34276143      2.36321426     -1.63085562
    H     -2.69539950      1.62302437     -0.94334890
    H     -2.88274040      3.27480970     -1.48147170
    H     -1.29970384      2.53534475     -1.46562534
    C     -2.55928375      1.86877829     -3.07316320
    N     -2.72049446      1.50064824     -4.14702676
   Cl     -0.26318803     -0.09154024     -0.01520003
