61
Energy:   -384.84036794
    C      1.55315310      1.53183935     -3.33695935
    H      1.56201939      2.60158795     -3.31552323
    H      2.46759155      1.17606066     -3.76371799
    H      1.45482394      1.15592563     -2.34000432
    C      0.36580286      1.04529029     -4.18846943
    N     -0.51823336      0.68303240     -4.82245739
    C     -2.13288691     -1.60446591     -2.42783351
    H     -1.49943911     -0.76342261     -2.61833346
    H     -2.47566835     -1.57059802     -1.41479207
    H     -2.97303434     -1.57539504     -3.08980501
    C     -1.34204352     -2.90552663     -2.65893464
    N     -0.75322466     -3.87422547     -2.83099994
    C      2.17554116     -2.22526577     -2.07752555
    H      1.39828572     -2.00308429     -1.37651946
    H      2.56231513     -3.20375926     -1.88296067
    H      1.78062419     -2.18895222     -3.07131678
    C      3.30592983     -1.18900438     -1.93616155
    N      4.14755558     -0.41746067     -1.83090963
    C     -3.71449678     -0.06871909      1.15357844
    H     -3.98220088      0.78228079      0.56278754
    H     -4.46759078     -0.82241583      1.05514200
    H     -2.77590280     -0.45614802      0.81617769
    C     -3.59618407      0.34884590      2.63115807
    N     -3.50809488      0.65974201      3.73128327
    C      3.24058436     -1.14610252      1.71936764
    H      3.99312719     -0.55094549      1.24569309
    H      3.36597844     -1.10092853      2.78103366
    H      2.27288988     -0.77155093      1.45825928
    C      3.36976841     -2.60677744      1.24889950
    N      3.46595180     -3.69431631      0.89861458
    C     -0.17184689     -0.42393925      3.52701895
    H     -0.72686542     -0.03822594      4.35652475
    H     -0.84234623     -0.65527669      2.72588681
    H      0.53569985      0.30891027      3.19959219
    C      0.57364564     -1.70088284      3.95743266
    N      1.12869872     -2.65162538      4.27789522
    C      2.60875693      2.46442850      0.19213675
    H      2.81157831      1.48896787     -0.19804301
    H      3.38730326      3.13601836     -0.10405876
    H      1.67213584      2.81360630     -0.18958945
    C      2.54435516      2.39922012      1.72940715
    N      2.49640511      2.35066952      2.87397483
    C     -0.13736958     -3.54373041      0.87908882
    H      0.18397891     -4.03898827     -0.01329842
    H      0.18379205     -4.10309006      1.73282829
    H      0.28760200     -2.56240625      0.91516016
    C     -1.67374797     -3.43824258      0.88279695
    N     -2.81765152     -3.35970210      0.88555782
    C     -1.09027482      3.08307880      1.87551271
    H     -0.85156289      3.72388446      2.69848592
    H     -0.37490387      3.22626047      1.09279787
    H     -1.06599184      2.06335825      2.19874549
    C     -2.49839279      3.42235902      1.35235622
    N     -3.54680063      3.67496856      0.96284244
    C     -2.28155291      2.48713788     -2.05545436
    H     -3.20646772      3.00309278     -1.90306238
    H     -2.18072809      1.71230476     -1.32445020
    H     -2.27034157      2.05691340     -3.03508710
    C     -1.11161322      3.47893241     -1.91694537
    N     -0.24053994      4.21736851     -1.81381913
   Cl     -0.06789598      0.15908897     -0.08100460
