61
Energy:   -385.07780557
    C      0.22382595      2.76252953     -2.42630092
    H     -0.64377834      2.19584629     -2.15978058
    H     -0.05616910      3.77909300     -2.60823659
    H      0.93346738      2.72574527     -1.62632902
    C      0.85415904      2.16797910     -3.69940342
    N      1.32347068      1.72530928     -4.64728610
    C      3.03217278     -0.25925813     -2.27807295
    H      2.12564649      0.05988371     -1.80769146
    H      3.35353725      0.48580624     -2.97557066
    H      3.78857574     -0.40194569     -1.53484088
    C      2.78571311     -1.58555848     -3.02089528
    N      2.60221268     -2.57304938     -3.57396027
    C     -0.74269905     -1.07671759     -3.51548984
    H     -0.42931554     -0.49746388     -2.67218913
    H     -1.59867727     -0.61820126     -3.96489295
    H      0.05224874     -1.12535109     -4.23004696
    C     -1.10589949     -2.50033734     -3.05397900
    N     -1.37631873     -3.56028695     -2.71036321
    C      0.25376717      3.39465195      1.73971803
    H      0.64069314      3.25591295      0.75182129
    H      0.31616138      2.47311734      2.27988467
    H      0.82659658      4.14384027      2.24517072
    C     -1.21736674      3.84238304      1.65664049
    N     -2.31269281      4.17573918      1.59478549
    C      1.27475037     -1.41305044      3.33606589
    H      0.85169491     -2.15281386      3.98311638
    H      2.29662270     -1.65797931      3.13435847
    H      0.72630104     -1.38679407      2.41769068
    C      1.20225865     -0.03361671      4.01687978
    N      1.14828527      0.99343440      4.52377666
    C      3.34114828      1.08802039      1.26758675
    H      4.32852221      0.72265734      1.45864367
    H      2.74055291      0.29912092      0.86531581
    H      2.90680944      1.43655150      2.18124693
    C      3.40959967      2.24767340      0.25658758
    N      3.46056484      3.11108777     -0.49614726
    C      1.23415062     -3.35227335     -0.27250954
    H      0.58427074     -2.53246355     -0.49716083
    H      0.77755225     -3.97730481      0.46624123
    H      1.41085556     -3.92126181     -1.16128769
    C      2.57233154     -2.81368959      0.26674862
    N      3.56866806     -2.41268949      0.66825083
    C     -2.61765959     -2.69163221      0.37083053
    H     -2.72816493     -3.54577452     -0.26409440
    H     -2.02946845     -1.95002931     -0.12812380
    H     -3.58253937     -2.28847114      0.59747398
    C     -1.91646319     -3.10991089      1.67657421
    N     -1.39439061     -3.42133838      2.64875973
    C     -2.28532068      0.41946037      3.04943449
    H     -2.28886334      0.80679364      4.04686147
    H     -1.98957587      1.19010757      2.36859898
    H     -1.59585009     -0.39632967      2.98606248
    C     -3.69819809     -0.07303891      2.68498714
    N     -4.75014954     -0.43972702      2.41363951
    C     -3.42880060      1.31311710     -0.60303410
    H     -4.40528228      1.57844966     -0.25520893
    H     -2.70798969      1.98865008     -0.19195514
    H     -3.19906934      0.31487180     -0.29379477
    C     -3.39146705      1.39570119     -2.14036492
    N     -3.36367052      1.45718880     -3.28497760
   Cl     -0.09134691      0.21763573      0.14023567
