61
Energy:   -386.37684911
    C      3.33718818      1.80575746      0.89863658
    H      4.17372633      2.10521462      0.30245750
    H      2.62825739      1.29017461      0.28504832
    H      3.67088389      1.15629983      1.68078174
    C      2.67325541      3.05155257      1.51409398
    N      2.17892729      3.97910367      1.97232998
    C      2.09332776      0.77319724     -3.00880233
    H      1.19123748      0.74158620     -2.43422940
    H      2.68478595     -0.09171270     -2.79199114
    H      1.85197250      0.78810694     -4.05111919
    C      2.88777831      2.04206072     -2.64764614
    N      3.47928286      2.98678725     -2.37874894
    C     -2.59872759      0.69810007     -2.59875966
    H     -2.05887626      0.15372323     -1.85235859
    H     -3.18361203      0.01850681     -3.18267942
    H     -3.24403897      1.40828599     -2.12535890
    C     -1.60514584      1.43756655     -3.51395616
    N     -0.86537906      1.98813296     -4.19536154
    C     -0.27590938     -2.67793592      2.72296307
    H      0.63047260     -2.22194078      3.06272815
    H     -0.33924745     -2.59547405      1.65802766
    H     -0.28172189     -3.71098132      3.00167889
    C     -1.48089888     -1.96609710      3.36552497
    N     -2.37806834     -1.43610074      3.84394151
    C      0.68900779     -2.76988078     -2.33999480
    H      0.46289252     -3.26953244     -3.25875499
    H      1.69050669     -2.39482175     -2.37506262
    H      0.00823392     -1.95643578     -2.19944848
    C      0.55284020     -3.76131502     -1.16947502
    N      0.45145724     -4.49948288     -0.29796985
    C      0.02929909      1.52599430      3.40545520
    H     -0.86735052      0.99130118      3.64002484
    H      0.03956032      1.76500561      2.36254227
    H      0.06653634      2.42875071      3.97864220
    C      1.25144415      0.65225914      3.74390508
    N      2.16138670      0.00172359      3.99589640
    C      3.02234320     -2.02172796      1.14563375
    H      2.32122508     -2.82750268      1.08191034
    H      2.50814297     -1.12167269      1.41095943
    H      3.75661993     -2.24595088      1.89092622
    C      3.71468478     -1.83470777     -0.21718927
    N      4.23016456     -1.69546274     -1.23187295
    C     -2.84622882     -2.69500331     -0.14144491
    H     -2.35472616     -1.78792939      0.14235469
    H     -2.32848841     -3.52930482      0.28374322
    H     -3.85464440     -2.68117133      0.21605446
    C     -2.84741980     -2.81964911     -1.67639182
    N     -2.84830654     -2.91245358     -2.81922956
    C     -3.22060152      1.22187222      1.31732217
    H     -2.88868645      0.63741627      2.14987476
    H     -3.59313900      2.16187431      1.66733786
    H     -2.40130569      1.38915934      0.64973813
    C     -4.34131117      0.46938181      0.57612849
    N     -5.17573045     -0.09088151      0.02427611
    C      0.08350881      3.61736264     -0.98408213
    H      0.58701941      4.42637012     -0.49737467
    H      0.34022357      3.61076602     -2.02280881
    H      0.38093989      2.69172160     -0.53729078
    C     -1.43872853      3.79472229     -0.83263239
    N     -2.57210343      3.92677462     -0.71987118
   Cl      0.06126347     -0.12148345      0.11096766
