61
Energy:   -384.93856551
    C      2.36264565      2.74496193     -0.55905571
    H      1.74563979      2.07622667      0.00396925
    H      1.96406949      3.73598804     -0.49657865
    H      3.35585933      2.73424545     -0.16117277
    C      2.39483938      2.29652694     -2.03196767
    N      2.41880908      1.96264671     -3.12861757
    C      3.38766281     -1.21118520     -1.12356336
    H      2.83240009     -1.73789041     -0.37578992
    H      3.89841033     -1.91314074     -1.74909871
    H      2.71841486     -0.62484711     -1.71788140
    C      4.41494999     -0.28671907     -0.44411990
    N      5.17981200      0.40158799      0.06175663
    C     -2.44858249     -2.49476637     -1.38156956
    H     -2.39746632     -2.03340717     -0.41749747
    H     -1.48163607     -2.86493455     -1.65154962
    H     -3.14564009     -3.30603036     -1.35223474
    C     -2.91059055     -1.45839772     -2.42276531
    N     -3.25457654     -0.68677415     -3.19798287
    C     -0.84365190      3.11975401      1.70530677
    H     -1.50573501      3.73365486      1.13113616
    H     -0.42557195      2.36129262      1.07694018
    H     -0.05696286      3.72304508      2.10787270
    C     -1.62471530      2.45952377      2.85666944
    N     -2.20625250      1.96795234      3.71391129
    C     -0.96322271     -1.21549107      3.41006730
    H     -0.07177738     -1.76452099      3.63095543
    H     -1.37192049     -0.81943345      4.31615977
    H     -0.73115176     -0.41218446      2.74242918
    C     -1.99202880     -2.15148801      2.74895631
    N     -2.75802171     -2.84838028      2.25672912
    C      0.58175361     -3.81695461      0.44465978
    H     -0.43115218     -3.53242048      0.63949913
    H      0.61609851     -4.85218425      0.17629602
    H      0.96958511     -3.22701384     -0.35936492
    C      1.43196384     -3.58558753      1.70767673
    N      2.06498401     -3.41332422      2.64805026
    C      2.72528171      0.00635605      2.71666992
    H      2.30434933     -0.55253011      3.52621447
    H      3.77828122     -0.17682393      2.66630914
    H      2.26644402     -0.29539920      1.79835035
    C      2.47596035      1.50868121      2.94570694
    N      2.29032927      2.62723059      3.11623541
    C      0.44121627     -0.77298056     -3.79371915
    H      0.47482319     -0.19046026     -2.89681288
    H     -0.53277879     -0.69935861     -4.23054009
    H      1.17080509     -0.40588382     -4.48497831
    C      0.74461023     -2.24568242     -3.46100105
    N      0.97050083     -3.34217590     -3.21327730
    C     -3.72331110      0.40925854      0.81891793
    H     -3.96266718      0.37791456      1.86133167
    H     -2.69046807      0.16520836      0.68263195
    H     -4.32941713     -0.29804871      0.29237161
    C     -3.99300005      1.82361647      0.27260345
    N     -4.19379573      2.87667024     -0.13415251
    C     -1.53212988      2.27971502     -2.37159230
    H     -1.54990394      1.58718535     -1.55612500
    H     -0.92263161      1.88799174     -3.15897012
    H     -2.52787008      2.43089242     -2.73290372
    C     -0.95064784      3.62264867     -1.89200098
    N     -0.51770802      4.62252381     -1.53492343
   Cl      0.06648667     -0.30687989     -0.04457733
