61
Energy:   -386.93574683
    C      2.91420560      2.36579214     -0.41730139
    H      2.19416436      1.79641386      0.13247052
    H      3.36820727      3.08683931      0.22990226
    H      3.66632452      1.71076467     -0.80480010
    C      2.21461349      3.09025349     -1.58234500
    N      1.69373537      3.62964790     -2.44977293
    C      1.37606063     -0.02728539     -3.54134270
    H      0.57820397     -0.16144250     -2.84110930
    H      1.21204564     -0.65361148     -4.39323107
    H      1.40952882      0.99602779     -3.85216275
    C      2.71226996     -0.40556475     -2.87572319
    N      3.70713855     -0.68721094     -2.38013921
    C      0.96105699     -3.31469200     -1.01722676
    H      0.05307828     -3.10647879     -0.49080288
    H      1.66483677     -2.52862425     -0.83920816
    H      1.36807784     -4.24251777     -0.67317377
    C      0.66914455     -3.41033794     -2.52627910
    N      0.45180247     -3.48155069     -3.64983716
    C     -0.73441711      3.36512852      1.04025153
    H     -1.35156397      2.81748377      0.35899156
    H      0.25413244      2.95570157      1.03404891
    H     -0.69711365      4.39184066      0.74130385
    C     -1.32264945      3.26489815      2.45994748
    N     -1.76061516      3.19027209      3.51697565
    C     -0.80323784     -3.00355732      2.36359065
    H     -0.23641303     -2.21201447      1.91966528
    H     -1.50675552     -3.38133951      1.65138101
    H     -0.14287729     -3.78995252      2.66426593
    C     -1.55692919     -2.46724117      3.59481539
    N     -2.11808665     -2.06792942      4.51151817
    C      0.53076265      0.45164432      3.73493355
    H     -0.04094250      0.91421050      4.51216320
    H      0.93065386     -0.47524700      4.08969911
    H     -0.09922493      0.26809210      2.88975705
    C      1.68475953      1.38410505      3.32212830
    N      2.54396266      2.07836446      3.01477602
    C      3.49876906     -0.93860319      1.06837399
    H      3.81666081     -0.04546701      1.56451187
    H      2.72622744     -0.70136777      0.36709096
    H      4.32829940     -1.37400394      0.55145553
    C      2.95922047     -1.93884348      2.10760769
    N      2.55750202     -2.68356784      2.88136442
    C     -2.52103403     -1.31540140     -2.27550585
    H     -2.62004482     -0.40837217     -1.71658276
    H     -3.24189396     -1.32763980     -3.06614500
    H     -1.53620915     -1.37334009     -2.68982718
    C     -2.75844511     -2.51984507     -1.34569327
    N     -2.93520845     -3.41660813     -0.65340554
    C     -3.22476895      0.03668801      1.69215618
    H     -4.02085109     -0.28865745      2.32879088
    H     -2.45485355      0.48514384      2.28462284
    H     -2.82459737     -0.80332389      1.16381746
    C     -3.76305729      1.06849217      0.68358003
    N     -4.16383742      1.83671726     -0.06735076
    C     -1.52112562      2.48629379     -2.59956811
    H     -0.77097374      1.98782945     -2.02189550
    H     -2.44033585      2.50298258     -2.05214403
    H     -1.20794007      3.48932755     -2.80140268
    C     -1.72856140      1.73607032     -3.92837778
    N     -1.88300677      1.17749484     -4.91773698
   Cl     -0.05787447     -0.01288100     -0.00586635
