61
Energy:   -385.03066024
    C      2.98104312      1.89361449     -1.08006988
    H      3.48032270      2.81653565     -1.28944184
    H      2.88997984      1.76958585     -0.02119148
    H      2.00698724      1.90662990     -1.52272646
    C      3.79543057      0.72507192     -1.66563060
    N      4.40177904     -0.14496113     -2.10160717
    C     -0.12894557      0.94506017     -3.65499414
    H     -0.02764907      1.99830739     -3.49590458
    H      0.41122955      0.66364775     -4.53471966
    H      0.26401848      0.41746217     -2.81112288
    C     -1.61776231      0.59354111     -3.83236117
    N     -2.72625405      0.33181919     -3.96441898
    C      1.95667233     -2.51722796     -2.40450873
    H      1.70016316     -3.41499773     -1.88190690
    H      1.74011241     -1.67073770     -1.78688819
    H      3.00003367     -2.52821237     -2.64152254
    C      1.13587635     -2.42761431     -3.70445617
    N      0.52475644     -2.36089287     -4.67232613
    C     -3.42480036      0.52678682     -0.59577776
    H     -4.10678274      0.24620140     -1.37106612
    H     -3.23384184     -0.31700105      0.03386973
    H     -2.50682447      0.86125009     -1.03207317
    C     -4.03929321      1.66366880      0.24177696
    N     -4.49681106      2.51012911      0.86537452
    C     -0.62543672     -2.85039434      2.06225433
    H     -0.46326796     -3.69932178      2.69306625
    H     -0.26257322     -1.96953792      2.54941050
    H     -0.10350086     -2.98768063      1.13833088
    C     -2.13229084     -2.69875832      1.78297459
    N     -3.25421223     -2.58585841      1.57503812
    C      1.68000388      1.86976704      3.03985285
    H      1.21081743      2.70133994      3.52281329
    H      1.31762127      1.78920880      2.03631496
    H      2.73973015      2.01700007      3.02564894
    C      1.35162745      0.57695956      3.80953962
    N      1.10713628     -0.38559438      4.38260641
    C      3.19040749     -1.60360748      1.30587778
    H      2.28167325     -1.55353776      1.86854579
    H      3.68951528     -2.52649025      1.51582515
    H      2.96642695     -1.54891341      0.26101397
    C      4.10232954     -0.42612560      1.69771269
    N      4.78129696      0.45056318      1.98945159
    C     -2.05414663     -2.56370500     -1.95376603
    H     -2.17759291     -2.59623900     -3.01612319
    H     -1.50495137     -1.68553709     -1.68524268
    H     -3.01503366     -2.54113239     -1.48356853
    C     -1.28394651     -3.81327558     -1.48797086
    N     -0.71049751     -4.74363767     -1.14116518
    C     -2.25322533      0.62882926      3.12727242
    H     -1.82885849      0.40786732      2.17019939
    H     -3.31965849      0.56479588      3.06795010
    H     -1.89319905     -0.07513416      3.84818551
    C     -1.84729780      2.05219308      3.55254675
    N     -1.54506629      3.11195215      3.86918282
    C     -0.97451629      3.58145782      0.39860996
    H     -1.12424646      2.52289539      0.44250352
    H     -1.92305926      4.07651856      0.40756461
    H     -0.40011903      3.89582239      1.24486158
    C     -0.22052528      3.94002967     -0.89542396
    N      0.34085530      4.20700271     -1.85889103
   Cl      0.17834073     -0.02738837      0.06069042
