61
Energy:   -384.71705089
    C      2.85391387      1.61109745      1.14135458
    H      3.81721397      1.68090840      1.60187551
    H      2.83179717      0.76461096      0.48723642
    H      2.10476841      1.49768633      1.89687962
    C      2.57752228      2.89215917      0.33259715
    N      2.37173618      3.84596784     -0.26955952
    C      2.63623827      0.93177417     -2.69156921
    H      3.54967134      0.85071028     -2.14023551
    H      1.80796936      0.91173416     -2.01446649
    H      2.62913840      1.85251168     -3.23662988
    C      2.52388386     -0.24788761     -3.67512122
    N      2.44023088     -1.12619943     -4.40742040
    C     -0.99702462     -0.90531744     -3.51236601
    H     -0.65363788     -0.73753286     -4.51178287
    H     -0.26170083     -0.55415702     -2.81890774
    H     -1.91460501     -0.37725880     -3.35712619
    C     -1.22893200     -2.41222271     -3.29544327
    N     -1.40159759     -3.53418218     -3.13393442
    C     -0.86119407      3.25942656      1.66382102
    H     -0.53784104      4.27924258      1.68166158
    H     -1.19491840      3.00825531      0.67871180
    H     -0.04651887      2.62210713      1.93773221
    C     -2.01879253      3.07041591      2.66173925
    N     -2.88067720      2.92968889      3.40473472
    C     -1.64953584     -3.20442849      0.42920318
    H     -1.67197391     -4.23853225      0.15529419
    H     -0.67775370     -2.95497385      0.80110497
    H     -1.86824001     -2.60341910     -0.42861690
    C     -2.70111300     -2.94012409      1.52278842
    N     -3.48405999     -2.74333746      2.33701233
    C     -1.34320742     -0.32062662      3.71393232
    H     -2.20710813      0.22983341      4.02307549
    H     -1.34081949     -1.27825287      4.19126382
    H     -1.36472169     -0.45139789      2.65217194
    C     -0.07230631      0.45360262      4.11013866
    N      0.87393733      1.03005148      4.40513229
    C      2.26084995     -1.72533783      2.59070304
    H      2.24914730     -1.51811606      3.64038031
    H      1.60582355     -1.04643153      2.08580133
    H      3.25567929     -1.60712561      2.21488453
    C      1.78862996     -3.17083966      2.34753076
    N      1.43704072     -4.24708147      2.16647795
    C      1.81337540     -2.96379808     -1.33545687
    H      0.94488632     -2.36274571     -1.16410065
    H      1.72732534     -3.87913905     -0.78805813
    H      1.89740237     -3.17950135     -2.38011503
    C      3.06626442     -2.20100461     -0.86639906
    N      3.99909725     -1.63307020     -0.51716420
    C     -3.74011086      0.46554472      0.53924392
    H     -4.71726002      0.08413491      0.75044582
    H     -3.19979169      0.58870900      1.45454980
    H     -3.21808528     -0.22158626     -0.09340086
    C     -3.86272901      1.82618262     -0.17155091
    N     -3.95402381      2.83923939     -0.70076996
    C     -0.79490816      2.89327688     -2.19851615
    H     -1.37233115      3.79369717     -2.17156872
    H      0.05997451      2.99865942     -1.56371758
    H     -1.39396320      2.07505686     -1.85712466
    C     -0.33205042      2.62329736     -3.64228683
    N      0.01256820      2.42228534     -4.71723973
   Cl     -0.17255277      0.05376010      0.04117003
