21
Energy:   -233.53469051
O   -1.01309928   0.63252229   1.43293168
H   -0.11497498   0.54599826   1.75249104
H   -1.23828547  -0.24021336   1.11066548
O    1.20815090   1.15250928  -1.61687001
H    0.52661531   1.79510854  -1.41987441
H    0.73709737   0.41338530  -2.00162470
O    1.07714552  -1.81368652   1.61776547
H    1.54943658  -1.03944717   1.31161774
H    1.75557926  -2.37701059   1.99008993
O    2.23141735   0.51110944   0.79317133
H    3.06345182   0.98026629   0.85515786
H    1.89778864   0.72817001  -0.07735060
O   -0.97494872  -0.48097080  -2.13272197
H   -1.11244389  -1.06900108  -1.39005965
H   -1.29811113   0.36763298  -1.82995220
O   -1.37548609   2.03214020  -0.85493203
H   -2.06723893   2.68019409  -0.72175537
H   -1.27908412   1.60559388  -0.00346463
O   -1.28053855  -1.87420476   0.25813691
H   -0.43731105  -1.98803256   0.69659156
H   -1.78561479  -2.64911636   0.50439257
