21
Energy:   -233.95809353
O    1.50208059   0.42261978   1.03438521
H    0.88936652   0.15449575   1.71916460
H    2.35625203   0.43055241   1.46631122
O    1.17734515  -1.38207724  -1.07567753
H    1.39957079  -0.79235131  -1.79614331
H    1.39017319  -0.88605216  -0.28517440
O    1.37287931   0.67652066  -2.88646611
H    0.94017469   1.24229830  -2.24701773
H    0.74932145   0.61105831  -3.60973793
O   -2.37176800  -1.23772909   1.38878693
H   -2.87149198  -2.03863590   1.23049585
H   -2.09248256  -0.95318105   0.51857781
O   -0.31159202  -0.31862619   2.90141911
H   -0.61695819  -0.30532840   3.80850594
H   -1.05164602  -0.66686258   2.40414319
O   -1.38357527  -0.45351999  -1.00199576
H   -1.09743667   0.45932611  -0.96930684
H   -0.57354663  -0.95594437  -1.08948966
O    0.07452476   1.92205594  -0.77390586
H   -0.11227060   2.78729093  -0.40961510
H    0.59837340   1.48654567  -0.10148838
