16
Energy:   -484.88431694
O    0.27159081  -0.38889817  -1.61187042
H    0.58941223  -0.18391298  -2.49118974
H    0.60871269  -1.26681743  -1.43343710
O    1.45373393  -2.56460323   0.55219258
H    2.37924039  -2.72819398   0.37078774
H    1.13241861  -3.38732784   0.92112691
O   -0.17697915   2.67973626  -0.49303631
H    0.57325288   3.24164455  -0.68705391
H   -0.92362550   3.27797092  -0.46360207
O   -2.33198130   0.50761971   0.21419026
H   -2.98735990   0.37914730  -0.47152512
H   -2.81318360   0.38373595   1.03231555
O    0.65694630  -0.01865849   1.33480341
H    1.00796687  -0.88809903   1.14221691
H    0.99549604   0.18934050   2.20563769
Li  -0.41337257   0.73298865  -0.13482543
