16
Energy:   -485.91425755
O    2.34914415   1.33578129  -0.10688296
H    2.73482340   2.15348519   0.20751120
H    2.93530182   1.04738058  -0.80650862
O    0.69670392  -1.27495806   0.86448032
H    1.41007413  -1.76596625   1.27221276
H    0.03103137  -1.93498964   0.67090805
O   -0.32595382   1.58158756   1.68158596
H   -1.00655796   2.25464658   1.68040469
H   -0.16066371   1.40905632   2.60848617
O   -1.90758384  -1.95993338  -1.03901340
H   -2.81229157  -1.96257919  -0.72639740
H   -1.89479711  -2.60910768  -1.74232064
O   -0.61904367   0.48248964  -1.33381011
H   -0.90822981   0.96438312  -2.10865326
H   -1.12187293  -0.33169734  -1.35603963
Li   0.55766676   0.58694882   0.22312117
