16
Energy:   -484.58494512
O   -0.99161054  -0.50372516  -0.88872588
H   -1.37583889  -1.04242420  -1.58039326
H   -1.73903404  -0.22020804  -0.36222042
O   -2.95243012   0.37037679   0.77684312
H   -3.59606160   1.01608360   0.48523877
H   -3.39972024  -0.11964635   1.46680016
O    1.89981697   0.82957747  -1.60177374
H    1.90427676   0.62789775  -2.53747522
H    2.54246739   1.53228888  -1.50467097
O    1.74017651  -1.74056131   0.25646846
H    1.40033437  -2.53366559   0.67086534
H    2.66789473  -1.92509161   0.10977385
O    0.45948163   1.04713376   1.34135709
H   -0.36709076   1.48773955   1.53852825
H    1.01999077   1.24107439   2.09265489
Li   0.79239501  -0.07713319  -0.22562453
