16
Energy:   -483.79239475
O    0.97788194  -1.39839849  -0.69077922
H    1.20708436  -2.19145447  -1.17529993
H    1.56988974  -1.39718262   0.06138907
O   -0.13731507   1.29278816  -2.17345522
H    0.47008326   2.02535656  -2.07029200
H   -0.41088088   1.33507243  -3.08975519
O   -2.29670376  -0.76003017  -0.80101857
H   -2.66940349  -1.50664635  -1.26994397
H   -3.02539195  -0.41092720  -0.28782027
O    1.60217988  -0.10207926   2.53693364
H    1.34014416  -0.64786536   3.27834221
H    2.41006234   0.32266070   2.82529754
O   -0.26322291   1.00190810   0.87705015
H   -0.63931983   1.79155117   1.26595475
H    0.33883077   0.66977666   1.54297200
Li  -0.46240727  -0.04872875  -0.78099782
