16
Energy:   -484.68555294
O   -1.52033226  -0.52793164   0.65185986
H   -1.24250275  -0.85873953   1.50603124
H   -2.44554623  -0.76582908   0.59172864
O   -0.32720316   2.21749796  -0.28371790
H   -0.98653688   2.62970239   0.27449210
H    0.31207871   2.90989854  -0.45144376
O    1.43484590  -0.49416853  -0.40295687
H    1.54260481  -0.74421877   0.51470034
H    2.24632866  -0.77582873  -0.82532532
O   -1.10309989   0.01632364  -2.47521956
H   -1.39204109   0.69521256  -3.08501843
H   -1.22748094  -0.80389143  -2.95272186
O    1.48893165  -1.14562290   2.24145788
H    1.73375612  -0.62028710   3.00324205
H    1.79571709  -2.02805568   2.44984918
Li  -0.33259859   0.29310768  -0.68842385
