16
Energy:   -485.15517380
O    0.52318354   1.12353638  -1.18997222
H    0.20067464   0.60173810  -1.92478267
H    0.87851292   1.91464714  -1.59508535
O   -1.24321338  -0.75622562   0.48790511
H   -1.32768279  -1.10842727  -0.39812580
H   -2.09657218  -0.91468929   0.89151365
O   -1.19550163  -1.37812756  -2.21923886
H   -2.04871102  -1.42172537  -2.65093878
H   -0.67364540  -2.05504135  -2.65015143
O    1.82382419  -0.70977480   1.17716217
H    2.76939524  -0.60137084   1.27902387
H    1.67413088  -1.64609550   1.30803350
O    0.14899500   1.88837286   1.97310767
H    0.77200399   2.00416199   2.69052284
H   -0.51072746   2.56697160   2.11629242
Li   0.30913266   0.45169060   0.65391488
