16
Energy:   -486.07390549
O    2.65219696   0.28141142   1.20792634
H    3.41820031  -0.28785711   1.13441401
H    2.94313078   1.00469916   1.76330386
O   -2.37033971   1.04666590  -0.16460917
H   -3.23102868   0.96294613  -0.57502036
H   -2.46699220   1.77468314   0.44929721
O    0.77081229   1.07723321  -0.69581353
H    1.51104490   0.90054023  -0.11523871
H    1.09853661   1.73499481  -1.30914728
O   -0.96995921  -1.40324495  -1.80480443
H   -0.64824571  -1.29298793  -2.69955336
H   -1.39161480  -2.26256901  -1.80556783
O   -0.29980224  -0.98101645   1.33933842
H    0.59646822  -1.04893474   1.66845577
H   -0.82853736  -1.45080451   1.98429594
Li  -0.75049423  -0.07586265  -0.35291232
