25
Energy:   -807.86617257
O    0.79362021  -1.81329683   0.03448370
H    1.33146659  -2.47775709  -0.39615035
H   -0.03379174  -1.82551746  -0.44663163
O    1.23381211   1.42926590  -1.02845555
H    0.44285933   1.36455273  -1.56365436
H    1.93924593   1.57334378  -1.65919839
O   -1.54839114  -1.56003489  -1.41269494
H   -1.36773947  -0.84519966  -2.02311071
H   -1.97994678  -2.22763757  -1.94589119
O    2.55553115   0.79440775   1.16246101
H    2.40472966   0.12385883   1.82868537
H    3.37168829   1.21784431   1.42858290
O   -2.49260479   0.60427403   0.09015714
H   -3.37535020   0.66880160   0.45461369
H   -2.42921896  -0.29658819  -0.22711460
O   -1.15806744   1.09970954  -2.30564459
H   -1.78221747   1.20997411  -1.58835084
H   -1.52687839   1.61158167  -3.02550377
O   -0.04065085   1.03403590   1.22712732
H    0.02533983   0.42620468   1.96361784
H   -0.94698586   0.95350561   0.92996815
O    1.13629755  -1.05380324   2.65300762
H    0.98389735  -1.57942482   1.86768732
H    1.11122215  -1.68455905   3.37255622
H    1.22983883   1.08351967   0.42849306
