25
Energy:   -810.71651889
O   -1.32823593  -1.67235145   0.79878655
H   -1.65046485  -2.53482170   1.06059839
H   -0.69717263  -1.85324188   0.10217360
O    2.65730978  -0.51688436  -0.00929148
H    3.48245620  -0.97103154  -0.17992431
H    1.99920951  -1.03103753  -0.47703329
O    0.51336673  -1.75081487  -1.25487209
H    0.64609061  -2.46313358  -1.88034654
H    0.17628492  -1.02726081  -1.78314969
O   -0.10002643   0.29646567   2.25980297
H    0.05579259   0.07805814   3.17863398
H   -0.56322840  -0.46359013   1.90767947
O   -2.62398301   0.45954944  -0.44665881
H   -3.57431987   0.54953077  -0.37598299
H   -2.42763532  -0.36661530  -0.00492218
O   -0.60555446   0.46463902  -2.40922563
H   -1.46539947   0.48146827  -1.98896955
H   -0.77178761   0.75076845  -3.30740620
O   -0.26468338   1.77674589   0.12022644
H    0.03164731   1.71098487  -0.78757060
H   -1.19061670   1.53618501   0.08844932
O    1.98936934   1.65362475   1.44030853
H    2.49376531   0.97031811   0.99882400
H    2.60340656   2.38176382   1.53519607
H    0.54673099   1.29997239   1.28835635
