21
Energy:   -119.74040423
O   -0.00434126  -0.47910532  -2.65249177
H   -0.19641743  -1.29620933  -3.11257832
H    0.77098886  -0.67617820  -2.12688988
O    1.80759057  -0.51781116   1.47433440
H    1.23775159   0.24153041   1.35220431
H    1.29243423  -1.12070499   2.01039860
O    2.19434344  -1.11543515  -1.14357122
H    3.14483058  -1.10641969  -1.25637530
H    2.06231144  -0.96456890  -0.20760179
C   -0.60639116   2.54440059  -1.61273468
H   -0.91419509   3.56373662  -1.50732604
H   -1.37854670   1.98732647  -2.10093887
H    0.28884092   2.50076971  -2.19716172
C   -0.34052131   1.94188377  -0.22065468
N   -0.14256912   1.49328261   0.81581215
C   -2.65929789  -0.54591371   2.34044804
H   -3.48040543  -1.22408397   2.44421555
H   -2.63863297  -0.16091707   1.34232498
H   -2.77460088   0.26226963   3.03214450
C   -1.34130643  -1.28714404   2.63212615
N   -0.36000189  -1.83902371   2.84929376
