21
Energy:   -121.54864427
O    1.98329020  -1.61939836  -0.71188398
H    1.39099169  -1.38440782  -1.42616248
H    2.18034670  -0.78810640  -0.28019630
O    1.88626560   1.09815295   0.04015349
H    1.21678398   1.54489756   0.55827070
H    2.55812168   1.76348480  -0.10875852
O    0.05858259   0.14302264  -1.86658084
H    0.70077539   0.55601264  -1.28929450
H   -0.56921617  -0.26783455  -1.27219297
C   -2.64123582   2.12612371  -0.36053659
H   -3.20796803   3.03215747  -0.30745549
H   -3.22620727   1.31652308   0.02320070
H   -2.38156549   1.92701983  -1.37927506
C   -1.35737236   2.27389309   0.47699479
N   -0.40147765   2.38391412   1.10057498
C   -0.06179974  -2.64186986   1.84952488
H   -0.67094955  -3.44852275   2.20044910
H    0.28415327  -2.06730935   2.68324895
H    0.77731154  -3.03513166   1.31460758
C   -0.89068756  -1.74182570   0.91439627
N   -1.50783222  -1.07170192   0.21815052
