21
Energy:   -117.83066927
O    1.37635129   0.05567427   1.69397282
H    1.10624174   0.97174932   1.63010430
H    2.24981985   0.08965360   2.08401121
O    0.71025660  -0.29129293  -0.96653321
H    0.99934564  -0.29540245  -0.05404075
H    0.66343635  -1.21645279  -1.20761191
O    0.37201194  -3.00656953  -1.35641924
H   -0.36644030  -3.04426513  -0.74855480
H    0.79943013  -3.85845697  -1.26791306
C    0.14096635   3.05447525  -1.60227646
H    0.21259323   2.11466258  -2.10875638
H    0.90422776   3.71251613  -1.96187804
H   -0.81976155   3.48739780  -1.78796182
C    0.32208162   2.83693075  -0.08851569
N    0.45693017   2.67495898   1.03854800
C   -2.00237632  -0.15352638   1.33210246
H   -1.44050527   0.02768962   2.22449356
H   -3.03788192   0.04298337   1.51652358
H   -1.65067414   0.48939629   0.55245183
C   -1.82688453  -1.62249975   0.90441115
N   -1.69622292  -2.71621720   0.58597552
