25
Energy:   -385.14483863
Na   0.67158480  -0.80623562  -0.08786877
O   -1.01916078  -2.48212397  -0.39947061
H   -1.73121378  -2.73950576   0.18616322
H   -1.19085334  -2.96037058  -1.21066338
O    2.88718108  -0.60982018   0.20058246
H    3.28434407  -0.83971446   1.04060748
H    3.62264034  -0.57497597  -0.41106892
C   -2.00272792   3.58561070   0.36774932
H   -1.29724739   4.38764194   0.30495381
H   -2.39922135   3.53625491   1.36034998
H   -2.79904952   3.75588938  -0.32635166
C   -1.30132931   2.25724430   0.02851092
N   -0.77910616   1.26821514  -0.22406750
C   -0.53828249  -1.06693012   4.79786838
H   -1.47466815  -0.56362746   4.91939416
H    0.19966377  -0.60189393   5.41760684
H   -0.64577683  -2.09337273   5.08028585
C   -0.09796581  -0.98330399   3.32452935
N    0.22986997  -0.92104054   2.22756148
C    0.67317915   0.39060631  -4.90810262
H    1.19930010   1.28958143  -5.15293044
H   -0.37150619   0.52648110  -5.09537162
H    1.04179462  -0.41357463  -5.51002848
C    0.88899387   0.05861484  -3.41988030
N    1.04967773  -0.18856790  -2.31183114
