25
Energy:   -365.53897928
Na  -0.05214472   0.05587349   1.14204507
O    0.97406256   0.04125834   3.17462619
H    1.92630296  -0.05578437   3.18189102
H    0.73247934   0.10702575   4.09850067
O    0.50199989  -0.10092251  -1.06802998
H    1.27504311  -0.20582952  -1.62267451
H   -0.22991736  -0.05303773  -1.68303896
C   -2.89738041   0.06386897  -5.21069649
H   -3.59289079  -0.74666702  -5.27547995
H   -2.14915724  -0.04683828  -5.96753538
H   -3.41443528   0.98976702  -5.35305573
C   -2.22907372   0.05716950  -3.82328117
N   -1.73148901   0.05218144  -2.79028739
C    6.36844710  -0.49624177   3.48706866
H    6.72406059  -1.43071183   3.10601102
H    6.52266073  -0.46068411   4.54529969
H    6.90293939   0.30536031   3.02161062
C    4.86540514  -0.35618739   3.18235628
N    3.74632208  -0.25191054   2.95548406
C   -4.77406626   0.47211942  -0.42642536
H   -4.65822138   0.41200898  -1.48843613
H   -5.22180401   1.40920993  -0.16895425
H   -5.40107738  -0.32708741  -0.09023407
C   -3.39395889   0.36018388   0.24764739
N   -2.36640621   0.27684278   0.74952519
