25
Energy:   -395.59328083
Na  -0.60072131   0.06893145  -0.80525102
O   -2.14381589  -1.28717318  -1.92143039
H   -3.06264683  -1.42534674  -1.69145295
H   -1.95303383  -1.96772288  -2.56694271
O   -0.89006258   1.84568827  -2.27602820
H   -0.45486790   2.69794122  -2.25361536
H   -1.46829899   1.89144410  -3.03746166
C    2.83667606   2.52945763   2.03009364
H    3.11867350   1.85507792   2.81149598
H    2.41808514   3.41628735   2.45812844
H    3.69947273   2.78566215   1.45143981
C    1.79148448   1.85494426   1.12223557
N    1.01329184   1.35273839   0.44629398
C    3.26946500  -3.10092953  -1.68147933
H    3.11297638  -4.03676980  -1.18689416
H    4.13896649  -2.62535594  -1.27812340
H    3.40884891  -3.26994639  -2.72881143
C    2.04264864  -2.19523004  -1.46646759
N    1.12922809  -1.52089560  -1.30638158
C   -3.29963689   0.11509796   3.49669203
H   -3.21874971  -0.82860330   3.99447248
H   -4.33113625   0.33764791   3.31954888
H   -2.86996962   0.87965625   4.10966490
C   -2.54986433   0.05262424   2.15298889
N   -1.99162458   0.00610972   1.15254082
