25
Energy:   -379.35072778
Na   0.35192683  -0.84922350  -0.40094207
O    2.01901979  -1.84300341   0.90775589
H    1.92715087  -2.66024282   1.39756371
H    2.86237560  -1.48817698   1.18896939
O    0.88819261  -0.99522553  -2.68099683
H    0.53533556  -1.64455667  -3.28934937
H    1.50853108  -0.48800981  -3.20458470
C   -1.55942523   2.77014370   2.89527437
H   -1.23954798   3.61163890   2.31694527
H   -0.96786192   2.70276658   3.78432570
H   -2.58912365   2.89015783   3.16025904
C   -1.38922203   1.48325944   2.06668535
N   -1.26249801   0.52511562   1.44976315
C    3.21768793   3.23765584  -1.39327670
H    2.84434992   4.21307126  -1.16071776
H    3.37924351   3.15973787  -2.44813578
H    4.14169392   3.07724185  -0.87812685
C    2.19261660   2.17680476  -0.95120912
N    1.42940440   1.38695290  -0.62206971
C   -4.03156495  -3.26382699   0.03100715
H   -4.13956554  -3.50158852   1.06865136
H   -4.14467663  -4.15360271  -0.55243437
H   -4.78055080  -2.55406187  -0.25210551
C   -2.63534636  -2.66254633  -0.21523506
N   -1.59579816  -2.21486554  -0.39857358
