25
Energy:   -376.38578659
Na   0.11778268  -1.05624659   0.30982368
O   -1.43485415  -2.74993879   0.25372891
H   -1.72546255  -3.27908306   0.99655119
H   -1.98672156  -3.03507628  -0.47453671
O    2.21339664  -2.21827492   0.61965981
H    2.41980768  -3.12699917   0.40092124
H    3.06447724  -1.81099172   0.78094855
C   -1.61383187   3.53295219  -1.30675760
H   -0.85055744   3.65838488  -2.04606740
H   -1.42830638   4.19478933  -0.48672652
H   -2.56751003   3.75692133  -1.73714683
C   -1.60681083   2.07752141  -0.80349628
N   -1.60158335   0.99388704  -0.42879535
C    0.35101666   0.76106102   5.11188024
H   -0.47403982   1.38117990   5.39407622
H    1.25995105   1.32053949   5.18751887
H    0.39889977  -0.08684978   5.76276700
C    0.16137893   0.28367951   3.66007295
N    0.02018502  -0.07175272   2.57913642
C    0.80496582   0.23608991  -4.61217276
H    1.81074585   0.03818710  -4.91899711
H    0.59433252   1.27838945  -4.73110281
H    0.12950304  -0.33523128  -5.21403754
C    0.63271009  -0.15693545  -3.13316666
N    0.50445787  -0.44956070  -2.03197939
