25
Energy:   -385.03920433
Na  -0.13068229   0.29951196   0.23598366
O   -1.03670956   0.59482740   2.31571363
H   -1.33055517   1.34951863   2.82593687
H   -1.19753186  -0.15735188   2.88544547
O   -1.48141364  -1.56173175   3.91024945
H   -0.92637888  -1.86662711   4.62802872
H   -2.31534707  -2.01226539   4.04368973
C   -2.78588210  -2.41520860  -3.10358400
H   -2.37159963  -2.26363497  -4.07841509
H   -3.80605931  -2.09260663  -3.09548971
H   -2.73845963  -3.45450064  -2.85353948
C   -1.98209806  -1.60186192  -2.07208102
N   -1.38364431  -0.99628835  -1.30408016
C    0.36051445   4.78467805  -2.05224798
H    1.39271077   4.94864913  -2.28156094
H    0.00821110   5.56776988  -1.41385263
H   -0.20949736   4.77909173  -2.95776133
C    0.20236744   3.42965315  -1.33775723
N    0.08461980   2.42077551  -0.80578639
C    4.52966136  -1.64602662  -0.02590348
H    5.16396025  -1.14971531   0.67853970
H    4.91024556  -1.49767343  -1.01486562
H    4.50406795  -2.69306660   0.19307445
C    3.10582123  -1.06690566   0.06842675
N    2.04570753  -0.63572378   0.13865989
