25
Energy:   -375.85245720
Na  -0.11467759   0.49926375  -1.05472155
O   -1.56507430   2.27725858  -0.93302975
H   -1.64761381   3.00515114  -0.31691978
H   -2.05339352   2.56057430  -1.70601641
O   -0.38378593   0.52203636  -3.47534933
H   -0.99331809  -0.00336237  -3.99367218
H    0.09312554   1.04318352  -4.12125407
C    4.23677090   2.30178904   0.95218328
H    5.05774382   2.62872093   0.34884324
H    4.44242150   1.32386748   1.33464417
H    4.09979875   2.98184243   1.76683972
C    2.95633571   2.25995897   0.09758631
N    2.00299351   2.22881458  -0.53869997
C    0.82013362  -1.99488714   3.22844879
H    1.05876454  -1.44441228   4.11441318
H    1.56065521  -2.75030359   3.06759840
H   -0.13946683  -2.45449042   3.34172226
C    0.79199323  -1.03843758   2.02179542
N    0.77104144  -0.32631740   1.12338714
C   -3.56146171  -3.06390849   0.03316817
H   -3.27422321  -4.09180008  -0.04320659
H   -4.40051102  -2.87969740  -0.60476726
H   -3.82766924  -2.84224169   1.04553987
C   -2.38412469  -2.16867216  -0.39581837
N   -1.50754377  -1.50212801  -0.71521834
