25
Energy:   -395.59352988
Na  -0.26685738   0.00934769  -0.97292470
O   -1.89167415  -1.24374994  -2.06550194
H   -2.47496965  -1.90072457  -1.68552491
H   -2.12854757  -1.22000919  -2.99262610
O    0.36496759   1.13864435  -2.92015184
H    1.10333868   0.93204247  -3.49317508
H    0.07809085   2.00723175  -3.20209071
C   -1.75222343   4.26274504   1.37136872
H   -1.01147315   5.03141797   1.29835403
H   -1.89429174   4.00078385   2.39903210
H   -2.67543492   4.61711839   0.96271342
C   -1.28514266   3.02342401   0.58554498
N   -0.93737980   2.10069317   0.00046349
C   -1.19825367  -2.11392580   3.55864380
H   -2.20589096  -1.93185156   3.86915346
H   -0.52337385  -1.65408052   4.25000379
H   -1.01818982  -3.16833380   3.53218875
C   -0.97848862  -1.52024968   2.15477344
N   -0.81486355  -1.07823083   1.10952814
C    4.31104288  -2.09572027  -0.33929198
H    4.65659056  -1.82098028   0.63539511
H    5.02180102  -1.77669845  -1.07274071
H    4.19765336  -3.15843345  -0.39108588
C    2.95394587  -1.42077965  -0.61195087
N    1.94352546  -0.91825569  -0.81495781
