25
Energy:   -372.39003551
Na   0.33358291  -0.64409412   1.44380424
O    1.92130714   0.98059213   1.88175545
H    2.38997055   1.37858715   2.61536734
H    2.25875390   1.43207700   1.10811281
O    0.73073389  -2.33425000   2.95065345
H    0.93311919  -3.21777247   2.64298465
H    0.62380784  -2.42835747   3.89719582
C   -0.07122396  -1.69792055  -3.36251343
H    0.86650851  -1.33735683  -3.73068701
H   -0.86024492  -1.07034415  -3.72097247
H   -0.22798183  -2.69917087  -3.70576823
C   -0.05964322  -1.67905165  -1.82267258
N   -0.05102083  -1.66500289  -0.67619107
C   -4.43161356   0.77354417   2.34334270
H   -4.25167416   1.66876165   2.90111295
H   -4.89785597   0.04704262   2.97557100
H   -5.07452323   0.99174316   1.51632672
C   -3.09423952   0.21667490   1.82091824
N   -2.09850377  -0.19793958   1.43194949
C    2.24732820   2.34084122  -3.34806621
H    2.74664841   3.26291236  -3.13507723
H    1.45457821   2.51716812  -4.04474072
H    2.94436483   1.64675032  -3.76910878
C    1.66643499   1.75894012  -2.04593173
N    1.23393359   1.32568831  -1.07643342
