25
Energy:   -366.80576122
Na   0.72992082  -0.50218058   0.52238642
O   -1.58593156  -0.82032889   1.03534821
H   -2.37426243  -0.35333616   1.31226711
H   -1.90994665  -1.64654809   0.67672877
O    0.55030113  -2.64285307  -0.51308012
H    0.96236846  -3.05688637  -1.27137346
H   -0.35621710  -2.94938000  -0.53539132
C   -3.90477863  -4.07638780  -2.66729643
H   -4.92616913  -3.94534304  -2.37662669
H   -3.69150679  -5.12081503  -2.75995689
H   -3.73660126  -3.59326918  -3.60708995
C   -2.98373990  -3.45712837  -1.59967972
N   -2.29798470  -2.99606158  -0.80479056
C    3.75401797   2.88349097   2.12292746
H    2.96529298   3.56170323   2.37360898
H    4.28434219   3.25274518   1.27010471
H    4.42627311   2.79657307   2.95082685
C    3.15837597   1.50101664   1.79800390
N    2.71489343   0.47170165   1.55608354
C    1.05734850   4.55420470   0.00823106
H    1.00807427   4.95823667   0.99779177
H    0.40243831   5.10436341  -0.63466638
H    2.06030885   4.62727824  -0.35732315
C    0.62733375   3.07570949   0.03541995
N    0.30716822   1.97490260   0.05566330
