13
Energy:   -240.17818448
O    0.04443860   1.54367456  -0.48131655
H    0.27185948   2.32523920  -0.98497149
H   -0.27760353   1.88190133   0.35422122
O   -1.31529298   0.57526122   2.17665121
H   -2.19697625   0.94492206   2.12956266
H   -0.98618461   0.84790240   3.03314775
O    2.35944340  -1.89527363  -0.16760492
H    2.60168780  -1.55100731  -1.02727358
H    3.18537073  -2.19466034   0.21245229
O   -1.16709928  -0.64351605  -1.66964754
H   -1.46675108  -0.63636557  -2.57870723
H   -0.87337211   0.25281617  -1.50672196
K   -0.15414144  -1.37801119   0.66293717
