13
Energy:   -242.83262510
O    2.11876139   0.22796712  -1.65060779
H    2.31864707   0.95843289  -2.23601133
H    2.71514471  -0.46896147  -1.92419384
O   -1.03710804  -1.91480401   0.94981117
H   -0.54882960  -2.71358522   1.14922178
H   -0.36425778  -1.24214454   0.84477019
O   -1.94298838   1.34634806   0.23741196
H   -1.93771423   2.28637360   0.05697912
H   -1.01889960   1.11455338   0.32994843
O    0.58126523   0.29096161   0.59279545
H    1.10656639   0.26219045  -0.20686870
H    1.18518768   0.60566341   1.26545606
K   -3.40979946  -0.81888077   0.58726705
