13
Energy:   -249.73624871
O   -1.38642779   1.48103858   3.56774165
H   -1.11903595   2.36475687   3.82027965
H   -1.95313323   1.18857995   4.28156567
O    0.71769010  -1.18647499  -2.62300457
H    1.01793290  -0.69144826  -3.38526086
H    0.75662856  -2.10169058  -2.90066635
O   -1.31451940  -0.75153110  -0.87297169
H   -2.14765407  -0.84833121  -1.33421805
H   -0.64948846  -0.91111832  -1.54267132
O    1.86589972   0.45380706   0.10337204
H    2.74954832   0.77746370   0.27842457
H    1.88816078   0.17905706  -0.81327878
K   -0.40779572   0.05371260   1.49467493
