13
Energy:   -232.60177244
O    0.45373929   2.66923590   0.21265149
H    0.88253233   3.36475957   0.71126476
H   -0.05747187   3.13070192  -0.45213729
O   -0.48227700  -1.63873018  -1.94466623
H   -0.01326940  -0.80432313  -1.95001419
H   -1.05544547  -1.59677118  -2.71013942
O    1.29202138   0.30482613  -0.89453213
H    1.03023628   1.11232128  -0.45220647
H    2.04064546   0.55871090  -1.43428796
O   -1.32270760  -1.76276140   2.53013746
H   -1.83358777  -0.95677754   2.60512621
H   -1.31777604  -2.12700498   3.41531210
K    0.46891498  -2.27946933   0.46940768
