13
Energy:   -232.51273457
O   -2.62695460  -0.92729732  -0.46673591
H   -3.17730631  -1.21251032   0.26264629
H   -3.03214697  -1.31883827  -1.24052314
O    2.02341774  -2.36326606   0.81059751
H    2.31146870  -2.82855218   1.59594287
H    2.75140801  -2.45611338   0.19607217
O   -0.60574801   2.27604717   1.17582418
H   -1.24805021   2.19190563   1.88052265
H   -0.07300888   3.03106396   1.42556509
O    1.09495419   1.01032392  -1.71739867
H    2.00965626   1.28991382  -1.75456682
H    0.65773261   1.52937882  -2.39241803
K   -0.02593407  -0.24789931   0.37499090
