49
Energy:  -1224.29303104
O    0.07098971   0.36656255   0.28418548
H    0.22796356   0.83672418   1.10305000
H   -0.76939897  -0.07211466   0.41662800
O   -2.97563773   1.35552444  -1.17041022
H   -3.80350628   1.78704514  -1.38172846
H   -2.84936849   0.72028192  -1.87521861
O   -2.20547385  -2.60449908  -1.04680511
H   -2.59525303  -3.47819667  -1.01587683
H   -1.27304044  -2.75195473  -0.88851228
O    1.96251309   1.91350138  -1.25838410
H    1.90884782   2.57078556  -0.56460503
H    2.44635135   1.18762902  -0.86437687
O    0.36364739   1.76957515   2.61430004
H    0.94140207   1.15089997   3.06114722
H   -0.51359539   1.54651360   2.92562062
O   -0.54400409   2.61759203  -1.48457389
H   -0.32303047   3.15735362  -0.72558777
H   -1.42470334   2.29172065  -1.29907854
O   -2.20470607  -0.60940966  -2.92416351
H   -2.23605933  -1.37889300  -2.35570576
H   -2.55282851  -0.91540051  -3.76166707
O    0.44007951  -2.81055951  -0.61181740
H    0.89779225  -2.52836114   0.18007589
H    0.99817234  -2.51327587  -1.33041790
O    0.32059132   0.46228667  -2.71201176
H   -0.53714982   0.06628505  -2.86594262
H    0.93051164  -0.27538231  -2.72058629
O    3.28908490  -0.31630119  -0.30551912
H    4.20708700  -0.29376003  -0.03534161
H    2.85302436  -0.83661018   0.36928575
O   -2.45619929  -0.54819500   0.77028975
H   -2.79875544   0.13635317   0.19558901
H   -2.49161007  -1.34534884   0.24158976
O    2.07750658  -2.01058289   1.50920725
H    2.46657746  -2.80773343   1.86893872
H    1.64372166  -1.59726695   2.25568727
O    2.11180345  -1.57215506  -2.44599674
H    2.72783826  -1.95326930  -3.07168427
H    2.66617607  -1.19303025  -1.76396505
O    0.91913610   3.64157045   0.66648799
H    1.12760959   4.51738859   0.99162370
H    0.75147280   3.12627142   1.45553030
O    0.88970315  -0.80514256   3.68074845
H    1.04846279  -1.03714977   4.59573473
H   -0.05544906  -0.66257025   3.62983411
O   -1.74733048   0.02870847   3.35884875
H   -2.50329766   0.00761988   3.94562020
H   -2.09643065  -0.23681878   2.50805135
H    0.56237368   1.59736298  -1.76054058
