49
Energy:  -1232.39151722
O   -0.01014415   0.17546088   0.29529374
H    0.11229258   0.67345195   1.10353008
H   -0.92427831  -0.10700951   0.32359682
O   -3.12127056   1.26049340  -1.36584038
H   -3.94859299   1.64833874  -1.65105161
H   -2.87819798   0.66525115  -2.07494844
O   -2.26348113  -2.62169312  -1.33370144
H   -1.36165393  -2.86694765  -1.12684457
H   -2.72694156  -3.45551705  -1.41227573
O    1.83329597   2.12867109  -0.94219203
H    1.65660220   2.74784421  -0.23392950
H    2.45539285   1.50561797  -0.56664959
O    0.36538296   1.37459533   2.68207811
H    1.19474200   0.94171382   2.88458496
H   -0.30137768   0.81223734   3.07630595
O   -0.70707868   2.55361438  -1.35222071
H   -0.61892716   3.07810136  -0.55637237
H   -1.60181845   2.21516271  -1.31870877
O   -1.97282033  -0.54415981  -3.09404878
H   -2.08216504  -1.33847500  -2.57123049
H   -2.20331681  -0.80929030  -3.98444703
O    0.29808424  -3.07851849  -0.66628116
H    0.48580731  -3.01687070   0.27030383
H    1.00055128  -2.58115126  -1.08508631
O    0.49921585   0.56687321  -2.58643292
H   -0.32525778   0.15645119  -2.84725633
H    1.08240028  -0.16732388  -2.39386501
O    3.48457683   0.20207615   0.10997080
H    4.42828454   0.36173868   0.12244013
H    3.25666056   0.03896981   1.02522068
O   -2.57121071  -0.64616114   0.57734869
H   -2.97322085   0.04238252   0.04770039
H   -2.59329820  -1.42277460   0.01822837
O    2.62620546  -0.26552600   2.68558875
H    3.14705051  -0.56120108   3.43226708
H    2.04085564  -0.99874926   2.49590192
O    2.22202702  -1.40401543  -1.77417851
H    2.73132327  -0.95862564  -1.09706914
H    2.87735928  -1.83479656  -2.32299459
O    0.44372911   3.56768405   0.99689209
H    0.49155716   4.43181398   1.40582213
H    0.37689357   2.95784390   1.73164365
O    0.67184208  -1.93722940   1.84339815
H    0.48968581  -1.26859797   1.18310810
H   -0.04125554  -1.85035724   2.47599349
O   -1.50727722  -0.67285130   3.15957327
H   -2.11185189  -0.86060178   3.87753641
H   -2.05505409  -0.68670704   2.37472909
H    0.52985762   1.67931393  -1.60609695
