49
Energy:  -1226.97414453
O   -0.00986518   0.20554898  -0.00872538
H    0.18620041   0.62299609   0.83004040
H   -0.90939402  -0.10830630   0.08387361
O   -0.63906515   1.67995302  -2.52710148
H   -1.29423346   1.95318220  -1.88497055
H   -1.07386708   0.99714195  -3.03793234
O   -2.24983760  -2.18043685  -1.48469220
H   -1.47857875  -2.48687499  -1.00773592
H   -2.81235379  -2.95194460  -1.55239141
O    1.66098043   2.09052027  -1.30114034
H    1.17367312   2.64667990  -0.69331644
H    2.25549270   1.58882611  -0.74338593
O    0.27644761   1.44421718   2.41066214
H   -0.46437054   0.96520300   2.78209951
H    1.04653472   0.94819813   2.68844408
O   -2.37661068   2.37959036  -0.55168401
H   -1.65923202   2.81336503  -0.08968917
H   -3.03318840   3.06540705  -0.67331051
O   -1.25973294  -0.78385004  -3.62795506
H   -1.65295502  -1.32657339  -2.94453747
H   -1.62004639  -1.12845119  -4.44505732
O   -0.05252833  -2.89626971  -0.06816145
H    0.77980272  -2.59959058  -0.43618097
H    0.01353193  -2.69733963   0.86580574
O    1.25708652  -0.08907907  -2.72023150
H    0.54588528  -0.53039492  -3.18462893
H    1.64819580  -0.77209233  -2.17547626
O    3.25529147   0.38909291   0.24405613
H    4.17523660   0.63243526   0.34758052
H    2.96993571   0.14884179   1.12557944
O   -2.66012485  -0.24202424   0.45099398
H   -2.79446238   0.60934478   0.03463347
H   -2.75429474  -0.87487664  -0.26094824
O    2.30931797  -0.39072560   2.71254241
H    2.81859251  -0.57538456   3.50170168
H    1.67438773  -1.10538379   2.66397175
O    2.37452386  -1.89787408  -1.04440768
H    2.75851838  -1.18826784  -0.52939405
H    3.11482360  -2.46433105  -1.26192697
O   -0.01041849   3.40121729   0.51009125
H    0.16358467   4.29250650   0.81267727
H    0.10308323   2.85682758   1.28918627
O    0.23136689  -2.20562888   2.62397853
H    0.08769738  -2.98552073   3.16003788
H   -0.51187782  -1.63661643   2.82408849
O   -1.76031772  -0.34649596   3.02804220
H   -2.46613890  -0.29906700   3.67286684
H   -2.20766038  -0.34212597   2.18181688
H    0.76901725   1.20681749  -2.08746290
