49
Energy:  -1229.12437007
O   -0.16168306   0.16711802   0.08815154
H    0.26551171   0.46212215   0.89233376
H   -1.08930149   0.10831196   0.31683854
O   -2.79701192   1.17147402  -1.67683074
H   -3.55608389   1.57793690  -2.09495694
H   -2.50522212   0.50803862  -2.30208590
O   -2.09150980  -2.82662625   0.51848984
H   -1.44340436  -2.83758267  -0.18583334
H   -2.47701908  -3.70263460   0.50352939
O    2.03867908   1.97666248  -0.93100670
H    1.85753223   2.58729718  -0.21648383
H    2.54295191   1.27272492  -0.52306961
O    0.72948426   1.22498066   2.44846621
H    1.35128157   0.52940392   2.66241234
H   -0.07345493   0.97870325   2.90766981
O   -0.42125685   2.61282347  -1.53901632
H   -0.35881891   3.09264773  -0.71312163
H   -1.29389164   2.21978563  -1.52284131
O   -1.54607988  -0.70909608  -3.24581195
H   -1.16840967  -1.36103661  -2.65541327
H   -1.80454200  -1.20815747  -4.02064542
O   -0.18669575  -2.13323402  -1.35012400
H   -0.10924459  -1.36822008  -0.78004782
H    0.69986498  -2.27640571  -1.68140001
O    0.79001924   0.66628126  -2.82077081
H   -0.01591446   0.25861147  -3.13780088
H    1.40984617  -0.05861685  -2.73972048
O    3.34822485  -0.23153014   0.08697926
H    4.28166901  -0.13565043   0.27597907
H    2.97591648  -0.59049857   0.89243565
O   -2.75304588  -0.12322426   0.80702538
H   -3.04916479   0.26994746  -0.01392616
H   -2.78805748  -1.06642995   0.64774867
O    2.23564414  -1.10213991   2.45223113
H    2.71286277  -1.50752371   3.17621884
H    1.39078347  -1.55190926   2.43999099
O    2.41382341  -1.46639505  -2.20405220
H    2.83207283  -1.15751285  -1.40037872
H    3.12029151  -1.88333983  -2.69729831
O    0.68202338   3.49726690   0.90904226
H    0.78122194   4.32394315   1.38126878
H    0.66869684   2.82937743   1.59459161
O   -0.30597300  -2.04301410   2.52555199
H   -0.82750167  -1.37543866   2.97117821
H   -0.91235554  -2.44607205   1.90420156
O   -1.69174405   0.22710600   3.33555840
H   -2.31211843   0.37517302   4.04931159
H   -2.23427304   0.20210260   2.54735223
H    0.77933986   1.72177261  -1.75564292
