49
Energy:  -1223.81901307
O    0.71418637  -0.11053075   2.44261518
H   -0.16611384  -0.31737406   2.75649292
H    1.14419538  -0.96131718   2.35609034
O   -2.22970885  -2.96884534   1.35715183
H   -2.17056474  -2.24329045   1.97868536
H   -2.56094170  -3.70233746   1.87532743
O    1.41407106   3.17935609   0.04586346
H    1.18276998   4.01237976   0.45672016
H    1.99831500   2.75568542   0.67466711
O    1.64170207  -0.08289242  -2.18471642
H    2.17509291  -0.32565369  -1.42788551
H    1.94922943   0.79124797  -2.42458585
O    1.74813199   2.63765563  -2.64182093
H    2.20224332   3.32129190  -3.13442239
H    1.70142351   2.97676897  -1.74792368
O   -0.66289507  -1.34842709  -1.98859848
H   -1.60086374  -1.40268937  -1.80556237
H   -0.26372840  -1.97341358  -1.38337976
O    0.18820264  -2.93852380  -0.00895981
H    0.89535636  -2.85842473   0.63115705
H   -0.59571673  -3.09448680   0.51770689
O   -0.56215860   1.09386663  -2.93875126
H   -1.37577764   1.47439965  -2.60791818
H    0.02921481   1.84008666  -3.03706201
O   -2.76531603   0.66495029   0.55261155
H   -1.83727009   0.78591540   0.35178816
H   -3.02372044  -0.10146849   0.04069236
O    2.80985220   1.56208374   1.79995261
H    2.09861994   1.06668907   2.20611100
H    3.36571120   1.82822436   2.53236082
O    3.31943315  -0.48677936   0.00093105
H    3.25815155   0.27043696   0.58325386
H    4.23452012  -0.50040166  -0.27953665
O   -2.79285347   2.11369726  -1.78532531
H   -2.97320666   1.75258382  -0.91739579
H   -3.57484647   2.62179555  -2.00109119
O   -0.12589163   0.87880988   0.04680945
H    0.20108805   0.47649723   0.85145885
H    0.28260238   1.74426482   0.02804161
O   -3.17579161  -1.63141136  -0.87443625
H   -3.95511580  -2.02242629  -1.26939571
H   -2.93850170  -2.23121677  -0.16721718
O   -2.00179684  -0.63949997   2.82327157
H   -2.49388471  -0.38869808   3.60505146
H   -2.37241747  -0.10161566   2.12359117
O    2.20420424  -2.31631988   1.73899258
H    2.70960669  -1.80703956   1.10540457
H    2.82223603  -2.96739423   2.07121349
H    0.09021605  -0.12601067  -2.30843458
