
                                 *****************
                                 * O   R   C   A *
                                 *****************

           --- An Ab Initio, DFT and Semiempirical electronic structure package ---

                  #######################################################
                  #                        -***-                        #
                  #          Department of theory and spectroscopy      #
                  #               Directorship: Frank Neese             #
                  #        Max Planck Institute fuer Kohlenforschung    #
                  #                Kaiser Wilhelm Platz 1               #
                  #                 D-45470 Muelheim/Ruhr               #
                  #                      Germany                        #
                  #                                                     #
                  #                  All rights reserved                #
                  #                        -***-                        #
                  #######################################################


                         Program Version 4.2.0 -  RELEASE  -


 With contributions from (in alphabetic order):
   Daniel Aravena         : Magnetic Suceptibility
   Michael Atanasov       : Ab Initio Ligand Field Theory (pilot matlab implementation)
   Alexander A. Auer      : GIAO ZORA, VPT2
   Ute Becker             : Parallelization
   Giovanni Bistoni       : ED, misc. LED, open-shell LED, HFLED
   Martin Brehm           : Molecular dynamics
   Dmytro Bykov           : SCF Hessian
   Vijay G. Chilkuri      : MRCI spin determinant printing, contributions to CSF-ICE
   Dipayan Datta          : RHF DLPNO-CCSD density
   Achintya Kumar Dutta   : EOM-CC, STEOM-CC
   Dmitry Ganyushin       : Spin-Orbit,Spin-Spin,Magnetic field MRCI
   Miquel Garcia          : C-PCM Hessian, Gaussian charge scheme
   Yang Guo               : DLPNO-NEVPT2, CIM, IAO-localization
   Andreas Hansen         : Spin unrestricted coupled pair/coupled cluster methods
   Benjamin Helmich-Paris : CASSCF linear response (MC-RPA)
   Lee Huntington         : MR-EOM, pCC
   Robert Izsak           : Overlap fitted RIJCOSX, COSX-SCS-MP3, EOM
   Christian Kollmar      : KDIIS, OOCD, Brueckner-CCSD(T), CCSD density
   Simone Kossmann        : Meta GGA functionals, TD-DFT gradient, OOMP2, MP2 Hessian
   Martin Krupicka        : AUTO-CI
   Lucas Lang             : DCDCAS
   Dagmar Lenk            : GEPOL surface, SMD
   Dimitrios Liakos       : Extrapolation schemes; Compound Job, initial MDCI parallelization
   Dimitrios Manganas     : Further ROCIS development; embedding schemes
   Dimitrios Pantazis     : SARC Basis sets
   Taras Petrenko         : DFT Hessian,TD-DFT gradient, ASA, ECA, R-Raman, ABS, FL, XAS/XES, NRVS
   Peter Pinski           : DLPNO-MP2, DLPNO-MP2 Gradient
   Christoph Reimann      : Effective Core Potentials
   Marius Retegan         : Local ZFS, SOC
   Christoph Riplinger    : Optimizer, TS searches, QM/MM, DLPNO-CCSD(T), (RO)-DLPNO pert. Triples
   Tobias Risthaus        : Range-separated hybrids, TD-DFT gradient, RPA, STAB
   Michael Roemelt        : Original ROCIS implementation
   Masaaki Saitow         : Open-shell DLPNO-CCSD energy and density
   Barbara Sandhoefer     : DKH picture change effects
   Avijit Sen             : IP-ROCIS
   Kantharuban Sivalingam : CASSCF convergence, NEVPT2, FIC-MRCI
   Bernardo de Souza      : ESD, SOC TD-DFT
   Georgi Stoychev        : AutoAux, RI-MP2 NMR
   Willem Van den Heuvel  : Paramagnetic NMR
   Boris Wezisla          : Elementary symmetry handling
   Frank Wennmohs         : Technical directorship


 We gratefully acknowledge several colleagues who have allowed us to
 interface, adapt or use parts of their codes:
   Stefan Grimme, W. Hujo, H. Kruse,             : VdW corrections, initial TS optimization,
                  C. Bannwarth                     DFT functionals, gCP, sTDA/sTD-DF
   Ed Valeev, F. Pavosevic, A. Kumar             : LibInt (2-el integral package), F12 methods
   Garnet Chan, S. Sharma, J. Yang, R. Olivares  : DMRG
   Ulf Ekstrom                                   : XCFun DFT Library
   Mihaly Kallay                                 : mrcc  (arbitrary order and MRCC methods)
   Andreas Klamt, Michael Diedenhofen            : otool_cosmo (COSMO solvation model)
   Jiri Pittner, Ondrej Demel                    : Mk-CCSD
   Frank Weinhold                                : gennbo (NPA and NBO analysis)
   Christopher J. Cramer and Donald G. Truhlar   : smd solvation model
   Lars Goerigk                                  : TD-DFT with DH, B97 family of functionals
   V. Asgeirsson, H. Jonsson                     : NEB implementation
   FAccTs GmbH                                   : IRC, NEB, NEB-TS, Multilevel, MM, QM/MM, CI optimization
   S Lehtola, MJT Oliveira, MAL Marques          : LibXC Library


 Your calculation uses the libint2 library for the computation of 2-el integrals
 For citations please refer to: http://libint.valeyev.net

 Your ORCA version has been built with support for libXC version: 4.2.3
 For citations please refer to: https://tddft.org/programs/libxc/

 This ORCA versions uses:
   CBLAS   interface :  Fast vector & matrix operations
   LAPACKE interface :  Fast linear algebra routines
   SCALAPACK package :  Parallel linear algebra routines


----- Orbital basis set information -----
Your calculation utilizes the basis: def2-TZVP
   F. Weigend and R. Ahlrichs, Phys. Chem. Chem. Phys. 7, 3297 (2005).

================================================================================
                                        WARNINGS
                       Please study these warnings very carefully!
================================================================================


WARNING: The frozen-core approximation for MP2-gradient calculations is turned on by default.

INFO   : the flag for use of LIBINT has been found!

================================================================================
                                       INPUT FILE
================================================================================
NAME = 12meoh.boyd.etal.mol6,8-orca.engrad-mp2.def2tzvp.frozencore.inp
|  1> # 12meoh.boyd.etal.mol6,8
|  2> ! MP2 def2-TZVP EnGrad TightSCF
|  3> 
|  4> %pal
|  5>     nprocs 6
|  6> end
|  7> 
|  8> %maxcore 8000
|  9> 
| 10> %scf
| 11>     ConvForced true
| 12> end
| 13> 
| 14> *xyz 0 1
| 15> O   2.622209273  -1.703002590  -1.445859723
| 16> H   1.828551432  -1.986513781  -0.909754968
| 17> C   2.781117675  -2.615822239  -2.525472890
| 18> H   3.691063626  -2.339003544  -3.065143454
| 19> H   1.934727323  -2.559520367  -3.223226661
| 20> H   2.879948338  -3.653846211  -2.177750170
| 21> O   3.570084754   2.361662577  -0.202416728
| 22> H   3.393280933   1.755669977   0.560634073
| 23> C   4.368082883   1.644741793  -1.143112807
| 24> H   4.552851717   2.311801738  -1.989632421
| 25> H   3.862427494   0.740851663  -1.508095690
| 26> H   5.333949674   1.357289092  -0.706288100
| 27> *
| 28> 
| 29>                          ****END OF INPUT****
================================================================================

                     *******************************
                     * Energy+Gradient Calculation *
                     *******************************

---------------------------------
CARTESIAN COORDINATES (ANGSTROEM)
---------------------------------
  O      2.622209   -1.703003   -1.445860
  H      1.828551   -1.986514   -0.909755
  C      2.781118   -2.615822   -2.525473
  H      3.691064   -2.339004   -3.065143
  H      1.934727   -2.559520   -3.223227
  H      2.879948   -3.653846   -2.177750
  O      3.570085    2.361663   -0.202417
  H      3.393281    1.755670    0.560634
  C      4.368083    1.644742   -1.143113
  H      4.552852    2.311802   -1.989632
  H      3.862427    0.740852   -1.508096
  H      5.333950    1.357289   -0.706288

----------------------------
CARTESIAN COORDINATES (A.U.)
----------------------------
  NO LB      ZA    FRAG     MASS         X           Y           Z
   0 O     8.0000    0    15.999    4.955257   -3.218209   -2.732279
   1 H     1.0000    0     1.008    3.455461   -3.753967   -1.719188
   2 C     6.0000    0    12.011    5.255551   -4.943188   -4.772452
   3 H     1.0000    0     1.008    6.975099   -4.420076   -5.792282
   4 H     1.0000    0     1.008    3.656105   -4.836793   -6.091016
   5 H     1.0000    0     1.008    5.442314   -6.904769   -4.115351
   6 O     8.0000    0    15.999    6.746482    4.462895   -0.382512
   7 H     1.0000    0     1.008    6.412372    3.317735    1.059445
   8 C     6.0000    0    12.011    8.254480    3.108112   -2.160170
   9 H     1.0000    0     1.008    8.603643    4.368672   -3.759860
  10 H     1.0000    0     1.008    7.298930    1.400007   -2.849888
  11 H     1.0000    0     1.008   10.079704    2.564905   -1.334691

--------------------------------
INTERNAL COORDINATES (ANGSTROEM)
--------------------------------
 O      0   0   0     0.000000000000     0.00000000     0.00000000
 H      1   0   0     0.998839162396     0.00000000     0.00000000
 C      1   2   0     1.422693284649   108.29633387     0.00000000
 H      3   1   2     1.093560488172   107.75927006   183.87350364
 H      3   1   2     1.098365537375   111.29143095    65.22072708
 H      3   1   2     1.099168938972   112.08005485   303.40692948
 O      1   2   3     4.355011059586   106.53567942   165.33886644
 H      7   1   2     0.990319719728    67.04662525    45.55598655
 C      7   1   2     1.426774522293    57.62272869   176.46068592
 H      9   7   1     1.093482486887   107.36091639   132.53071461
 H      9   7   1     1.098142633914   112.03586382    13.11077501
 H      9   7   1     1.098336714270   111.16969712   251.17908521

---------------------------
INTERNAL COORDINATES (A.U.)
---------------------------
 O      0   0   0     0.000000000000     0.00000000     0.00000000
 H      1   0   0     1.887532468764     0.00000000     0.00000000
 C      1   2   0     2.688500680556   108.29633387     0.00000000
 H      3   1   2     2.066529833522   107.75927006   183.87350364
 H      3   1   2     2.075610060577   111.29143095    65.22072708
 H      3   1   2     2.077128269569   112.08005485   303.40692948
 O      1   2   3     8.229778212816   106.53567942   165.33886644
 H      7   1   2     1.871433055307    67.04662525    45.55598655
 C      7   1   2     2.696213101990    57.62272869   176.46068592
 H      9   7   1     2.066382432455   107.36091639   132.53071461
 H      9   7   1     2.075188834080   112.03586382    13.11077501
 H      9   7   1     2.075555592802   111.16969712   251.17908521

---------------------
BASIS SET INFORMATION
---------------------
There are 3 groups of distinct atoms

 Group   1 Type O   : 11s6p2d1f contracted to 5s3p2d1f pattern {62111/411/11/1}
 Group   2 Type H   : 5s1p contracted to 3s1p pattern {311/1}
 Group   3 Type C   : 11s6p2d1f contracted to 5s3p2d1f pattern {62111/411/11/1}

Atom   0O    basis set group =>   1
Atom   1H    basis set group =>   2
Atom   2C    basis set group =>   3
Atom   3H    basis set group =>   2
Atom   4H    basis set group =>   2
Atom   5H    basis set group =>   2
Atom   6O    basis set group =>   1
Atom   7H    basis set group =>   2
Atom   8C    basis set group =>   3
Atom   9H    basis set group =>   2
Atom  10H    basis set group =>   2
Atom  11H    basis set group =>   2


           ************************************************************
           *        Program running with 6 parallel MPI-processes     *
           *              working on a common directory               *
           ************************************************************
------------------------------------------------------------------------------
                           ORCA GTO INTEGRAL CALCULATION
------------------------------------------------------------------------------

                         BASIS SET STATISTICS AND STARTUP INFO

 # of primitive gaussian shells          ...  128
 # of primitive gaussian functions       ...  248
 # of contracted shells                  ...   76
 # of contracted basis functions         ...  172
 Highest angular momentum                ...    3
 Maximum contraction depth               ...    6
 Integral package used                   ... LIBINT
 Integral threshhold            Thresh   ...  2.500e-11
 Primitive cut-off              TCut     ...  2.500e-12


------------------------------ INTEGRAL EVALUATION ----------------------------


 * One electron integrals 
 Pre-screening matrix                    ... done
 Shell pair data                         ... done (   0.001 sec)



           ************************************************************
           *        Program running with 6 parallel MPI-processes     *
           *              working on a common directory               *
           ************************************************************
-------------------------------------------------------------------------------
                                 ORCA SCF
-------------------------------------------------------------------------------

------------
SCF SETTINGS
------------
Hamiltonian:
 Ab initio Hamiltonian  Method          .... Hartree-Fock(GTOs)


General Settings:
 Integral files         IntName         .... 12meoh.boyd.etal.mol6,8-orca.engrad-mp2.def2tzvp.frozencore
 Hartree-Fock type      HFTyp           .... RHF
 Total Charge           Charge          ....    0
 Multiplicity           Mult            ....    1
 Number of Electrons    NEL             ....   36
 Basis Dimension        Dim             ....  172
 Nuclear Repulsion      ENuc            ....    117.7019274924 Eh

Convergence Acceleration:
 DIIS                   CNVDIIS         .... on
   Start iteration      DIISMaxIt       ....    12
   Startup error        DIISStart       ....  0.200000
   # of expansion vecs  DIISMaxEq       ....     5
   Bias factor          DIISBfac        ....   1.050
   Max. coefficient     DIISMaxC        ....  10.000
 Newton-Raphson         CNVNR           .... off
 SOSCF                  CNVSOSCF        .... on
   Start iteration      SOSCFMaxIt      ....   150
   Startup grad/error   SOSCFStart      ....  0.003300
 Level Shifting         CNVShift        .... on
   Level shift para.    LevelShift      ....    0.2500
   Turn off err/grad.   ShiftErr        ....    0.0010
 Zerner damping         CNVZerner       .... off
 Static damping         CNVDamp         .... on
   Fraction old density DampFac         ....    0.7000
   Max. Damping (<1)    DampMax         ....    0.9800
   Min. Damping (>=0)   DampMin         ....    0.0000
   Turn off err/grad.   DampErr         ....    0.1000
 Fernandez-Rico         CNVRico         .... off

SCF Procedure:
 Maximum # iterations   MaxIter         ....   125
 SCF integral mode      SCFMode         .... Direct
   Integral package                     .... LIBINT
 Reset frequency        DirectResetFreq ....    20
 Integral Threshold     Thresh          ....  2.500e-11 Eh
 Primitive CutOff       TCut            ....  2.500e-12 Eh

Convergence Tolerance:
 Convergence Check Mode ConvCheckMode   .... Total+1el-Energy
 Convergence forced     ConvForced      .... 1
 Energy Change          TolE            ....  1.000e-08 Eh
 1-El. energy change                    ....  1.000e-05 Eh
 Orbital Gradient       TolG            ....  1.000e-05
 Orbital Rotation angle TolX            ....  1.000e-05
 DIIS Error             TolErr          ....  5.000e-07


Diagonalization of the overlap matrix:
Smallest eigenvalue                        ... 1.177e-03
Time for diagonalization                   ...    0.005 sec
Threshold for overlap eigenvalues          ... 1.000e-08
Number of eigenvalues below threshold      ... 0
Time for construction of square roots      ...    0.002 sec
Total time needed                          ...    0.006 sec

-------------------
DFT GRID GENERATION
-------------------

General Integration Accuracy     IntAcc      ...  4.340
Radial Grid Type                 RadialGrid  ... Gauss-Chebyshev
Angular Grid (max. acc.)         AngularGrid ... Lebedev-110
Angular grid pruning method      GridPruning ... 3 (G Style)
Weight generation scheme         WeightScheme... Becke
Basis function cutoff            BFCut       ...    1.0000e-11
Integration weight cutoff        WCut        ...    1.0000e-14
Grids for H and He will be reduced by one unit

# of grid points (after initial pruning)     ...  13096 (   0.0 sec)
# of grid points (after weights+screening)   ...  12542 (   0.0 sec)
nearest neighbour list constructed           ...    0.0 sec
Grid point re-assignment to atoms done       ...    0.0 sec
Grid point division into batches done        ...    0.0 sec
Reduced shell lists constructed in    0.0 sec

Total number of grid points                  ...    12542
Total number of batches                      ...      201
Average number of points per batch           ...       62
Average number of grid points per atom       ...     1045
Average number of shells per batch           ...    51.29 (67.48%)
Average number of basis functions per batch  ...   112.66 (65.50%)
Average number of large shells per batch     ...    41.23 (80.39%)
Average number of large basis fcns per batch ...    91.46 (81.18%)
Maximum spatial batch extension              ...  13.88, 17.58, 14.29 au
Average spatial batch extension              ...   0.57,  0.61,  0.56 au

Time for grid setup =    0.029 sec

------------------------------
INITIAL GUESS: MODEL POTENTIAL
------------------------------
Loading Hartree-Fock densities                     ... done
Calculating cut-offs                               ... done
Setting up the integral package                    ... done
Initializing the effective Hamiltonian             ... done
Starting the Coulomb interaction                   ... done (   0.0 sec)
Reading the grid                                   ... done
Mapping shells                                     ... done
Starting the XC term evaluation                    ... done (   0.0 sec)
Transforming the Hamiltonian                       ... done (   0.0 sec)
Diagonalizing the Hamiltonian                      ... done (   0.0 sec)
Back transforming the eigenvectors                 ... done (   0.0 sec)
Now organizing SCF variables                       ... done
                      ------------------
                      INITIAL GUESS DONE (   0.1 sec)
                      ------------------
--------------
SCF ITERATIONS
--------------
ITER       Energy         Delta-E        Max-DP      RMS-DP      [F,P]     Damp
               ***  Starting incremental Fock matrix formation  ***
  0   -229.9422947442   0.000000000000 0.03631345  0.00094099  0.2890087 0.7000
  1   -230.0286250668  -0.086330322645 0.02485792  0.00069764  0.2179189 0.7000
                               ***Turning on DIIS***
  2   -230.0784981703  -0.049873103475 0.01454454  0.00043000  0.1627910 0.7000
  3   -230.6613242659  -0.582826095615 0.00748556  0.00023945  0.1199281 0.7000
  4   -230.5603617994   0.100962466511 0.01597250  0.00057237  0.0845430 0.0000
  5   -230.2002112150   0.360150584381 0.00187301  0.00007758  0.0055349 0.0000
                      *** Initiating the SOSCF procedure ***
                           *** Shutting down DIIS ***
                      *** Re-Reading the Fockian *** 
                      *** Removing any level shift *** 
ITER      Energy       Delta-E        Grad      Rot      Max-DP    RMS-DP
  6   -230.18358503   0.0166261875  0.000626  0.000626  0.000790  0.000040
               *** Restarting incremental Fock matrix formation ***
  7   -230.17996159   0.0036234375  0.000354  0.000409  0.000456  0.000022
  8   -230.17996633  -0.0000047404  0.000149  0.000284  0.000339  0.000015
  9   -230.17996749  -0.0000011600  0.000030  0.000029  0.000074  0.000003
 10   -230.17996753  -0.0000000350  0.000006  0.000012  0.000020  0.000001
                 **** Energy Check signals convergence ****
              ***Rediagonalizing the Fockian in SOSCF/NRSCF***

               *****************************************************
               *                     SUCCESS                       *
               *           SCF CONVERGED AFTER  11 CYCLES          *
               *****************************************************


----------------
TOTAL SCF ENERGY
----------------

Total Energy       :         -230.17996753 Eh           -6263.51535 eV

Components:
Nuclear Repulsion  :          117.70192749 Eh            3202.83228 eV
Electronic Energy  :         -347.88189502 Eh           -9466.34762 eV
One Electron Energy:         -548.14968570 Eh          -14915.91126 eV
Two Electron Energy:          200.26779068 Eh            5449.56363 eV

Virial components:
Potential Energy   :         -459.92648798 Eh          -12515.23600 eV
Kinetic Energy     :          229.74652045 Eh            6251.72065 eV
Virial Ratio       :            2.00188663


---------------
SCF CONVERGENCE
---------------

  Last Energy change         ...   -2.6731e-09  Tolerance :   1.0000e-08
  Last MAX-Density change    ...    4.6319e-06  Tolerance :   1.0000e-07
  Last RMS-Density change    ...    1.6301e-07  Tolerance :   5.0000e-09
  Last Orbital Gradient      ...    1.9210e-06  Tolerance :   1.0000e-05
  Last Orbital Rotation      ...    5.3246e-06  Tolerance :   1.0000e-05

             **** THE GBW FILE WAS UPDATED (12meoh.boyd.etal.mol6,8-orca.engrad-mp2.def2tzvp.frozencore.gbw) ****
             **** DENSITY FILE WAS UPDATED (12meoh.boyd.etal.mol6,8-orca.engrad-mp2.def2tzvp.frozencore.scfp) ****
             **** ENERGY FILE WAS UPDATED (12meoh.boyd.etal.mol6,8-orca.engrad-mp2.def2tzvp.frozencore.en.tmp) ****
             **** THE GBW FILE WAS UPDATED (12meoh.boyd.etal.mol6,8-orca.engrad-mp2.def2tzvp.frozencore.gbw) ****
             **** DENSITY FILE WAS UPDATED (12meoh.boyd.etal.mol6,8-orca.engrad-mp2.def2tzvp.frozencore.scfp) ****
----------------
ORBITAL ENERGIES
----------------

  NO   OCC          E(Eh)            E(eV) 
   0   2.0000     -20.565918      -559.6271 
   1   2.0000     -20.544476      -559.0436 
   2   2.0000     -11.277731      -306.8827 
   3   2.0000     -11.255521      -306.2783 
   4   2.0000      -1.354012       -36.8445 
   5   2.0000      -1.333766       -36.2936 
   6   2.0000      -0.925860       -25.1939 
   7   2.0000      -0.905046       -24.6276 
   8   2.0000      -0.688778       -18.7426 
   9   2.0000      -0.668057       -18.1787 
  10   2.0000      -0.623731       -16.9726 
  11   2.0000      -0.604337       -16.4448 
  12   2.0000      -0.596530       -16.2324 
  13   2.0000      -0.576379       -15.6841 
  14   2.0000      -0.507909       -13.8209 
  15   2.0000      -0.487077       -13.2541 
  16   2.0000      -0.456459       -12.4209 
  17   2.0000      -0.435461       -11.8495 
  18   0.0000       0.123767         3.3679 
  19   0.0000       0.151801         4.1307 
  20   0.0000       0.171110         4.6561 
  21   0.0000       0.188337         5.1249 
  22   0.0000       0.219312         5.9678 
  23   0.0000       0.225885         6.1466 
  24   0.0000       0.241241         6.5645 
  25   0.0000       0.248172         6.7531 
  26   0.0000       0.269617         7.3366 
  27   0.0000       0.289759         7.8847 
  28   0.0000       0.324785         8.8379 
  29   0.0000       0.344162         9.3651 
  30   0.0000       0.358272         9.7491 
  31   0.0000       0.367527        10.0009 
  32   0.0000       0.458742        12.4830 
  33   0.0000       0.494282        13.4501 
  34   0.0000       0.515970        14.0403 
  35   0.0000       0.538128        14.6432 
  36   0.0000       0.560168        15.2429 
  37   0.0000       0.596253        16.2249 
  38   0.0000       0.613833        16.7033 
  39   0.0000       0.624292        16.9878 
  40   0.0000       0.641318        17.4512 
  41   0.0000       0.655793        17.8450 
  42   0.0000       0.676267        18.4022 
  43   0.0000       0.685274        18.6472 
  44   0.0000       0.695173        18.9166 
  45   0.0000       0.710917        19.3450 
  46   0.0000       0.727552        19.7977 
  47   0.0000       0.760067        20.6825 
  48   0.0000       0.777226        21.1494 
  49   0.0000       0.808152        21.9909 
  50   0.0000       0.880236        23.9524 
  51   0.0000       0.900563        24.5056 
  52   0.0000       0.917022        24.9534 
  53   0.0000       0.952383        25.9157 
  54   0.0000       0.962186        26.1824 
  55   0.0000       0.975298        26.5392 
  56   0.0000       1.084884        29.5212 
  57   0.0000       1.116770        30.3888 
  58   0.0000       1.136882        30.9361 
  59   0.0000       1.147931        31.2368 
  60   0.0000       1.245307        33.8865 
  61   0.0000       1.267640        34.4942 
  62   0.0000       1.537800        41.8457 
  63   0.0000       1.562121        42.5075 
  64   0.0000       1.654618        45.0244 
  65   0.0000       1.681181        45.7473 
  66   0.0000       1.702009        46.3140 
  67   0.0000       1.736519        47.2531 
  68   0.0000       1.766433        48.0671 
  69   0.0000       1.786423        48.6111 
  70   0.0000       1.789240        48.6877 
  71   0.0000       1.798903        48.9506 
  72   0.0000       1.811707        49.2990 
  73   0.0000       1.831266        49.8313 
  74   0.0000       1.840503        50.0826 
  75   0.0000       1.856546        50.5192 
  76   0.0000       1.859300        50.5941 
  77   0.0000       1.884301        51.2744 
  78   0.0000       1.959254        53.3140 
  79   0.0000       1.982011        53.9333 
  80   0.0000       2.149531        58.4917 
  81   0.0000       2.155090        58.6430 
  82   0.0000       2.201963        59.9185 
  83   0.0000       2.233230        60.7693 
  84   0.0000       2.248800        61.1930 
  85   0.0000       2.267604        61.7046 
  86   0.0000       2.293280        62.4033 
  87   0.0000       2.302269        62.6479 
  88   0.0000       2.315748        63.0147 
  89   0.0000       2.335735        63.5586 
  90   0.0000       2.439950        66.3944 
  91   0.0000       2.459744        66.9330 
  92   0.0000       2.543628        69.2157 
  93   0.0000       2.560482        69.6742 
  94   0.0000       2.568899        69.9033 
  95   0.0000       2.571697        69.9794 
  96   0.0000       2.588668        70.4412 
  97   0.0000       2.618968        71.2657 
  98   0.0000       2.637479        71.7695 
  99   0.0000       2.688974        73.1707 
 100   0.0000       2.695501        73.3483 
 101   0.0000       2.709136        73.7193 
 102   0.0000       2.787421        75.8496 
 103   0.0000       2.804813        76.3228 
 104   0.0000       2.833810        77.1119 
 105   0.0000       2.865369        77.9706 
 106   0.0000       2.914111        79.2970 
 107   0.0000       2.923181        79.5438 
 108   0.0000       3.050173        82.9994 
 109   0.0000       3.060830        83.2894 
 110   0.0000       3.101105        84.3854 
 111   0.0000       3.128048        85.1185 
 112   0.0000       3.148179        85.6663 
 113   0.0000       3.158944        85.9592 
 114   0.0000       3.248679        88.4010 
 115   0.0000       3.265068        88.8470 
 116   0.0000       3.352874        91.2363 
 117   0.0000       3.372340        91.7660 
 118   0.0000       3.429096        93.3104 
 119   0.0000       3.453216        93.9668 
 120   0.0000       3.535130        96.1958 
 121   0.0000       3.565094        97.0111 
 122   0.0000       3.632708        98.8510 
 123   0.0000       3.662549        99.6630 
 124   0.0000       3.667013        99.7845 
 125   0.0000       3.682405       100.2033 
 126   0.0000       3.717393       101.1554 
 127   0.0000       3.737851       101.7121 
 128   0.0000       3.858815       105.0037 
 129   0.0000       3.877999       105.5257 
 130   0.0000       3.884082       105.6913 
 131   0.0000       3.897260       106.0498 
 132   0.0000       3.916459       106.5723 
 133   0.0000       3.933404       107.0334 
 134   0.0000       4.239728       115.3689 
 135   0.0000       4.270761       116.2133 
 136   0.0000       4.496875       122.3662 
 137   0.0000       4.516227       122.8928 
 138   0.0000       4.538060       123.4869 
 139   0.0000       4.557649       124.0199 
 140   0.0000       4.705833       128.0522 
 141   0.0000       4.748421       129.2111 
 142   0.0000       4.868689       132.4838 
 143   0.0000       4.883352       132.8828 
 144   0.0000       5.685458       154.7092 
 145   0.0000       5.706086       155.2705 
 146   0.0000       5.762161       156.7964 
 147   0.0000       5.785349       157.4274 
 148   0.0000       5.869181       159.7085 
 149   0.0000       5.891757       160.3228 
 150   0.0000       6.162027       167.6773 
 151   0.0000       6.165691       167.7770 
 152   0.0000       6.170108       167.8972 
 153   0.0000       6.181893       168.2179 
 154   0.0000       6.311269       171.7383 
 155   0.0000       6.337122       172.4419 
 156   0.0000       6.642689       180.7568 
 157   0.0000       6.684640       181.8983 
 158   0.0000       6.941203       188.8797 
 159   0.0000       6.962749       189.4660 
 160   0.0000       7.158552       194.7941 
 161   0.0000       7.169974       195.1049 
 162   0.0000       7.211705       196.2405 
 163   0.0000       7.229282       196.7188 
 164   0.0000       7.457604       202.9317 
 165   0.0000       7.471983       203.3230 
 166   0.0000       7.582209       206.3224 
 167   0.0000       7.607740       207.0171 
 168   0.0000      23.358585       635.6194 
 169   0.0000      23.377855       636.1438 
 170   0.0000      45.157314      1228.7930 
 171   0.0000      45.169162      1229.1154 

                    ********************************
                    * MULLIKEN POPULATION ANALYSIS *
                    ********************************

-----------------------
MULLIKEN ATOMIC CHARGES
-----------------------
   0 O :   -0.547296
   1 H :    0.330546
   2 C :   -0.074943
   3 H :    0.109266
   4 H :    0.094506
   5 H :    0.093744
   6 O :   -0.552686
   7 H :    0.326889
   8 C :   -0.083157
   9 H :    0.099330
  10 H :    0.120663
  11 H :    0.083136
Sum of atomic charges:    0.0000000

--------------------------------
MULLIKEN REDUCED ORBITAL CHARGES
--------------------------------
  0 O s       :     3.806449  s :     3.806449
      pz      :     1.473823  p :     4.706938
      px      :     1.579617
      py      :     1.653498
      dz2     :     0.003468  d :     0.032185
      dxz     :     0.006399
      dyz     :     0.010645
      dx2y2   :     0.006834
      dxy     :     0.004839
      f0      :     0.000218  f :     0.001723
      f+1     :     0.000181
      f-1     :     0.000371
      f+2     :     0.000463
      f-2     :     0.000280
      f+3     :     0.000045
      f-3     :     0.000164
  1 H s       :     0.627009  s :     0.627009
      pz      :     0.014172  p :     0.042445
      px      :     0.017154
      py      :     0.011119
  2 C s       :     3.193667  s :     3.193667
      pz      :     0.821246  p :     2.756986
      px      :     1.052584
      py      :     0.883155
      dz2     :     0.024611  d :     0.115332
      dxz     :     0.035953
      dyz     :     0.018239
      dx2y2   :     0.027419
      dxy     :     0.009109
      f0      :     0.001614  f :     0.008958
      f+1     :     0.000569
      f-1     :     0.001708
      f+2     :     0.002444
      f-2     :     0.001481
      f+3     :     0.000460
      f-3     :     0.000681
  3 H s       :     0.869536  s :     0.869536
      pz      :     0.005950  p :     0.021198
      px      :     0.011660
      py      :     0.003588
  4 H s       :     0.885263  s :     0.885263
      pz      :     0.007618  p :     0.020231
      px      :     0.009759
      py      :     0.002853
  5 H s       :     0.886190  s :     0.886190
      pz      :     0.003342  p :     0.020066
      px      :     0.003517
      py      :     0.013207
  6 O s       :     3.805020  s :     3.805020
      pz      :     1.381370  p :     4.713473
      px      :     1.744651
      py      :     1.587452
      dz2     :     0.003039  d :     0.032465
      dxz     :     0.003943
      dyz     :     0.014858
      dx2y2   :     0.004465
      dxy     :     0.006161
      f0      :     0.000112  f :     0.001728
      f+1     :     0.000341
      f-1     :     0.000400
      f+2     :     0.000314
      f-2     :     0.000366
      f+3     :     0.000087
      f-3     :     0.000107
  7 H s       :     0.630020  s :     0.630020
      pz      :     0.016756  p :     0.043090
      px      :     0.013322
      py      :     0.013012
  8 C s       :     3.195993  s :     3.195993
      pz      :     0.885211  p :     2.763931
      px      :     0.912392
      py      :     0.966328
      dz2     :     0.024577  d :     0.114358
      dxz     :     0.018190
      dyz     :     0.029385
      dx2y2   :     0.022641
      dxy     :     0.019565
      f0      :     0.000922  f :     0.008875
      f+1     :     0.000968
      f-1     :     0.001383
      f+2     :     0.002100
      f-2     :     0.001748
      f+3     :     0.001032
      f-3     :     0.000721
  9 H s       :     0.879670  s :     0.879670
      pz      :     0.010241  p :     0.021000
      px      :     0.003548
      py      :     0.007211
 10 H s       :     0.858916  s :     0.858916
      pz      :     0.004073  p :     0.020421
      px      :     0.005222
      py      :     0.011127
 11 H s       :     0.896760  s :     0.896760
      pz      :     0.004166  p :     0.020104
      px      :     0.012007
      py      :     0.003931


                     *******************************
                     * LOEWDIN POPULATION ANALYSIS *
                     *******************************

----------------------
LOEWDIN ATOMIC CHARGES
----------------------
   0 O :   -0.131037
   1 H :    0.192780
   2 C :   -0.335999
   3 H :    0.101485
   4 H :    0.089156
   5 H :    0.089258
   6 O :   -0.134325
   7 H :    0.185857
   8 C :   -0.335651
   9 H :    0.097968
  10 H :    0.094392
  11 H :    0.086117

-------------------------------
LOEWDIN REDUCED ORBITAL CHARGES
-------------------------------
  0 O s       :     3.395328  s :     3.395328
      pz      :     1.472090  p :     4.663242
      px      :     1.540903
      py      :     1.650250
      dz2     :     0.011401  d :     0.068372
      dxz     :     0.018362
      dyz     :     0.018725
      dx2y2   :     0.012463
      dxy     :     0.007421
      f0      :     0.000715  f :     0.004094
      f+1     :     0.000294
      f-1     :     0.000839
      f+2     :     0.000710
      f-2     :     0.000898
      f+3     :     0.000193
      f-3     :     0.000446
  1 H s       :     0.664842  s :     0.664842
      pz      :     0.040933  p :     0.142378
      px      :     0.064362
      py      :     0.037082
  2 C s       :     2.861991  s :     2.861991
      pz      :     0.924180  p :     2.992756
      px      :     1.088904
      py      :     0.979672
      dz2     :     0.085984  d :     0.423699
      dxz     :     0.115176
      dyz     :     0.093499
      dx2y2   :     0.099586
      dxy     :     0.029453
      f0      :     0.013422  f :     0.057553
      f+1     :     0.003456
      f-1     :     0.012634
      f+2     :     0.009853
      f-2     :     0.009658
      f+3     :     0.004259
      f-3     :     0.004271
  3 H s       :     0.839686  s :     0.839686
      pz      :     0.015971  p :     0.058830
      px      :     0.031044
      py      :     0.011815
  4 H s       :     0.852183  s :     0.852183
      pz      :     0.021156  p :     0.058661
      px      :     0.027388
      py      :     0.010117
  5 H s       :     0.852216  s :     0.852216
      pz      :     0.011348  p :     0.058526
      px      :     0.012563
      py      :     0.034615
  6 O s       :     3.395317  s :     3.395317
      pz      :     1.380446  p :     4.666661
      px      :     1.690953
      py      :     1.595262
      dz2     :     0.012632  d :     0.068240
      dxz     :     0.011114
      dyz     :     0.025536
      dx2y2   :     0.008402
      dxy     :     0.010557
      f0      :     0.000323  f :     0.004107
      f+1     :     0.000609
      f-1     :     0.000960
      f+2     :     0.000968
      f-2     :     0.000619
      f+3     :     0.000299
      f-3     :     0.000330
  7 H s       :     0.668224  s :     0.668224
      pz      :     0.055622  p :     0.145920
      px      :     0.037080
      py      :     0.053218
  8 C s       :     2.862822  s :     2.862822
      pz      :     0.963523  p :     2.996446
      px      :     0.996735
      py      :     1.036189
      dz2     :     0.076306  d :     0.419545
      dxz     :     0.074089
      dyz     :     0.111630
      dx2y2   :     0.080599
      dxy     :     0.076921
      f0      :     0.008810  f :     0.056838
      f+1     :     0.007001
      f-1     :     0.008500
      f+2     :     0.011117
      f-2     :     0.009857
      f+3     :     0.006708
      f-3     :     0.004845
  9 H s       :     0.843552  s :     0.843552
      pz      :     0.026049  p :     0.058480
      px      :     0.011416
      py      :     0.021016
 10 H s       :     0.844922  s :     0.844922
      pz      :     0.013646  p :     0.060686
      px      :     0.016158
      py      :     0.030882
 11 H s       :     0.855533  s :     0.855533
      pz      :     0.013607  p :     0.058351
      px      :     0.031732
      py      :     0.013012


                      *****************************
                      * MAYER POPULATION ANALYSIS *
                      *****************************

  NA   - Mulliken gross atomic population
  ZA   - Total nuclear charge
  QA   - Mulliken gross atomic charge
  VA   - Mayer's total valence
  BVA  - Mayer's bonded valence
  FA   - Mayer's free valence

  ATOM       NA         ZA         QA         VA         BVA        FA
  0 O      8.5473     8.0000    -0.5473     1.7924     1.7924     0.0000
  1 H      0.6695     1.0000     0.3305     0.8977     0.8977    -0.0000
  2 C      6.0749     6.0000    -0.0749     3.8930     3.8930     0.0000
  3 H      0.8907     1.0000     0.1093     0.9624     0.9624     0.0000
  4 H      0.9055     1.0000     0.0945     0.9613     0.9613     0.0000
  5 H      0.9063     1.0000     0.0937     0.9615     0.9615     0.0000
  6 O      8.5527     8.0000    -0.5527     1.7879     1.7879    -0.0000
  7 H      0.6731     1.0000     0.3269     0.9009     0.9009    -0.0000
  8 C      6.0832     6.0000    -0.0832     3.8818     3.8818    -0.0000
  9 H      0.9007     1.0000     0.0993     0.9610     0.9610     0.0000
 10 H      0.8793     1.0000     0.1207     0.9675     0.9675    -0.0000
 11 H      0.9169     1.0000     0.0831     0.9626     0.9626    -0.0000

  Mayer bond orders larger than 0.100000
B(  0-O ,  1-H ) :   0.8845 B(  0-O ,  2-C ) :   0.9281 B(  2-C ,  3-H ) :   0.9841 
B(  2-C ,  4-H ) :   0.9875 B(  2-C ,  5-H ) :   0.9848 B(  6-O ,  7-H ) :   0.8904 
B(  6-O ,  8-C ) :   0.9229 B(  8-C ,  9-H ) :   0.9831 B(  8-C , 10-H ) :   0.9827 
B(  8-C , 11-H ) :   0.9905 

-------
TIMINGS
-------

Total SCF time: 0 days 0 hours 0 min 5 sec 

Total time                  ....       5.475 sec
Sum of individual times     ....       5.270 sec  ( 96.3%)

Fock matrix formation       ....       5.074 sec  ( 92.7%)
Diagonalization             ....       0.029 sec  (  0.5%)
Density matrix formation    ....       0.004 sec  (  0.1%)
Population analysis         ....       0.004 sec  (  0.1%)
Initial guess               ....       0.110 sec  (  2.0%)
Orbital Transformation      ....       0.000 sec  (  0.0%)
Orbital Orthonormalization  ....       0.000 sec  (  0.0%)
DIIS solution               ....       0.010 sec  (  0.2%)
SOSCF solution              ....       0.011 sec  (  0.2%)


           ************************************************************
           *        Program running with 6 parallel MPI-processes     *
           *              working on a common directory               *
           ************************************************************

------------------------------------------------------------------------------
                                ORCA  MP2 
------------------------------------------------------------------------------

Freezing NCore=8 chemical core electrons
MP2 will be done in the AO integral direct mode
The Q1-step will be done using symmetric double matrices
Dimension of the basis                    ...  172
Memory devoted for MP2                    ... 8000 MB   
Memory needed for all in one shot         ...   60 MB
Number of MOs that can be treated together...  408      
MP2 density construction                  ... relaxed
The MP2 gradient is requested => amplitudes will be stored on disk
Total number of MOs              ...   14
Number of MOs treated per batch  ...    3 
Number of batches necessary      ...    1 
OPERATORS   0/  0 PASS   0
-----------------------------------------------
 MP2 CORRELATION ENERGY   :     -0.835392411 Eh
-----------------------------------------------


---------------------
MP2 DENSITY FORMATION
---------------------

Completing the external part of the density      ... done
Storing the unrelaxed density                    ... done

Calculating G(D)                                 ... done
Completing the Lagrangian                        ... done
Solving the Z-vector equations                   ... 

------------------------------------------------------------------------------
                           ORCA CP-SCF CALCULATION
------------------------------------------------------------------------------

Input orbitals are from        ... 12meoh.boyd.etal.mol6,8-orca.engrad-mp2.def2tzvp.frozencore.gbw
Input Perturbation             ... 12meoh.boyd.etal.mol6,8-orca.engrad-mp2.def2tzvp.frozencore.pin.tmp
Wavefunction output            ... 12meoh.boyd.etal.mol6,8-orca.engrad-mp2.def2tzvp.frozencore.pout.tmp
Perturbation mode              ... Real perturbation (singlet)
Solver                         ... POPLE
Max. number of iterations      ... 128
Convergence tolerance          ... 1.000e-08
Integral handling              ... Direct
Number of perturbations        ... 1
Number of operators            ... 1
Orbital ranges used for CP-SCF:
 Operator 0:  Orbitals   0... 17  to  18...171
Variables per vector in CP-SCF ... 2772
Number of vectors sought       ... 1
     CP-SCF ITERATION   0: 
     CP-SCF ITERATION   1:      0.000237213574
     CP-SCF ITERATION   2:      0.000011502231
     CP-SCF ITERATION   3:      0.000001772173
     CP-SCF ITERATION   4:      0.000000100011
     CP-SCF ITERATION   5:      0.000000003075
                                                 ... done
Finalizing the relaxed density                   ... done
Transforming P to the AO basis                   ... done
Storing the relaxed density                      ... done

------------------------------------
ENERGY WEIGHTED DENSITY FINALIZATION
------------------------------------

Gathering the parts of the W-matrix              ...                                                      done
Forming the Z-density                            ... done
Transforming Z to the AO basis                   ... done
Calculating G(Z)                                 ... done
Finalizing the W-matrix                          ...                                                      done
Transforming W to the AO basis and storing       ... done

                *********************************************
                * UNRELAXED MP2 DENSITY POPULATION ANALYSIS *
                *********************************************

------------------------------------------------------------------------------
                           ORCA POPULATION ANALYSIS
------------------------------------------------------------------------------
Input electron density              ... 12meoh.boyd.etal.mol6,8-orca.engrad-mp2.def2tzvp.frozencore.pmp2ur
BaseName (.gbw .S,...)              ... 12meoh.boyd.etal.mol6,8-orca.engrad-mp2.def2tzvp.frozencore

                    ********************************
                    * MULLIKEN POPULATION ANALYSIS *
                    ********************************

-----------------------
MULLIKEN ATOMIC CHARGES
-----------------------
   0 O :   -0.536260
   1 H :    0.327847
   2 C :   -0.090697
   3 H :    0.112026
   4 H :    0.096917
   5 H :    0.096148
   6 O :   -0.541645
   7 H :    0.324233
   8 C :   -0.098835
   9 H :    0.102185
  10 H :    0.122463
  11 H :    0.085619
Sum of atomic charges:    0.0000000

--------------------------------
MULLIKEN REDUCED ORBITAL CHARGES
--------------------------------
  0 O s       :     3.801333  s :     3.801333
      pz      :     1.462678  p :     4.670993
      px      :     1.568358
      py      :     1.639956
      dz2     :     0.009132  d :     0.059557
      dxz     :     0.011877
      dyz     :     0.015916
      dx2y2   :     0.012313
      dxy     :     0.010319
      f0      :     0.000597  f :     0.004378
      f+1     :     0.000556
      f-1     :     0.000754
      f+2     :     0.000837
      f-2     :     0.000664
      f+3     :     0.000427
      f-3     :     0.000541
  1 H s       :     0.628019  s :     0.628019
      pz      :     0.014702  p :     0.044134
      px      :     0.017448
      py      :     0.011984
  2 C s       :     3.191676  s :     3.191676
      pz      :     0.821264  p :     2.750782
      px      :     1.047999
      py      :     0.881520
      dz2     :     0.029137  d :     0.135953
      dxz     :     0.039740
      dyz     :     0.021510
      dx2y2   :     0.031206
      dxy     :     0.014359
      f0      :     0.002073  f :     0.012286
      f+1     :     0.001131
      f-1     :     0.002114
      f+2     :     0.002842
      f-2     :     0.001979
      f+3     :     0.000978
      f-3     :     0.001169
  3 H s       :     0.863698  s :     0.863698
      pz      :     0.007020  p :     0.024277
      px      :     0.012560
      py      :     0.004697
  4 H s       :     0.879669  s :     0.879669
      pz      :     0.008654  p :     0.023414
      px      :     0.010741
      py      :     0.004019
  5 H s       :     0.880611  s :     0.880611
      pz      :     0.004484  p :     0.023241
      px      :     0.004662
      py      :     0.014095
  6 O s       :     3.799751  s :     3.799751
      pz      :     1.371607  p :     4.677773
      px      :     1.731469
      py      :     1.574696
      dz2     :     0.008676  d :     0.059737
      dxz     :     0.009545
      dyz     :     0.019915
      dx2y2   :     0.009981
      dxy     :     0.011621
      f0      :     0.000491  f :     0.004384
      f+1     :     0.000708
      f-1     :     0.000782
      f+2     :     0.000700
      f-2     :     0.000747
      f+3     :     0.000468
      f-3     :     0.000488
  7 H s       :     0.630941  s :     0.630941
      pz      :     0.016992  p :     0.044827
      px      :     0.014199
      py      :     0.013635
  8 C s       :     3.194048  s :     3.194048
      pz      :     0.884195  p :     2.757510
      px      :     0.910320
      py      :     0.962994
      dz2     :     0.029325  d :     0.135071
      dxz     :     0.021964
      dyz     :     0.033014
      dx2y2   :     0.027098
      dxy     :     0.023670
      f0      :     0.001405  f :     0.012206
      f+1     :     0.001472
      f-1     :     0.001844
      f+2     :     0.002582
      f-2     :     0.002158
      f+3     :     0.001502
      f-3     :     0.001242
  9 H s       :     0.873696  s :     0.873696
      pz      :     0.011216  p :     0.024119
      px      :     0.004684
      py      :     0.008220
 10 H s       :     0.854031  s :     0.854031
      pz      :     0.005179  p :     0.023506
      px      :     0.006291
      py      :     0.012036
 11 H s       :     0.891059  s :     0.891059
      pz      :     0.005295  p :     0.023322
      px      :     0.012943
      py      :     0.005084


                     *******************************
                     * LOEWDIN POPULATION ANALYSIS *
                     *******************************

----------------------
LOEWDIN ATOMIC CHARGES
----------------------
   0 O :   -0.123037
   1 H :    0.190860
   2 C :   -0.346571
   3 H :    0.103246
   4 H :    0.090624
   5 H :    0.090737
   6 O :   -0.126550
   7 H :    0.184041
   8 C :   -0.346379
   9 H :    0.099708
  10 H :    0.095753
  11 H :    0.087567

-------------------------------
LOEWDIN REDUCED ORBITAL CHARGES
-------------------------------
  0 O s       :     3.391861  s :     3.391861
      pz      :     1.460540  p :     4.627015
      px      :     1.529871
      py      :     1.636604
      dz2     :     0.016973  d :     0.097157
      dxz     :     0.024097
      dyz     :     0.024923
      dx2y2   :     0.018132
      dxy     :     0.013033
      f0      :     0.001120  f :     0.007003
      f+1     :     0.000688
      f-1     :     0.001287
      f+2     :     0.001169
      f-2     :     0.001312
      f+3     :     0.000583
      f-3     :     0.000844
  1 H s       :     0.663192  s :     0.663192
      pz      :     0.041979  p :     0.145948
      px      :     0.065874
      py      :     0.038094
  2 C s       :     2.860843  s :     2.860843
      pz      :     0.921083  p :     2.978888
      px      :     1.082419
      py      :     0.975386
      dz2     :     0.089867  d :     0.444412
      dxz     :     0.118892
      dyz     :     0.097489
      dx2y2   :     0.103818
      dxy     :     0.034345
      f0      :     0.013914  f :     0.062429
      f+1     :     0.004150
      f-1     :     0.013424
      f+2     :     0.010909
      f-2     :     0.010206
      f+3     :     0.004865
      f-3     :     0.004960
  3 H s       :     0.832918  s :     0.832918
      pz      :     0.017595  p :     0.063836
      px      :     0.033101
      py      :     0.013140
  4 H s       :     0.845492  s :     0.845492
      pz      :     0.023069  p :     0.063884
      px      :     0.029395
      py      :     0.011420
  5 H s       :     0.845518  s :     0.845518
      pz      :     0.012778  p :     0.063745
      px      :     0.013815
      py      :     0.037153
  6 O s       :     3.391856  s :     3.391856
      pz      :     1.370206  p :     4.630760
      px      :     1.677985
      py      :     1.582568
      dz2     :     0.018077  d :     0.096921
      dxz     :     0.017117
      dyz     :     0.031463
      dx2y2   :     0.013968
      dxy     :     0.016296
      f0      :     0.000722  f :     0.007014
      f+1     :     0.001011
      f-1     :     0.001407
      f+2     :     0.001385
      f-2     :     0.001074
      f+3     :     0.000691
      f-3     :     0.000723
  7 H s       :     0.666443  s :     0.666443
      pz      :     0.056994  p :     0.149516
      px      :     0.037948
      py      :     0.054574
  8 C s       :     2.861688  s :     2.861688
      pz      :     0.959636  p :     2.982554
      px      :     0.992194
      py      :     1.030724
      dz2     :     0.080284  d :     0.440418
      dxz     :     0.078161
      dyz     :     0.115807
      dx2y2   :     0.084864
      dxy     :     0.081302
      f0      :     0.009424  f :     0.061718
      f+1     :     0.007630
      f-1     :     0.009225
      f+2     :     0.011745
      f-2     :     0.010799
      f+3     :     0.007385
      f-3     :     0.005510
  9 H s       :     0.836741  s :     0.836741
      pz      :     0.028130  p :     0.063550
      px      :     0.012727
      py      :     0.022693
 10 H s       :     0.838487  s :     0.838487
      pz      :     0.015109  p :     0.065760
      px      :     0.017645
      py      :     0.033006
 11 H s       :     0.848795  s :     0.848795
      pz      :     0.015104  p :     0.063638
      px      :     0.034122
      py      :     0.014412


                      *****************************
                      * MAYER POPULATION ANALYSIS *
                      *****************************

  NA   - Mulliken gross atomic population
  ZA   - Total nuclear charge
  QA   - Mulliken gross atomic charge
  VA   - Mayer's total valence
  BVA  - Mayer's bonded valence
  FA   - Mayer's free valence

  ATOM       NA         ZA         QA         VA         BVA        FA
  0 O      8.5363     8.0000    -0.5363     2.0923     1.6859     0.4064
  1 H      0.6722     1.0000     0.3278     0.9041     0.8509     0.0532
  2 C      6.0907     6.0000    -0.0907     3.9977     3.7197     0.2781
  3 H      0.8880     1.0000     0.1120     0.9714     0.9244     0.0469
  4 H      0.9031     1.0000     0.0969     0.9711     0.9221     0.0490
  5 H      0.9039     1.0000     0.0961     0.9714     0.9223     0.0491
  6 O      8.5416     8.0000    -0.5416     2.0876     1.6824     0.4052
  7 H      0.6758     1.0000     0.3242     0.9074     0.8545     0.0528
  8 C      6.0988     6.0000    -0.0988     3.9874     3.7089     0.2785
  9 H      0.8978     1.0000     0.1022     0.9703     0.9229     0.0474
 10 H      0.8775     1.0000     0.1225     0.9771     0.9285     0.0486
 11 H      0.9144     1.0000     0.0856     0.9728     0.9232     0.0496

  Mayer bond orders larger than 0.100000
B(  0-O ,  1-H ) :   0.8388 B(  0-O ,  2-C ) :   0.8692 B(  2-C ,  3-H ) :   0.9467 
B(  2-C ,  4-H ) :   0.9492 B(  2-C ,  5-H ) :   0.9466 B(  6-O ,  7-H ) :   0.8450 
B(  6-O ,  8-C ) :   0.8644 B(  8-C ,  9-H ) :   0.9455 B(  8-C , 10-H ) :   0.9450 
B(  8-C , 11-H ) :   0.9520 


                *******************************************
                * RELAXED MP2 DENSITY POPULATION ANALYSIS *
                *******************************************

------------------------------------------------------------------------------
                           ORCA POPULATION ANALYSIS
------------------------------------------------------------------------------
Input electron density              ... 12meoh.boyd.etal.mol6,8-orca.engrad-mp2.def2tzvp.frozencore.pmp2re
BaseName (.gbw .S,...)              ... 12meoh.boyd.etal.mol6,8-orca.engrad-mp2.def2tzvp.frozencore

                    ********************************
                    * MULLIKEN POPULATION ANALYSIS *
                    ********************************

-----------------------
MULLIKEN ATOMIC CHARGES
-----------------------
   0 O :   -0.495921
   1 H :    0.321890
   2 C :   -0.172653
   3 H :    0.130356
   4 H :    0.112851
   5 H :    0.112081
   6 O :   -0.504099
   7 H :    0.318963
   8 C :   -0.180633
   9 H :    0.120375
  10 H :    0.134411
  11 H :    0.102381
Sum of atomic charges:    0.0000000

--------------------------------
MULLIKEN REDUCED ORBITAL CHARGES
--------------------------------
  0 O s       :     3.805525  s :     3.805525
      pz      :     1.454348  p :     4.628646
      px      :     1.552726
      py      :     1.621571
      dz2     :     0.009193  d :     0.057429
      dxz     :     0.011597
      dyz     :     0.014586
      dx2y2   :     0.011913
      dxy     :     0.010140
      f0      :     0.000597  f :     0.004321
      f+1     :     0.000558
      f-1     :     0.000732
      f+2     :     0.000811
      f-2     :     0.000663
      f+3     :     0.000427
      f-3     :     0.000533
  1 H s       :     0.633371  s :     0.633371
      pz      :     0.014828  p :     0.044739
      px      :     0.017161
      py      :     0.012751
  2 C s       :     3.213015  s :     3.213015
      pz      :     0.841731  p :     2.821380
      px      :     1.075091
      py      :     0.904558
      dz2     :     0.029766  d :     0.126529
      dxz     :     0.035803
      dyz     :     0.019263
      dx2y2   :     0.026715
      dxy     :     0.014982
      f0      :     0.001926  f :     0.011728
      f+1     :     0.001108
      f-1     :     0.002033
      f+2     :     0.002708
      f-2     :     0.001897
      f+3     :     0.000927
      f-3     :     0.001129
  3 H s       :     0.846520  s :     0.846520
      pz      :     0.006772  p :     0.023124
      px      :     0.011548
      py      :     0.004804
  4 H s       :     0.864845  s :     0.864845
      pz      :     0.008102  p :     0.022304
      px      :     0.009921
      py      :     0.004281
  5 H s       :     0.865800  s :     0.865800
      pz      :     0.004587  p :     0.022119
      px      :     0.004871
      py      :     0.012661
  6 O s       :     3.801268  s :     3.801268
      pz      :     1.362855  p :     4.640859
      px      :     1.720308
      py      :     1.557695
      dz2     :     0.008863  d :     0.057644
      dxz     :     0.009176
      dyz     :     0.018203
      dx2y2   :     0.010081
      dxy     :     0.011321
      f0      :     0.000490  f :     0.004329
      f+1     :     0.000706
      f-1     :     0.000761
      f+2     :     0.000696
      f-2     :     0.000722
      f+3     :     0.000467
      f-3     :     0.000486
  7 H s       :     0.635603  s :     0.635603
      pz      :     0.016501  p :     0.045434
      px      :     0.015119
      py      :     0.013814
  8 C s       :     3.216899  s :     3.216899
      pz      :     0.905396  p :     2.827125
      px      :     0.934299
      py      :     0.987429
      dz2     :     0.029662  d :     0.124983
      dxz     :     0.019260
      dyz     :     0.029448
      dx2y2   :     0.025225
      dxy     :     0.021387
      f0      :     0.001330  f :     0.011626
      f+1     :     0.001420
      f-1     :     0.001722
      f+2     :     0.002464
      f-2     :     0.002065
      f+3     :     0.001403
      f-3     :     0.001222
  9 H s       :     0.856631  s :     0.856631
      pz      :     0.010335  p :     0.022994
      px      :     0.004866
      py      :     0.007794
 10 H s       :     0.843166  s :     0.843166
      pz      :     0.005183  p :     0.022423
      px      :     0.006203
      py      :     0.011036
 11 H s       :     0.875379  s :     0.875379
      pz      :     0.005287  p :     0.022240
      px      :     0.011745
      py      :     0.005209


                     *******************************
                     * LOEWDIN POPULATION ANALYSIS *
                     *******************************

----------------------
LOEWDIN ATOMIC CHARGES
----------------------
   0 O :   -0.109414
   1 H :    0.193551
   2 C :   -0.381288
   3 H :    0.110551
   4 H :    0.096621
   5 H :    0.096881
   6 O :   -0.113362
   7 H :    0.186710
   8 C :   -0.381644
   9 H :    0.107139
  10 H :    0.100434
  11 H :    0.093820

-------------------------------
LOEWDIN REDUCED ORBITAL CHARGES
-------------------------------
  0 O s       :     3.394932  s :     3.394932
      pz      :     1.458057  p :     4.610659
      px      :     1.526632
      py      :     1.625970
      dz2     :     0.017326  d :     0.096706
      dxz     :     0.024004
      dyz     :     0.024252
      dx2y2   :     0.017917
      dxy     :     0.013208
      f0      :     0.001143  f :     0.007116
      f+1     :     0.000695
      f-1     :     0.001312
      f+2     :     0.001197
      f-2     :     0.001334
      f+3     :     0.000590
      f-3     :     0.000845
  1 H s       :     0.659914  s :     0.659914
      pz      :     0.041795  p :     0.146535
      px      :     0.065838
      py      :     0.038902
  2 C s       :     2.866784  s :     2.866784
      pz      :     0.932822  p :     3.018908
      px      :     1.097764
      py      :     0.988322
      dz2     :     0.090484  d :     0.434727
      dxz     :     0.115546
      dyz     :     0.093909
      dx2y2   :     0.100679
      dxy     :     0.034109
      f0      :     0.013635  f :     0.060869
      f+1     :     0.003981
      f-1     :     0.013131
      f+2     :     0.010625
      f-2     :     0.009900
      f+3     :     0.004752
      f-3     :     0.004846
  3 H s       :     0.825244  s :     0.825244
      pz      :     0.017826  p :     0.064205
      px      :     0.032849
      py      :     0.013530
  4 H s       :     0.838749  s :     0.838749
      pz      :     0.023366  p :     0.064630
      px      :     0.029317
      py      :     0.011946
  5 H s       :     0.838634  s :     0.838634
      pz      :     0.013226  p :     0.064485
      px      :     0.014282
      py      :     0.036977
  6 O s       :     3.394814  s :     3.394814
      pz      :     1.371008  p :     4.614993
      px      :     1.670027
      py      :     1.573958
      dz2     :     0.018387  d :     0.096431
      dxz     :     0.017003
      dyz     :     0.030549
      dx2y2   :     0.014267
      dxy     :     0.016225
      f0      :     0.000731  f :     0.007124
      f+1     :     0.001030
      f-1     :     0.001433
      f+2     :     0.001403
      f-2     :     0.001098
      f+3     :     0.000702
      f-3     :     0.000727
  7 H s       :     0.663121  s :     0.663121
      pz      :     0.056325  p :     0.150169
      px      :     0.038678
      py      :     0.055166
  8 C s       :     2.867755  s :     2.867755
      pz      :     0.972329  p :     3.022871
      px      :     1.006199
      py      :     1.044343
      dz2     :     0.079749  d :     0.430811
      dxz     :     0.074144
      dyz     :     0.113185
      dx2y2   :     0.084527
      dxy     :     0.079206
      f0      :     0.009332  f :     0.060207
      f+1     :     0.007418
      f-1     :     0.008939
      f+2     :     0.011331
      f-2     :     0.010639
      f+3     :     0.007267
      f-3     :     0.005281
  9 H s       :     0.828875  s :     0.828875
      pz      :     0.028020  p :     0.063986
      px      :     0.013200
      py      :     0.022766
 10 H s       :     0.833241  s :     0.833241
      pz      :     0.015598  p :     0.066325
      px      :     0.017898
      py      :     0.032829
 11 H s       :     0.841725  s :     0.841725
      pz      :     0.015482  p :     0.064455
      px      :     0.034085
      py      :     0.014888


                      *****************************
                      * MAYER POPULATION ANALYSIS *
                      *****************************

  NA   - Mulliken gross atomic population
  ZA   - Total nuclear charge
  QA   - Mulliken gross atomic charge
  VA   - Mayer's total valence
  BVA  - Mayer's bonded valence
  FA   - Mayer's free valence

  ATOM       NA         ZA         QA         VA         BVA        FA
  0 O      8.4959     8.0000    -0.4959     2.1501     1.7506     0.3995
  1 H      0.6781     1.0000     0.3219     0.9070     0.8536     0.0534
  2 C      6.1727     6.0000    -0.1727     4.0171     3.7412     0.2758
  3 H      0.8696     1.0000     0.1304     0.9629     0.9166     0.0464
  4 H      0.8871     1.0000     0.1129     0.9635     0.9151     0.0484
  5 H      0.8879     1.0000     0.1121     0.9644     0.9159     0.0485
  6 O      8.5041     8.0000    -0.5041     2.1415     1.7428     0.3986
  7 H      0.6810     1.0000     0.3190     0.9098     0.8568     0.0530
  8 C      6.1806     6.0000    -0.1806     4.0051     3.7288     0.2763
  9 H      0.8796     1.0000     0.1204     0.9616     0.9148     0.0468
 10 H      0.8656     1.0000     0.1344     0.9776     0.9297     0.0479
 11 H      0.8976     1.0000     0.1024     0.9653     0.9164     0.0489

  Mayer bond orders larger than 0.100000
B(  0-O ,  1-H ) :   0.8388 B(  0-O ,  2-C ) :   0.9183 B(  2-C ,  3-H ) :   0.9386 
B(  2-C ,  4-H ) :   0.9384 B(  2-C ,  5-H ) :   0.9360 B(  6-O ,  7-H ) :   0.8453 
B(  6-O ,  8-C ) :   0.9161 B(  8-C ,  9-H ) :   0.9366 B(  8-C , 10-H ) :   0.9336 
B(  8-C , 11-H ) :   0.9414 


----------------------------------
MP2 DERIVATIVE INTEGRAL GENERATION
----------------------------------


Input Wavefunction Amplitudes       ... 12meoh.boyd.etal.mol6,8-orca.engrad-mp2.def2tzvp.frozencore.mp2tsaa.tmp
Input Correlated Electron Density   ... 12meoh.boyd.etal.mol6,8-orca.engrad-mp2.def2tzvp.frozencore.pmp2re
Input Energy Weighted Density       ... 12meoh.boyd.etal.mol6,8-orca.engrad-mp2.def2tzvp.frozencore.wmp2.tmp
Input SCF Electron Density          ... 12meoh.boyd.etal.mol6,8-orca.engrad-mp2.def2tzvp.frozencore.scfp

One-Electron Terms    ...
                        ... One-Electron Terms done
Prescreening matrices              ... done

Batch handling in the gradient evaluation:
Memory available                      ... 8000.0 MB
Memory per occupied orbital in Q2     ...    3.2 MB
Memory per occupied orbital in Q3     ...    0.1 MB
Total memory requirement per |i>      ...    3.2 MB
Max. Number of orbitals possible      ...   2481
Number of orbitals treated per batch  ...     14
Number of batches to be done          ...      1
Batch   0: i=    4 ...    17

---------------------------------------
MP2 TOTAL ENERGY:     -231.015359939 Eh
---------------------------------------

The final MP2 gradient
  0:   0.02073209   0.00739537  -0.01700764
  1:  -0.02466634  -0.00773064   0.01879718
  2:   0.00426576   0.00326303   0.00162976
  3:   0.00292843  -0.00029424  -0.00360628
  4:  -0.00284524   0.00065542  -0.00120921
  5:  -0.00062042  -0.00367967   0.00121979
  6:   0.00381399   0.01383578  -0.01624836
  7:  -0.00488018  -0.01406946   0.02023105
  8:  -0.00066122   0.00350147  -0.00077908
  9:   0.00129822   0.00100315  -0.00387397
 10:  -0.00127990  -0.00306083  -0.00149094
 11:   0.00191480  -0.00081938   0.00233770

-----------------------------------
NORM OF THE MP2 GRADIENT:  0.055036
-----------------------------------

-------------------------   --------------------
FINAL SINGLE POINT ENERGY      -231.015359939120
-------------------------   --------------------


                            ***************************************
                            *     ORCA property calculations      *
                            ***************************************

                                    ---------------------
                                    Active property flags
                                    ---------------------
   (+) Dipole Moment


------------------------------------------------------------------------------
                       ORCA ELECTRIC PROPERTIES CALCULATION
------------------------------------------------------------------------------

Dipole Moment Calculation                       ... on
Quadrupole Moment Calculation                   ... off
Polarizability Calculation                      ... off
GBWName                                         ... 12meoh.boyd.etal.mol6,8-orca.engrad-mp2.def2tzvp.frozencore.gbw
Electron density file                           ... 12meoh.boyd.etal.mol6,8-orca.engrad-mp2.def2tzvp.frozencore.scfp
The origin for moment calculation is the CENTER OF MASS  = ( 6.270272, -0.163188 -2.463968)

-------------
DIPOLE MOMENT
-------------
                                X             Y             Z
Electronic contribution:     -1.11328       2.06719       2.33231
Nuclear contribution   :      0.86793      -3.44247      -2.41405
                        -----------------------------------------
Total Dipole Moment    :     -0.24535      -1.37529      -0.08174
                        -----------------------------------------
Magnitude (a.u.)       :      1.39939
Magnitude (Debye)      :      3.55696



--------------------
Rotational spectrum 
--------------------
 
Rotational constants in cm-1:     0.597442     0.047852     0.045302 
Rotational constants in MHz : 17910.848404  1434.573361  1358.109294 

 Dipole components along the rotational axes: 
x,y,z [a.u.] :    -1.342413     0.190948     0.346060 
x,y,z [Debye]:    -3.412142     0.485352     0.879615 

 

                         *** MP2 UNRELAXED DENSITY ***

------------------------------------------------------------------------------
                       ORCA ELECTRIC PROPERTIES CALCULATION
------------------------------------------------------------------------------

Dipole Moment Calculation                       ... on
Quadrupole Moment Calculation                   ... off
Polarizability Calculation                      ... off
GBWName                                         ... 12meoh.boyd.etal.mol6,8-orca.engrad-mp2.def2tzvp.frozencore.gbw
Electron density file                           ... 12meoh.boyd.etal.mol6,8-orca.engrad-mp2.def2tzvp.frozencore.pmp2ur
The origin for moment calculation is the CENTER OF MASS  = ( 6.270272, -0.163188 -2.463968)

-------------
DIPOLE MOMENT
-------------
                                X             Y             Z
Electronic contribution:     -1.11345       2.09324       2.33985
Nuclear contribution   :      0.86793      -3.44247      -2.41405
                        -----------------------------------------
Total Dipole Moment    :     -0.24552      -1.34923      -0.07419
                        -----------------------------------------
Magnitude (a.u.)       :      1.37340
Magnitude (Debye)      :      3.49089



--------------------
Rotational spectrum 
--------------------
 
Rotational constants in cm-1:     0.597442     0.047852     0.045302 
Rotational constants in MHz : 17910.848404  1434.573361  1358.109294 

 Dipole components along the rotational axes: 
x,y,z [a.u.] :    -1.316247     0.194964     0.340143 
x,y,z [Debye]:    -3.345634     0.495558     0.864574 

 

                           *** MP2 RELAXED DENSITY ***

------------------------------------------------------------------------------
                       ORCA ELECTRIC PROPERTIES CALCULATION
------------------------------------------------------------------------------

Dipole Moment Calculation                       ... on
Quadrupole Moment Calculation                   ... off
Polarizability Calculation                      ... off
GBWName                                         ... 12meoh.boyd.etal.mol6,8-orca.engrad-mp2.def2tzvp.frozencore.gbw
Electron density file                           ... 12meoh.boyd.etal.mol6,8-orca.engrad-mp2.def2tzvp.frozencore.pmp2re
The origin for moment calculation is the CENTER OF MASS  = ( 6.270272, -0.163188 -2.463968)

-------------
DIPOLE MOMENT
-------------
                                X             Y             Z
Electronic contribution:     -1.11778       2.12964       2.35884
Nuclear contribution   :      0.86793      -3.44247      -2.41405
                        -----------------------------------------
Total Dipole Moment    :     -0.24985      -1.31283      -0.05521
                        -----------------------------------------
Magnitude (a.u.)       :      1.33753
Magnitude (Debye)      :      3.39974



--------------------
Rotational spectrum 
--------------------
 
Rotational constants in cm-1:     0.597442     0.047852     0.045302 
Rotational constants in MHz : 17910.848404  1434.573361  1358.109294 

 Dipole components along the rotational axes: 
x,y,z [a.u.] :    -1.277978     0.209402     0.334540 
x,y,z [Debye]:    -3.248362     0.532256     0.850334 

 

Timings for individual modules:

Sum of individual times         ...       20.508 sec (=   0.342 min)
GTO integral calculation        ...        1.260 sec (=   0.021 min)   6.1 %
SCF iterations                  ...        6.251 sec (=   0.104 min)  30.5 %
MP2 module                      ...       12.996 sec (=   0.217 min)  63.4 %
                             ****ORCA TERMINATED NORMALLY****
TOTAL RUN TIME: 0 days 0 hours 0 minutes 21 seconds 494 msec
