13
Energy:   -249.86839433
O    0.17258382  -0.41561657  -4.15636015
H    0.82398174  -0.87255634  -4.68844910
H   -0.43283101  -0.03502371  -4.79264139
O    0.55420694  -1.51546655   0.72702344
H    0.28193291  -1.02261284   1.50109961
H    0.78853078  -2.38043456   1.06340796
O   -0.68576509   1.79867646   0.29734606
H   -0.58146617   2.74947057   0.33400848
H   -0.83390445   1.53826781   1.20645217
O   -0.11733015   0.07015996   2.92929924
H    0.72069737   0.20548313   3.37159933
H   -0.76308100   0.06236643   3.63582380
K    0.12871884  -0.16776164  -1.48663813
