13
Energy:   -232.52713021
O   -0.28533494   0.89332176   0.52342867
H   -0.44653595   1.62331032   1.12122695
H    0.05922069   0.19691501   1.08247331
O    1.00068423  -0.94417771   2.09922697
H    0.83348133  -1.88206769   2.19216477
H    1.52403880  -0.71640728   2.86763603
O    1.64944729   0.38783648  -1.41401123
H    2.54679405   0.25158378  -1.10997860
H    1.15932893   0.61142866  -0.62279547
O   -2.38376224  -0.20989535  -1.58027128
H   -3.23173792  -0.63872784  -1.46506808
H   -2.10521711   0.01356589  -0.69217808
K   -0.34974098   0.38794328  -3.15721879
