
                                 *****************
                                 * O   R   C   A *
                                 *****************

           --- An Ab Initio, DFT and Semiempirical electronic structure package ---

                  #######################################################
                  #                        -***-                        #
                  #          Department of theory and spectroscopy      #
                  #               Directorship: Frank Neese             #
                  #        Max Planck Institute fuer Kohlenforschung    #
                  #                Kaiser Wilhelm Platz 1               #
                  #                 D-45470 Muelheim/Ruhr               #
                  #                      Germany                        #
                  #                                                     #
                  #                  All rights reserved                #
                  #                        -***-                        #
                  #######################################################


                         Program Version 4.2.0 -  RELEASE  -


 With contributions from (in alphabetic order):
   Daniel Aravena         : Magnetic Suceptibility
   Michael Atanasov       : Ab Initio Ligand Field Theory (pilot matlab implementation)
   Alexander A. Auer      : GIAO ZORA, VPT2
   Ute Becker             : Parallelization
   Giovanni Bistoni       : ED, misc. LED, open-shell LED, HFLED
   Martin Brehm           : Molecular dynamics
   Dmytro Bykov           : SCF Hessian
   Vijay G. Chilkuri      : MRCI spin determinant printing, contributions to CSF-ICE
   Dipayan Datta          : RHF DLPNO-CCSD density
   Achintya Kumar Dutta   : EOM-CC, STEOM-CC
   Dmitry Ganyushin       : Spin-Orbit,Spin-Spin,Magnetic field MRCI
   Miquel Garcia          : C-PCM Hessian, Gaussian charge scheme
   Yang Guo               : DLPNO-NEVPT2, CIM, IAO-localization
   Andreas Hansen         : Spin unrestricted coupled pair/coupled cluster methods
   Benjamin Helmich-Paris : CASSCF linear response (MC-RPA)
   Lee Huntington         : MR-EOM, pCC
   Robert Izsak           : Overlap fitted RIJCOSX, COSX-SCS-MP3, EOM
   Christian Kollmar      : KDIIS, OOCD, Brueckner-CCSD(T), CCSD density
   Simone Kossmann        : Meta GGA functionals, TD-DFT gradient, OOMP2, MP2 Hessian
   Martin Krupicka        : AUTO-CI
   Lucas Lang             : DCDCAS
   Dagmar Lenk            : GEPOL surface, SMD
   Dimitrios Liakos       : Extrapolation schemes; Compound Job, initial MDCI parallelization
   Dimitrios Manganas     : Further ROCIS development; embedding schemes
   Dimitrios Pantazis     : SARC Basis sets
   Taras Petrenko         : DFT Hessian,TD-DFT gradient, ASA, ECA, R-Raman, ABS, FL, XAS/XES, NRVS
   Peter Pinski           : DLPNO-MP2, DLPNO-MP2 Gradient
   Christoph Reimann      : Effective Core Potentials
   Marius Retegan         : Local ZFS, SOC
   Christoph Riplinger    : Optimizer, TS searches, QM/MM, DLPNO-CCSD(T), (RO)-DLPNO pert. Triples
   Tobias Risthaus        : Range-separated hybrids, TD-DFT gradient, RPA, STAB
   Michael Roemelt        : Original ROCIS implementation
   Masaaki Saitow         : Open-shell DLPNO-CCSD energy and density
   Barbara Sandhoefer     : DKH picture change effects
   Avijit Sen             : IP-ROCIS
   Kantharuban Sivalingam : CASSCF convergence, NEVPT2, FIC-MRCI
   Bernardo de Souza      : ESD, SOC TD-DFT
   Georgi Stoychev        : AutoAux, RI-MP2 NMR
   Willem Van den Heuvel  : Paramagnetic NMR
   Boris Wezisla          : Elementary symmetry handling
   Frank Wennmohs         : Technical directorship


 We gratefully acknowledge several colleagues who have allowed us to
 interface, adapt or use parts of their codes:
   Stefan Grimme, W. Hujo, H. Kruse,             : VdW corrections, initial TS optimization,
                  C. Bannwarth                     DFT functionals, gCP, sTDA/sTD-DF
   Ed Valeev, F. Pavosevic, A. Kumar             : LibInt (2-el integral package), F12 methods
   Garnet Chan, S. Sharma, J. Yang, R. Olivares  : DMRG
   Ulf Ekstrom                                   : XCFun DFT Library
   Mihaly Kallay                                 : mrcc  (arbitrary order and MRCC methods)
   Andreas Klamt, Michael Diedenhofen            : otool_cosmo (COSMO solvation model)
   Jiri Pittner, Ondrej Demel                    : Mk-CCSD
   Frank Weinhold                                : gennbo (NPA and NBO analysis)
   Christopher J. Cramer and Donald G. Truhlar   : smd solvation model
   Lars Goerigk                                  : TD-DFT with DH, B97 family of functionals
   V. Asgeirsson, H. Jonsson                     : NEB implementation
   FAccTs GmbH                                   : IRC, NEB, NEB-TS, Multilevel, MM, QM/MM, CI optimization
   S Lehtola, MJT Oliveira, MAL Marques          : LibXC Library


 Your calculation uses the libint2 library for the computation of 2-el integrals
 For citations please refer to: http://libint.valeyev.net

 Your ORCA version has been built with support for libXC version: 4.2.3
 For citations please refer to: https://tddft.org/programs/libxc/

 This ORCA versions uses:
   CBLAS   interface :  Fast vector & matrix operations
   LAPACKE interface :  Fast linear algebra routines
   SCALAPACK package :  Parallel linear algebra routines


----- Orbital basis set information -----
Your calculation utilizes the basis: def2-TZVP
   F. Weigend and R. Ahlrichs, Phys. Chem. Chem. Phys. 7, 3297 (2005).

================================================================================
                                        WARNINGS
                       Please study these warnings very carefully!
================================================================================


WARNING: The frozen-core approximation for MP2-gradient calculations is turned on by default.

INFO   : the flag for use of LIBINT has been found!

================================================================================
                                       INPUT FILE
================================================================================
NAME = 12h2o.su.etal.mol2,4,7,8,9,10-orca.engrad-mp2.def2tzvp.frozencore.inp
|  1> # 12h2o.su.etal.mol2,4,7,8,9,10
|  2> ! MP2 def2-TZVP EnGrad TightSCF
|  3> 
|  4> %pal
|  5>     nprocs 6
|  6> end
|  7> 
|  8> %maxcore 8000
|  9> 
| 10> %scf
| 11>     ConvForced true
| 12> end
| 13> 
| 14> *xyz 0 1
| 15> O   0.923410000  -1.794470000  -2.768350000
| 16> H   1.359750000  -2.338250000  -3.430940000
| 17> H   1.303000000  -0.879480000  -2.865760000
| 18> O  -0.885520000   1.737840000   0.052730000
| 19> H  -1.032320000   2.090180000  -0.841890000
| 20> H  -1.284090000   0.839590000   0.017130000
| 21> O  -1.737840000  -0.885520000  -0.052730000
| 22> H  -2.090180000  -1.032320000   0.841890000
| 23> H  -0.839590000  -1.284090000  -0.017130000
| 24> O   1.752130000   0.741530000  -2.896280000
| 25> H   2.036450000   0.920500000  -1.984040000
| 26> H   0.921210000   1.242140000  -2.984230000
| 27> O   0.741530000  -1.752130000   2.896280000
| 28> H   0.920500000  -2.036450000   1.984040000
| 29> H   1.242140000  -0.921210000   2.984230000
| 30> O  -0.923410000   1.794470000  -2.768350000
| 31> H  -1.359750000   2.338250000  -3.430940000
| 32> H  -1.303000000   0.879480000  -2.865760000
| 33> *
| 34> 
| 35>                          ****END OF INPUT****
================================================================================

                     *******************************
                     * Energy+Gradient Calculation *
                     *******************************

---------------------------------
CARTESIAN COORDINATES (ANGSTROEM)
---------------------------------
  O      0.923410   -1.794470   -2.768350
  H      1.359750   -2.338250   -3.430940
  H      1.303000   -0.879480   -2.865760
  O     -0.885520    1.737840    0.052730
  H     -1.032320    2.090180   -0.841890
  H     -1.284090    0.839590    0.017130
  O     -1.737840   -0.885520   -0.052730
  H     -2.090180   -1.032320    0.841890
  H     -0.839590   -1.284090   -0.017130
  O      1.752130    0.741530   -2.896280
  H      2.036450    0.920500   -1.984040
  H      0.921210    1.242140   -2.984230
  O      0.741530   -1.752130    2.896280
  H      0.920500   -2.036450    1.984040
  H      1.242140   -0.921210    2.984230
  O     -0.923410    1.794470   -2.768350
  H     -1.359750    2.338250   -3.430940
  H     -1.303000    0.879480   -2.865760

----------------------------
CARTESIAN COORDINATES (A.U.)
----------------------------
  NO LB      ZA    FRAG     MASS         X           Y           Z
   0 O     8.0000    0    15.999    1.744992   -3.391057   -5.231423
   1 H     1.0000    0     1.008    2.569555   -4.418652   -6.483537
   2 H     1.0000    0     1.008    2.462313   -1.661976   -5.415502
   3 O     8.0000    0    15.999   -1.673390    3.284042    0.099645
   4 H     1.0000    0     1.008   -1.950802    3.949868   -1.590942
   5 H     1.0000    0     1.008   -2.426578    1.586595    0.032371
   6 O     8.0000    0    15.999   -3.284042   -1.673390   -0.099645
   7 H     1.0000    0     1.008   -3.949868   -1.950802    1.590942
   8 H     1.0000    0     1.008   -1.586595   -2.426578   -0.032371
   9 O     8.0000    0    15.999    3.311046    1.401289   -5.473176
  10 H     1.0000    0     1.008    3.848333    1.739493   -3.749292
  11 H     1.0000    0     1.008    1.740835    2.347304   -5.639377
  12 O     8.0000    0    15.999    1.401289   -3.311046    5.473176
  13 H     1.0000    0     1.008    1.739493   -3.848333    3.749292
  14 H     1.0000    0     1.008    2.347304   -1.740835    5.639377
  15 O     8.0000    0    15.999   -1.744992    3.391057   -5.231423
  16 H     1.0000    0     1.008   -2.569555    4.418652   -6.483537
  17 H     1.0000    0     1.008   -2.462313    1.661976   -5.415502

--------------------------------
INTERNAL COORDINATES (ANGSTROEM)
--------------------------------
 O      0   0   0     0.000000000000     0.00000000     0.00000000
 H      1   0   0     0.961828878803     0.00000000     0.00000000
 H      1   2   0     0.995381322057   106.21731035     0.00000000
 O      3   1   2     4.489717992580   106.64087787   176.77928518
 H      4   3   1     0.972645187106    71.75107181   239.98847868
 H      4   3   1     0.983350632989    68.99381625   353.14737776
 O      6   4   3     1.785153773264   170.81379649    41.84808259
 H      7   6   4     0.972645187106   101.65007623   109.44492584
 H      7   6   4     0.983350632989    99.09581498     3.33484705
 O      3   1   2     1.682356278379   171.61043709   164.26103839
 H     10   3   1     0.972136791249   103.79460456    70.64587838
 H     10   3   1     0.974050112161   105.61118924   321.69395179
 O      9   7   6     3.347679752321   121.30565948    83.11460775
 H     13   9   7     0.972136791249    46.46358234   170.36223581
 H     13   9   7     0.974050112161   101.65702229   268.49406050
 O     12  10   3     1.937600461318   161.54375213    39.05245435
 H     16  12  10     0.961828878803   121.08403650   202.75419110
 H     16  12  10     0.995381322057    95.17003195   315.21089530

---------------------------
INTERNAL COORDINATES (A.U.)
---------------------------
 O      0   0   0     0.000000000000     0.00000000     0.00000000
 H      1   0   0     1.817593168635     0.00000000     0.00000000
 H      1   2   0     1.880998097508   106.21731035     0.00000000
 O      3   1   2     8.484337424516   106.64087787   176.77928518
 H      4   3   1     1.838033029106    71.75107181   239.98847868
 H      4   3   1     1.858263389967    68.99381625   353.14737776
 O      6   4   3     3.373451738406   170.81379649    41.84808259
 H      7   6   4     1.838033029106   101.65007623   109.44492584
 H      7   6   4     1.858263389967    99.09581498     3.33484705
 O      3   1   2     3.179192625819   171.61043709   164.26103839
 H     10   3   1     1.837072300170   103.79460456    70.64587838
 H     10   3   1     1.840687952699   105.61118924   321.69395179
 O      9   7   6     6.326197915960   121.30565948    83.11460775
 H     13   9   7     1.837072300170    46.46358234   170.36223581
 H     13   9   7     1.840687952699   101.65702229   268.49406050
 O     12  10   3     3.661534228851   161.54375213    39.05245435
 H     16  12  10     1.817593168635   121.08403650   202.75419110
 H     16  12  10     1.880998097508    95.17003195   315.21089530

---------------------
BASIS SET INFORMATION
---------------------
There are 2 groups of distinct atoms

 Group   1 Type O   : 11s6p2d1f contracted to 5s3p2d1f pattern {62111/411/11/1}
 Group   2 Type H   : 5s1p contracted to 3s1p pattern {311/1}

Atom   0O    basis set group =>   1
Atom   1H    basis set group =>   2
Atom   2H    basis set group =>   2
Atom   3O    basis set group =>   1
Atom   4H    basis set group =>   2
Atom   5H    basis set group =>   2
Atom   6O    basis set group =>   1
Atom   7H    basis set group =>   2
Atom   8H    basis set group =>   2
Atom   9O    basis set group =>   1
Atom  10H    basis set group =>   2
Atom  11H    basis set group =>   2
Atom  12O    basis set group =>   1
Atom  13H    basis set group =>   2
Atom  14H    basis set group =>   2
Atom  15O    basis set group =>   1
Atom  16H    basis set group =>   2
Atom  17H    basis set group =>   2


           ************************************************************
           *        Program running with 6 parallel MPI-processes     *
           *              working on a common directory               *
           ************************************************************
------------------------------------------------------------------------------
                           ORCA GTO INTEGRAL CALCULATION
------------------------------------------------------------------------------

                         BASIS SET STATISTICS AND STARTUP INFO

 # of primitive gaussian shells          ...  192
 # of primitive gaussian functions       ...  372
 # of contracted shells                  ...  114
 # of contracted basis functions         ...  258
 Highest angular momentum                ...    3
 Maximum contraction depth               ...    6
 Integral package used                   ... LIBINT
 Integral threshhold            Thresh   ...  2.500e-11
 Primitive cut-off              TCut     ...  2.500e-12


------------------------------ INTEGRAL EVALUATION ----------------------------


 * One electron integrals 
 Pre-screening matrix                    ... done
 Shell pair data                         ... done (   0.001 sec)



           ************************************************************
           *        Program running with 6 parallel MPI-processes     *
           *              working on a common directory               *
           ************************************************************
-------------------------------------------------------------------------------
                                 ORCA SCF
-------------------------------------------------------------------------------

------------
SCF SETTINGS
------------
Hamiltonian:
 Ab initio Hamiltonian  Method          .... Hartree-Fock(GTOs)


General Settings:
 Integral files         IntName         .... 12h2o.su.etal.mol2,4,7,8,9,10-orca.engrad-mp2.def2tzvp.frozencore
 Hartree-Fock type      HFTyp           .... RHF
 Total Charge           Charge          ....    0
 Multiplicity           Mult            ....    1
 Number of Electrons    NEL             ....   60
 Basis Dimension        Dim             ....  258
 Nuclear Repulsion      ENuc            ....    256.6766587595 Eh

Convergence Acceleration:
 DIIS                   CNVDIIS         .... on
   Start iteration      DIISMaxIt       ....    12
   Startup error        DIISStart       ....  0.200000
   # of expansion vecs  DIISMaxEq       ....     5
   Bias factor          DIISBfac        ....   1.050
   Max. coefficient     DIISMaxC        ....  10.000
 Newton-Raphson         CNVNR           .... off
 SOSCF                  CNVSOSCF        .... on
   Start iteration      SOSCFMaxIt      ....   150
   Startup grad/error   SOSCFStart      ....  0.003300
 Level Shifting         CNVShift        .... on
   Level shift para.    LevelShift      ....    0.2500
   Turn off err/grad.   ShiftErr        ....    0.0010
 Zerner damping         CNVZerner       .... off
 Static damping         CNVDamp         .... on
   Fraction old density DampFac         ....    0.7000
   Max. Damping (<1)    DampMax         ....    0.9800
   Min. Damping (>=0)   DampMin         ....    0.0000
   Turn off err/grad.   DampErr         ....    0.1000
 Fernandez-Rico         CNVRico         .... off

SCF Procedure:
 Maximum # iterations   MaxIter         ....   125
 SCF integral mode      SCFMode         .... Direct
   Integral package                     .... LIBINT
 Reset frequency        DirectResetFreq ....    20
 Integral Threshold     Thresh          ....  2.500e-11 Eh
 Primitive CutOff       TCut            ....  2.500e-12 Eh

Convergence Tolerance:
 Convergence Check Mode ConvCheckMode   .... Total+1el-Energy
 Convergence forced     ConvForced      .... 1
 Energy Change          TolE            ....  1.000e-08 Eh
 1-El. energy change                    ....  1.000e-05 Eh
 Orbital Gradient       TolG            ....  1.000e-05
 Orbital Rotation angle TolX            ....  1.000e-05
 DIIS Error             TolErr          ....  5.000e-07


Diagonalization of the overlap matrix:
Smallest eigenvalue                        ... 4.321e-03
Time for diagonalization                   ...    0.010 sec
Threshold for overlap eigenvalues          ... 1.000e-08
Number of eigenvalues below threshold      ... 0
Time for construction of square roots      ...    0.005 sec
Total time needed                          ...    0.015 sec

-------------------
DFT GRID GENERATION
-------------------

General Integration Accuracy     IntAcc      ...  4.340
Radial Grid Type                 RadialGrid  ... Gauss-Chebyshev
Angular Grid (max. acc.)         AngularGrid ... Lebedev-110
Angular grid pruning method      GridPruning ... 3 (G Style)
Weight generation scheme         WeightScheme... Becke
Basis function cutoff            BFCut       ...    1.0000e-11
Integration weight cutoff        WCut        ...    1.0000e-14
Grids for H and He will be reduced by one unit

# of grid points (after initial pruning)     ...  19824 (   0.0 sec)
# of grid points (after weights+screening)   ...  18811 (   0.0 sec)
nearest neighbour list constructed           ...    0.0 sec
Grid point re-assignment to atoms done       ...    0.0 sec
Grid point division into batches done        ...    0.0 sec
Reduced shell lists constructed in    0.0 sec

Total number of grid points                  ...    18811
Total number of batches                      ...      303
Average number of points per batch           ...       62
Average number of grid points per atom       ...     1045
Average number of shells per batch           ...    55.38 (48.58%)
Average number of basis functions per batch  ...   110.96 (43.01%)
Average number of large shells per batch     ...    39.17 (70.73%)
Average number of large basis fcns per batch ...    78.21 (70.49%)
Maximum spatial batch extension              ...  20.95, 12.83, 12.83 au
Average spatial batch extension              ...   0.67,  0.51,  0.56 au

Time for grid setup =    0.054 sec

------------------------------
INITIAL GUESS: MODEL POTENTIAL
------------------------------
Loading Hartree-Fock densities                     ... done
Calculating cut-offs                               ... done
Setting up the integral package                    ... done
Initializing the effective Hamiltonian             ... done
Starting the Coulomb interaction                   ... done (   0.0 sec)
Reading the grid                                   ... done
Mapping shells                                     ... done
Starting the XC term evaluation                    ... done (   0.0 sec)
Transforming the Hamiltonian                       ... done (   0.0 sec)
Diagonalizing the Hamiltonian                      ... done (   0.0 sec)
Back transforming the eigenvectors                 ... done (   0.0 sec)
Now organizing SCF variables                       ... done
                      ------------------
                      INITIAL GUESS DONE (   0.2 sec)
                      ------------------
--------------
SCF ITERATIONS
--------------
ITER       Energy         Delta-E        Max-DP      RMS-DP      [F,P]     Damp
               ***  Starting incremental Fock matrix formation  ***
  0   -455.8194738107   0.000000000000 0.04461916  0.00097552  0.3499251 0.7000
  1   -456.0349097046  -0.215435893925 0.02950920  0.00067385  0.2167386 0.7000
                               ***Turning on DIIS***
  2   -456.1485710645  -0.113661359863 0.01643060  0.00037401  0.1637918 0.7000
  3   -457.1576021481  -1.009031083545 0.00751211  0.00016899  0.1218537 0.7000
  4   -456.9518906313   0.205711516710 0.01701191  0.00039152  0.0862271 0.0000
  5   -456.4094673912   0.542423240169 0.00230581  0.00006394  0.0054765 0.0000
                      *** Initiating the SOSCF procedure ***
                           *** Shutting down DIIS ***
                      *** Re-Reading the Fockian *** 
                      *** Removing any level shift *** 
ITER      Energy       Delta-E        Grad      Rot      Max-DP    RMS-DP
  6   -456.37701095   0.0324564399  0.000855  0.000855  0.001494  0.000039
               *** Restarting incremental Fock matrix formation ***
  7   -456.36748122   0.0095297275  0.000286  0.000380  0.000715  0.000017
  8   -456.36749013  -0.0000089092  0.000133  0.000333  0.000558  0.000014
  9   -456.36749227  -0.0000021322  0.000074  0.000044  0.000118  0.000003
 10   -456.36749244  -0.0000001758  0.000011  0.000008  0.000020  0.000000
                  ***Gradient check signals convergence***
              ***Rediagonalizing the Fockian in SOSCF/NRSCF***

               *****************************************************
               *                     SUCCESS                       *
               *           SCF CONVERGED AFTER  11 CYCLES          *
               *****************************************************


----------------
TOTAL SCF ENERGY
----------------

Total Energy       :         -456.36749244 Eh          -12418.39081 eV

Components:
Nuclear Repulsion  :          256.67665876 Eh            6984.52697 eV
Electronic Energy  :         -713.04415120 Eh          -19402.91778 eV
One Electron Energy:        -1141.45573237 Eh          -31060.58957 eV
Two Electron Energy:          428.41158116 Eh           11657.67179 eV

Virial components:
Potential Energy   :         -912.09629129 Eh          -24819.40188 eV
Kinetic Energy     :          455.72879884 Eh           12401.01107 eV
Virial Ratio       :            2.00140148


---------------
SCF CONVERGENCE
---------------

  Last Energy change         ...   -3.5666e-09  Tolerance :   1.0000e-08
  Last MAX-Density change    ...    4.9580e-06  Tolerance :   1.0000e-07
  Last RMS-Density change    ...    1.3444e-07  Tolerance :   5.0000e-09
  Last Orbital Gradient      ...    1.9278e-06  Tolerance :   1.0000e-05
  Last Orbital Rotation      ...    2.2344e-06  Tolerance :   1.0000e-05

             **** THE GBW FILE WAS UPDATED (12h2o.su.etal.mol2,4,7,8,9,10-orca.engrad-mp2.def2tzvp.frozencore.gbw) ****
             **** DENSITY FILE WAS UPDATED (12h2o.su.etal.mol2,4,7,8,9,10-orca.engrad-mp2.def2tzvp.frozencore.scfp) ****
             **** ENERGY FILE WAS UPDATED (12h2o.su.etal.mol2,4,7,8,9,10-orca.engrad-mp2.def2tzvp.frozencore.en.tmp) ****
             **** THE GBW FILE WAS UPDATED (12h2o.su.etal.mol2,4,7,8,9,10-orca.engrad-mp2.def2tzvp.frozencore.gbw) ****
             **** DENSITY FILE WAS UPDATED (12h2o.su.etal.mol2,4,7,8,9,10-orca.engrad-mp2.def2tzvp.frozencore.scfp) ****
----------------
ORBITAL ENERGIES
----------------

  NO   OCC          E(Eh)            E(eV) 
   0   2.0000     -20.611485      -560.8670 
   1   2.0000     -20.587347      -560.2102 
   2   2.0000     -20.574131      -559.8506 
   3   2.0000     -20.570485      -559.7514 
   4   2.0000     -20.527065      -558.5698 
   5   2.0000     -20.511091      -558.1352 
   6   2.0000      -1.392193       -37.8835 
   7   2.0000      -1.367874       -37.2217 
   8   2.0000      -1.362604       -37.0783 
   9   2.0000      -1.349490       -36.7215 
  10   2.0000      -1.308736       -35.6125 
  11   2.0000      -1.295547       -35.2536 
  12   2.0000      -0.757815       -20.6212 
  13   2.0000      -0.725819       -19.7506 
  14   2.0000      -0.724610       -19.7177 
  15   2.0000      -0.712239       -19.3810 
  16   2.0000      -0.695906       -18.9366 
  17   2.0000      -0.681202       -18.5365 
  18   2.0000      -0.633546       -17.2397 
  19   2.0000      -0.610530       -16.6134 
  20   2.0000      -0.600060       -16.3285 
  21   2.0000      -0.586890       -15.9701 
  22   2.0000      -0.568622       -15.4730 
  23   2.0000      -0.553668       -15.0661 
  24   2.0000      -0.536826       -14.6078 
  25   2.0000      -0.514219       -13.9926 
  26   2.0000      -0.508968       -13.8497 
  27   2.0000      -0.507552       -13.8112 
  28   2.0000      -0.477947       -13.0056 
  29   2.0000      -0.461908       -12.5692 
  30   0.0000       0.088995         2.4217 
  31   0.0000       0.109848         2.9891 
  32   0.0000       0.148225         4.0334 
  33   0.0000       0.156735         4.2650 
  34   0.0000       0.173328         4.7165 
  35   0.0000       0.183023         4.9803 
  36   0.0000       0.193972         5.2782 
  37   0.0000       0.243777         6.6335 
  38   0.0000       0.255289         6.9468 
  39   0.0000       0.273508         7.4425 
  40   0.0000       0.331635         9.0242 
  41   0.0000       0.340484         9.2650 
  42   0.0000       0.433961        11.8087 
  43   0.0000       0.485436        13.2094 
  44   0.0000       0.490567        13.3490 
  45   0.0000       0.503601        13.7037 
  46   0.0000       0.512337        13.9414 
  47   0.0000       0.530318        14.4307 
  48   0.0000       0.543032        14.7767 
  49   0.0000       0.546688        14.8761 
  50   0.0000       0.560980        15.2650 
  51   0.0000       0.565756        15.3950 
  52   0.0000       0.590587        16.0707 
  53   0.0000       0.597383        16.2556 
  54   0.0000       0.607953        16.5432 
  55   0.0000       0.615518        16.7491 
  56   0.0000       0.628656        17.1066 
  57   0.0000       0.631357        17.1801 
  58   0.0000       0.639772        17.4091 
  59   0.0000       0.659936        17.9578 
  60   0.0000       0.678138        18.4531 
  61   0.0000       0.709113        19.2960 
  62   0.0000       0.718543        19.5525 
  63   0.0000       0.731848        19.9146 
  64   0.0000       0.742759        20.2115 
  65   0.0000       0.768183        20.9033 
  66   0.0000       0.769586        20.9415 
  67   0.0000       0.779987        21.2245 
  68   0.0000       0.793559        21.5938 
  69   0.0000       0.801070        21.7982 
  70   0.0000       0.827400        22.5147 
  71   0.0000       0.859559        23.3898 
  72   0.0000       0.895480        24.3673 
  73   0.0000       0.960378        26.1332 
  74   0.0000       0.963953        26.2305 
  75   0.0000       0.997894        27.1541 
  76   0.0000       1.035199        28.1692 
  77   0.0000       1.050444        28.5840 
  78   0.0000       1.350141        36.7392 
  79   0.0000       1.375133        37.4193 
  80   0.0000       1.391612        37.8677 
  81   0.0000       1.394387        37.9432 
  82   0.0000       1.398978        38.0681 
  83   0.0000       1.411652        38.4130 
  84   0.0000       1.420098        38.6428 
  85   0.0000       1.442929        39.2641 
  86   0.0000       1.457794        39.6686 
  87   0.0000       1.484699        40.4007 
  88   0.0000       1.505347        40.9626 
  89   0.0000       1.518744        41.3271 
  90   0.0000       1.543122        41.9905 
  91   0.0000       1.567062        42.6419 
  92   0.0000       1.576031        42.8860 
  93   0.0000       1.592262        43.3277 
  94   0.0000       1.624829        44.2139 
  95   0.0000       1.652462        44.9658 
  96   0.0000       1.781981        48.4902 
  97   0.0000       1.795224        48.8505 
  98   0.0000       1.809186        49.2305 
  99   0.0000       1.829547        49.7845 
 100   0.0000       1.837844        50.0103 
 101   0.0000       1.862595        50.6838 
 102   0.0000       1.884998        51.2934 
 103   0.0000       1.908934        51.9447 
 104   0.0000       1.957700        53.2717 
 105   0.0000       1.970208        53.6121 
 106   0.0000       1.992892        54.2294 
 107   0.0000       2.007656        54.6311 
 108   0.0000       2.015888        54.8551 
 109   0.0000       2.046261        55.6816 
 110   0.0000       2.066553        56.2338 
 111   0.0000       2.124048        57.7983 
 112   0.0000       2.147049        58.4242 
 113   0.0000       2.167585        58.9830 
 114   0.0000       2.241375        60.9909 
 115   0.0000       2.278123        61.9909 
 116   0.0000       2.288712        62.2790 
 117   0.0000       2.295202        62.4556 
 118   0.0000       2.300686        62.6048 
 119   0.0000       2.329756        63.3959 
 120   0.0000       2.340212        63.6804 
 121   0.0000       2.344014        63.7839 
 122   0.0000       2.365837        64.3777 
 123   0.0000       2.374584        64.6157 
 124   0.0000       2.383147        64.8487 
 125   0.0000       2.389140        65.0118 
 126   0.0000       2.415665        65.7336 
 127   0.0000       2.440818        66.4180 
 128   0.0000       2.485265        67.6275 
 129   0.0000       2.525191        68.7139 
 130   0.0000       2.557016        69.5800 
 131   0.0000       2.569236        69.9125 
 132   0.0000       2.577503        70.1374 
 133   0.0000       2.584059        70.3158 
 134   0.0000       2.596271        70.6481 
 135   0.0000       2.605155        70.8899 
 136   0.0000       2.648807        72.0777 
 137   0.0000       2.655060        72.2479 
 138   0.0000       2.671759        72.7023 
 139   0.0000       2.676628        72.8348 
 140   0.0000       2.687703        73.1361 
 141   0.0000       2.712147        73.8013 
 142   0.0000       2.761267        75.1379 
 143   0.0000       2.786858        75.8343 
 144   0.0000       2.879567        78.3570 
 145   0.0000       2.915348        79.3307 
 146   0.0000       2.926894        79.6448 
 147   0.0000       2.937592        79.9359 
 148   0.0000       2.942572        80.0715 
 149   0.0000       2.952607        80.3445 
 150   0.0000       2.960098        80.5484 
 151   0.0000       2.963823        80.6497 
 152   0.0000       2.988653        81.3254 
 153   0.0000       3.008248        81.8586 
 154   0.0000       3.038947        82.6939 
 155   0.0000       3.065200        83.4083 
 156   0.0000       3.066588        83.4461 
 157   0.0000       3.100650        84.3730 
 158   0.0000       3.140306        85.4521 
 159   0.0000       3.148113        85.6645 
 160   0.0000       3.168728        86.2255 
 161   0.0000       3.223804        87.7242 
 162   0.0000       3.227856        87.8344 
 163   0.0000       3.265863        88.8686 
 164   0.0000       3.298135        89.7468 
 165   0.0000       3.325976        90.5044 
 166   0.0000       3.439201        93.5854 
 167   0.0000       3.521268        95.8186 
 168   0.0000       3.976226       108.1986 
 169   0.0000       4.010667       109.1358 
 170   0.0000       4.028129       109.6110 
 171   0.0000       4.037210       109.8581 
 172   0.0000       4.111804       111.8879 
 173   0.0000       4.138802       112.6225 
 174   0.0000       4.269458       116.1779 
 175   0.0000       4.278962       116.4365 
 176   0.0000       4.302439       117.0753 
 177   0.0000       4.308405       117.2377 
 178   0.0000       4.380309       119.1943 
 179   0.0000       4.399942       119.7285 
 180   0.0000       5.502785       149.7384 
 181   0.0000       5.519658       150.1975 
 182   0.0000       5.530324       150.4878 
 183   0.0000       5.540190       150.7562 
 184   0.0000       5.577984       151.7847 
 185   0.0000       5.591739       152.1590 
 186   0.0000       5.597234       152.3085 
 187   0.0000       5.644147       153.5851 
 188   0.0000       5.646935       153.6609 
 189   0.0000       5.665725       154.1722 
 190   0.0000       5.682785       154.6364 
 191   0.0000       5.699746       155.0980 
 192   0.0000       5.766279       156.9084 
 193   0.0000       5.795087       157.6923 
 194   0.0000       5.803368       157.9177 
 195   0.0000       5.813815       158.2019 
 196   0.0000       5.819966       158.3693 
 197   0.0000       5.820661       158.3882 
 198   0.0000       5.836234       158.8120 
 199   0.0000       5.846025       159.0784 
 200   0.0000       5.861883       159.5100 
 201   0.0000       5.863684       159.5590 
 202   0.0000       5.871628       159.7751 
 203   0.0000       5.874841       159.8625 
 204   0.0000       5.880034       160.0039 
 205   0.0000       5.886546       160.1811 
 206   0.0000       5.888278       160.2282 
 207   0.0000       5.913750       160.9213 
 208   0.0000       5.944171       161.7491 
 209   0.0000       5.959787       162.1740 
 210   0.0000       6.384127       173.7209 
 211   0.0000       6.443909       175.3477 
 212   0.0000       6.470342       176.0670 
 213   0.0000       6.480812       176.3519 
 214   0.0000       6.500394       176.8847 
 215   0.0000       6.510798       177.1678 
 216   0.0000       6.649987       180.9553 
 217   0.0000       6.677026       181.6911 
 218   0.0000       6.686033       181.9362 
 219   0.0000       6.716393       182.7623 
 220   0.0000       6.743229       183.4926 
 221   0.0000       6.765346       184.0944 
 222   0.0000       6.821430       185.6206 
 223   0.0000       6.830108       185.8567 
 224   0.0000       6.846888       186.3133 
 225   0.0000       6.850297       186.4061 
 226   0.0000       6.864041       186.7800 
 227   0.0000       6.874395       187.0618 
 228   0.0000       6.879778       187.2083 
 229   0.0000       6.882221       187.2748 
 230   0.0000       6.894751       187.6157 
 231   0.0000       6.916530       188.2084 
 232   0.0000       6.929522       188.5619 
 233   0.0000       6.937706       188.7846 
 234   0.0000       6.955487       189.2684 
 235   0.0000       6.975248       189.8062 
 236   0.0000       6.987193       190.1312 
 237   0.0000       6.999388       190.4630 
 238   0.0000       7.018354       190.9791 
 239   0.0000       7.094352       193.0471 
 240   0.0000       7.343006       199.8133 
 241   0.0000       7.353177       200.0901 
 242   0.0000       7.371687       200.5938 
 243   0.0000       7.432042       202.2361 
 244   0.0000       7.467608       203.2039 
 245   0.0000       7.480014       203.5415 
 246   0.0000       7.496035       203.9775 
 247   0.0000       7.502412       204.1510 
 248   0.0000       7.506372       204.2588 
 249   0.0000       7.534034       205.0115 
 250   0.0000       7.571082       206.0196 
 251   0.0000       7.628253       207.5753 
 252   0.0000      44.819170      1219.5916 
 253   0.0000      44.893136      1221.6043 
 254   0.0000      44.922134      1222.3934 
 255   0.0000      44.963007      1223.5056 
 256   0.0000      44.979460      1223.9533 
 257   0.0000      45.053734      1225.9744 

                    ********************************
                    * MULLIKEN POPULATION ANALYSIS *
                    ********************************

-----------------------
MULLIKEN ATOMIC CHARGES
-----------------------
   0 O :   -0.767665
   1 H :    0.337235
   2 H :    0.392710
   3 O :   -0.763711
   4 H :    0.370042
   5 H :    0.365178
   6 O :   -0.714987
   7 H :    0.370544
   8 H :    0.368138
   9 O :   -0.734734
  10 H :    0.364789
  11 H :    0.394784
  12 O :   -0.693296
  13 H :    0.340034
  14 H :    0.355329
  15 O :   -0.749807
  16 H :    0.372356
  17 H :    0.393062
Sum of atomic charges:   -0.0000000

--------------------------------
MULLIKEN REDUCED ORBITAL CHARGES
--------------------------------
  0 O s       :     3.808347  s :     3.808347
      pz      :     1.720497  p :     4.934316
      px      :     1.801445
      py      :     1.412374
      dz2     :     0.003965  d :     0.023540
      dxz     :     0.005493
      dyz     :     0.004631
      dx2y2   :     0.002312
      dxy     :     0.007139
      f0      :     0.000087  f :     0.001462
      f+1     :     0.000184
      f-1     :     0.000326
      f+2     :     0.000069
      f-2     :     0.000359
      f+3     :     0.000349
      f-3     :     0.000088
  1 H s       :     0.616774  s :     0.616774
      pz      :     0.017065  p :     0.045991
      px      :     0.015043
      py      :     0.013883
  2 H s       :     0.550223  s :     0.550223
      pz      :     0.010707  p :     0.057067
      px      :     0.014048
      py      :     0.032312
  3 O s       :     3.805301  s :     3.805301
      pz      :     1.571302  p :     4.932684
      px      :     1.874194
      py      :     1.487188
      dz2     :     0.011013  d :     0.024322
      dxz     :     0.002540
      dyz     :     0.002856
      dx2y2   :     0.002960
      dxy     :     0.004953
      f0      :     0.000169  f :     0.001404
      f+1     :     0.000119
      f-1     :     0.000440
      f+2     :     0.000076
      f-2     :     0.000040
      f+3     :     0.000443
      f-3     :     0.000116
  4 H s       :     0.580940  s :     0.580940
      pz      :     0.023647  p :     0.049018
      px      :     0.013751
      py      :     0.011620
  5 H s       :     0.580428  s :     0.580428
      pz      :     0.009998  p :     0.054394
      px      :     0.015890
      py      :     0.028506
  6 O s       :     3.806960  s :     3.806960
      pz      :     1.556994  p :     4.880601
      px      :     1.474880
      py      :     1.848727
      dz2     :     0.012079  d :     0.025988
      dxz     :     0.002967
      dyz     :     0.002317
      dx2y2   :     0.003617
      dxy     :     0.005007
      f0      :     0.000169  f :     0.001439
      f+1     :     0.000470
      f-1     :     0.000121
      f+2     :     0.000070
      f-2     :     0.000042
      f+3     :     0.000111
      f-3     :     0.000457
  7 H s       :     0.585722  s :     0.585722
      pz      :     0.019074  p :     0.043733
      px      :     0.011406
      py      :     0.013253
  8 H s       :     0.589485  s :     0.589485
      pz      :     0.009739  p :     0.042377
      px      :     0.018616
      py      :     0.014022
  9 O s       :     3.795434  s :     3.795434
      pz      :     1.525524  p :     4.913001
      px      :     1.595243
      py      :     1.792234
      dz2     :     0.012269  d :     0.024896
      dxz     :     0.001234
      dyz     :     0.002365
      dx2y2   :     0.002344
      dxy     :     0.006684
      f0      :     0.000252  f :     0.001403
      f+1     :     0.000389
      f-1     :     0.000158
      f+2     :     0.000052
      f-2     :     0.000056
      f+3     :     0.000049
      f-3     :     0.000447
 10 H s       :     0.591619  s :     0.591619
      pz      :     0.019312  p :     0.043592
      px      :     0.011613
      py      :     0.012667
 11 H s       :     0.556024  s :     0.556024
      pz      :     0.009591  p :     0.049192
      px      :     0.024028
      py      :     0.015573
 12 O s       :     3.815005  s :     3.815005
      pz      :     1.496611  p :     4.850289
      px      :     1.817727
      py      :     1.535951
      dz2     :     0.012312  d :     0.026465
      dxz     :     0.003114
      dyz     :     0.001274
      dx2y2   :     0.002141
      dxy     :     0.007624
      f0      :     0.000270  f :     0.001538
      f+1     :     0.000175
      f-1     :     0.000385
      f+2     :     0.000056
      f-2     :     0.000057
      f+3     :     0.000525
      f-3     :     0.000070
 13 H s       :     0.614806  s :     0.614806
      pz      :     0.018796  p :     0.045160
      px      :     0.013911
      py      :     0.012453
 14 H s       :     0.600251  s :     0.600251
      pz      :     0.010481  p :     0.044421
      px      :     0.015579
      py      :     0.018360
 15 O s       :     3.808543  s :     3.808543
      pz      :     1.734941  p :     4.915842
      px      :     1.790850
      py      :     1.390051
      dz2     :     0.004150  d :     0.023954
      dxz     :     0.005411
      dyz     :     0.004644
      dx2y2   :     0.002523
      dxy     :     0.007225
      f0      :     0.000086  f :     0.001469
      f+1     :     0.000179
      f-1     :     0.000336
      f+2     :     0.000061
      f-2     :     0.000347
      f+3     :     0.000368
      f-3     :     0.000092
 16 H s       :     0.582706  s :     0.582706
      pz      :     0.017080  p :     0.044937
      px      :     0.014587
      py      :     0.013270
 17 H s       :     0.566512  s :     0.566512
      pz      :     0.010313  p :     0.040425
      px      :     0.011955
      py      :     0.018157


                     *******************************
                     * LOEWDIN POPULATION ANALYSIS *
                     *******************************

----------------------
LOEWDIN ATOMIC CHARGES
----------------------
   0 O :   -0.378341
   1 H :    0.149728
   2 H :    0.150874
   3 O :   -0.374097
   4 H :    0.146335
   5 H :    0.144188
   6 O :   -0.299733
   7 H :    0.174481
   8 H :    0.178483
   9 O :   -0.292092
  10 H :    0.172174
  11 H :    0.160174
  12 O :   -0.329880
  13 H :    0.160946
  14 H :    0.170694
  15 O :   -0.297974
  16 H :    0.167063
  17 H :    0.196975

-------------------------------
LOEWDIN REDUCED ORBITAL CHARGES
-------------------------------
  0 O s       :     3.467279  s :     3.467279
      pz      :     1.706366  p :     4.879750
      px      :     1.779519
      py      :     1.393866
      dz2     :     0.004220  d :     0.029312
      dxz     :     0.005710
      dyz     :     0.007070
      dx2y2   :     0.003338
      dxy     :     0.008974
      f0      :     0.000072  f :     0.002000
      f+1     :     0.000264
      f-1     :     0.000439
      f+2     :     0.000034
      f-2     :     0.000629
      f+3     :     0.000478
      f-3     :     0.000084
  1 H s       :     0.685911  s :     0.685911
      pz      :     0.065509  p :     0.164361
      px      :     0.053197
      py      :     0.045654
  2 H s       :     0.653673  s :     0.653673
      pz      :     0.033526  p :     0.195453
      px      :     0.047779
      py      :     0.114148
  3 O s       :     3.465350  s :     3.465350
      pz      :     1.562301  p :     4.877125
      px      :     1.837237
      py      :     1.477588
      dz2     :     0.013928  d :     0.029645
      dxz     :     0.001627
      dyz     :     0.004027
      dx2y2   :     0.003935
      dxy     :     0.006128
      f0      :     0.000359  f :     0.001977
      f+1     :     0.000189
      f-1     :     0.000713
      f+2     :     0.000044
      f-2     :     0.000043
      f+3     :     0.000563
      f-3     :     0.000067
  4 H s       :     0.682127  s :     0.682127
      pz      :     0.090499  p :     0.171538
      px      :     0.043648
      py      :     0.037391
  5 H s       :     0.671410  s :     0.671410
      pz      :     0.030521  p :     0.184401
      px      :     0.052627
      py      :     0.101253
  6 O s       :     3.468366  s :     3.468366
      pz      :     1.550749  p :     4.796377
      px      :     1.457580
      py      :     1.788048
      dz2     :     0.015458  d :     0.032881
      dxz     :     0.004129
      dyz     :     0.001435
      dx2y2   :     0.005373
      dxy     :     0.006486
      f0      :     0.000361  f :     0.002108
      f+1     :     0.000752
      f-1     :     0.000214
      f+2     :     0.000042
      f-2     :     0.000046
      f+3     :     0.000075
      f-3     :     0.000618
  7 H s       :     0.666715  s :     0.666715
      pz      :     0.080587  p :     0.158804
      px      :     0.035401
      py      :     0.042816
  8 H s       :     0.667765  s :     0.667765
      pz      :     0.029139  p :     0.153752
      px      :     0.075260
      py      :     0.049353
  9 O s       :     3.452796  s :     3.452796
      pz      :     1.518077  p :     4.805606
      px      :     1.554327
      py      :     1.733202
      dz2     :     0.016109  d :     0.031580
      dxz     :     0.002033
      dyz     :     0.001895
      dx2y2   :     0.003389
      dxy     :     0.008154
      f0      :     0.000463  f :     0.002110
      f+1     :     0.000576
      f-1     :     0.000334
      f+2     :     0.000022
      f-2     :     0.000051
      f+3     :     0.000026
      f-3     :     0.000640
 10 H s       :     0.668588  s :     0.668588
      pz      :     0.080902  p :     0.159238
      px      :     0.036489
      py      :     0.041847
 11 H s       :     0.665724  s :     0.665724
      pz      :     0.029600  p :     0.174102
      px      :     0.086507
      py      :     0.057995
 12 O s       :     3.473952  s :     3.473952
      pz      :     1.505573  p :     4.819909
      px      :     1.787797
      py      :     1.526539
      dz2     :     0.016947  d :     0.033792
      dxz     :     0.002550
      dyz     :     0.002151
      dx2y2   :     0.002309
      dxy     :     0.009835
      f0      :     0.000498  f :     0.002226
      f+1     :     0.000330
      f-1     :     0.000598
      f+2     :     0.000026
      f-2     :     0.000048
      f+3     :     0.000723
      f-3     :     0.000003
 13 H s       :     0.681368  s :     0.681368
      pz      :     0.079928  p :     0.157686
      px      :     0.042351
      py      :     0.035406
 14 H s       :     0.672709  s :     0.672709
      pz      :     0.029565  p :     0.156597
      px      :     0.054766
      py      :     0.072266
 15 O s       :     3.461837  s :     3.461837
      pz      :     1.688917  p :     4.802808
      px      :     1.745896
      py      :     1.367995
      dz2     :     0.005499  d :     0.031278
      dxz     :     0.005328
      dyz     :     0.006830
      dx2y2   :     0.004152
      dxy     :     0.009469
      f0      :     0.000093  f :     0.002051
      f+1     :     0.000268
      f-1     :     0.000445
      f+2     :     0.000033
      f-2     :     0.000600
      f+3     :     0.000521
      f-3     :     0.000089
 16 H s       :     0.668754  s :     0.668754
      pz      :     0.066876  p :     0.164182
      px      :     0.052644
      py      :     0.044662
 17 H s       :     0.653465  s :     0.653465
      pz      :     0.033221  p :     0.149560
      px      :     0.043352
      py      :     0.072987


                      *****************************
                      * MAYER POPULATION ANALYSIS *
                      *****************************

  NA   - Mulliken gross atomic population
  ZA   - Total nuclear charge
  QA   - Mulliken gross atomic charge
  VA   - Mayer's total valence
  BVA  - Mayer's bonded valence
  FA   - Mayer's free valence

  ATOM       NA         ZA         QA         VA         BVA        FA
  0 O      8.7677     8.0000    -0.7677     1.6877     1.6877     0.0000
  1 H      0.6628     1.0000     0.3372     0.9022     0.9022    -0.0000
  2 H      0.6073     1.0000     0.3927     0.8840     0.8840     0.0000
  3 O      8.7637     8.0000    -0.7637     1.7033     1.7033     0.0000
  4 H      0.6300     1.0000     0.3700     0.8867     0.8867     0.0000
  5 H      0.6348     1.0000     0.3652     0.9059     0.9059    -0.0000
  6 O      8.7150     8.0000    -0.7150     1.7769     1.7769    -0.0000
  7 H      0.6295     1.0000     0.3705     0.8773     0.8773    -0.0000
  8 H      0.6319     1.0000     0.3681     0.8853     0.8853     0.0000
  9 O      8.7347     8.0000    -0.7347     1.7486     1.7486    -0.0000
 10 H      0.6352     1.0000     0.3648     0.8826     0.8826    -0.0000
 11 H      0.6052     1.0000     0.3948     0.8742     0.8742    -0.0000
 12 O      8.6933     8.0000    -0.6933     1.7825     1.7825     0.0000
 13 H      0.6600     1.0000     0.3400     0.9000     0.9000     0.0000
 14 H      0.6447     1.0000     0.3553     0.8879     0.8879     0.0000
 15 O      8.7498     8.0000    -0.7498     1.7510     1.7510    -0.0000
 16 H      0.6276     1.0000     0.3724     0.8769     0.8769    -0.0000
 17 H      0.6069     1.0000     0.3931     0.8613     0.8613    -0.0000

  Mayer bond orders larger than 0.100000
B(  0-O ,  1-H ) :   0.8962 B(  0-O ,  2-H ) :   0.8086 B(  3-O ,  4-H ) :   0.8693 
B(  3-O ,  5-H ) :   0.8452 B(  6-O ,  7-H ) :   0.8705 B(  6-O ,  8-H ) :   0.8671 
B(  9-O , 10-H ) :   0.8741 B(  9-O , 11-H ) :   0.8351 B( 12-O , 13-H ) :   0.8927 
B( 12-O , 14-H ) :   0.8830 B( 15-O , 16-H ) :   0.8676 B( 15-O , 17-H ) :   0.8471 


-------
TIMINGS
-------

Total SCF time: 0 days 0 hours 0 min 10 sec 

Total time                  ....      10.274 sec
Sum of individual times     ....      10.020 sec  ( 97.5%)

Fock matrix formation       ....       9.657 sec  ( 94.0%)
Diagonalization             ....       0.076 sec  (  0.7%)
Density matrix formation    ....       0.008 sec  (  0.1%)
Population analysis         ....       0.026 sec  (  0.3%)
Initial guess               ....       0.140 sec  (  1.4%)
Orbital Transformation      ....       0.000 sec  (  0.0%)
Orbital Orthonormalization  ....       0.000 sec  (  0.0%)
DIIS solution               ....       0.028 sec  (  0.3%)
SOSCF solution              ....       0.032 sec  (  0.3%)


           ************************************************************
           *        Program running with 6 parallel MPI-processes     *
           *              working on a common directory               *
           ************************************************************

------------------------------------------------------------------------------
                                ORCA  MP2 
------------------------------------------------------------------------------

Freezing NCore=12 chemical core electrons
MP2 will be done in the AO integral direct mode
The Q1-step will be done using symmetric double matrices
Dimension of the basis                    ...  258
Memory devoted for MP2                    ... 8000 MB   
Memory needed for all in one shot         ...  264 MB
Number of MOs that can be treated together...  120      
MP2 density construction                  ... relaxed
The MP2 gradient is requested => amplitudes will be stored on disk
Total number of MOs              ...   24
Number of MOs treated per batch  ...    4 
Number of batches necessary      ...    1 
OPERATORS   0/  0 PASS   0
-----------------------------------------------
 MP2 CORRELATION ENERGY   :     -1.546865024 Eh
-----------------------------------------------


---------------------
MP2 DENSITY FORMATION
---------------------

Completing the external part of the density      ... done
Storing the unrelaxed density                    ... done

Calculating G(D)                                 ... done
Completing the Lagrangian                        ... done
Solving the Z-vector equations                   ... 

------------------------------------------------------------------------------
                           ORCA CP-SCF CALCULATION
------------------------------------------------------------------------------

Input orbitals are from        ... 12h2o.su.etal.mol2,4,7,8,9,10-orca.engrad-mp2.def2tzvp.frozencore.gbw
Input Perturbation             ... 12h2o.su.etal.mol2,4,7,8,9,10-orca.engrad-mp2.def2tzvp.frozencore.pin.tmp
Wavefunction output            ... 12h2o.su.etal.mol2,4,7,8,9,10-orca.engrad-mp2.def2tzvp.frozencore.pout.tmp
Perturbation mode              ... Real perturbation (singlet)
Solver                         ... POPLE
Max. number of iterations      ... 128
Convergence tolerance          ... 1.000e-08
Integral handling              ... Direct
Number of perturbations        ... 1
Number of operators            ... 1
Orbital ranges used for CP-SCF:
 Operator 0:  Orbitals   0... 29  to  30...257
Variables per vector in CP-SCF ... 6840
Number of vectors sought       ... 1
     CP-SCF ITERATION   0: 
     CP-SCF ITERATION   1:      0.000743426751
     CP-SCF ITERATION   2:      0.000017588730
     CP-SCF ITERATION   3:      0.000000794669
     CP-SCF ITERATION   4:      0.000000069622
     CP-SCF ITERATION   5:      0.000000005609
                                                 ... done
Finalizing the relaxed density                   ... done
Transforming P to the AO basis                   ... done
Storing the relaxed density                      ... done

------------------------------------
ENERGY WEIGHTED DENSITY FINALIZATION
------------------------------------

Gathering the parts of the W-matrix              ...                                                      done
Forming the Z-density                            ... done
Transforming Z to the AO basis                   ... done
Calculating G(Z)                                 ... done
Finalizing the W-matrix                          ...                                                      done
Transforming W to the AO basis and storing       ... done

                *********************************************
                * UNRELAXED MP2 DENSITY POPULATION ANALYSIS *
                *********************************************

------------------------------------------------------------------------------
                           ORCA POPULATION ANALYSIS
------------------------------------------------------------------------------
Input electron density              ... 12h2o.su.etal.mol2,4,7,8,9,10-orca.engrad-mp2.def2tzvp.frozencore.pmp2ur
BaseName (.gbw .S,...)              ... 12h2o.su.etal.mol2,4,7,8,9,10-orca.engrad-mp2.def2tzvp.frozencore

                    ********************************
                    * MULLIKEN POPULATION ANALYSIS *
                    ********************************

-----------------------
MULLIKEN ATOMIC CHARGES
-----------------------
   0 O :   -0.762157
   1 H :    0.334993
   2 H :    0.388143
   3 O :   -0.757620
   4 H :    0.367138
   5 H :    0.360977
   6 O :   -0.708868
   7 H :    0.368115
   8 H :    0.365282
   9 O :   -0.728186
  10 H :    0.362281
  11 H :    0.391493
  12 O :   -0.688388
  13 H :    0.337603
  14 H :    0.352973
  15 O :   -0.744036
  16 H :    0.370106
  17 H :    0.390150
Sum of atomic charges:   -0.0000000

--------------------------------
MULLIKEN REDUCED ORBITAL CHARGES
--------------------------------
  0 O s       :     3.803445  s :     3.803445
      pz      :     1.710076  p :     4.904069
      px      :     1.790122
      py      :     1.403872
      dz2     :     0.009445  d :     0.050613
      dxz     :     0.010840
      dyz     :     0.010007
      dx2y2   :     0.007818
      dxy     :     0.012502
      f0      :     0.000455  f :     0.004029
      f+1     :     0.000546
      f-1     :     0.000690
      f+2     :     0.000438
      f-2     :     0.000724
      f+3     :     0.000715
      f-3     :     0.000461
  1 H s       :     0.617308  s :     0.617308
      pz      :     0.017569  p :     0.047699
      px      :     0.015786
      py      :     0.014344
  2 H s       :     0.553117  s :     0.553117
      pz      :     0.011538  p :     0.058740
      px      :     0.014785
      py      :     0.032418
  3 O s       :     3.800329  s :     3.800329
      pz      :     1.561634  p :     4.901851
      px      :     1.862223
      py      :     1.477994
      dz2     :     0.016234  d :     0.051457
      dxz     :     0.008102
      dyz     :     0.008262
      dx2y2   :     0.008481
      dxy     :     0.010378
      f0      :     0.000554  f :     0.003982
      f+1     :     0.000491
      f-1     :     0.000810
      f+2     :     0.000440
      f-2     :     0.000406
      f+3     :     0.000799
      f-3     :     0.000482
  4 H s       :     0.582193  s :     0.582193
      pz      :     0.023780  p :     0.050669
      px      :     0.014630
      py      :     0.012259
  5 H s       :     0.582889  s :     0.582889
      pz      :     0.010853  p :     0.056134
      px      :     0.016625
      py      :     0.028656
  6 O s       :     3.801867  s :     3.801867
      pz      :     1.547540  p :     4.850071
      px      :     1.466339
      py      :     1.836192
      dz2     :     0.017160  d :     0.052922
      dxz     :     0.008261
      dyz     :     0.007886
      dx2y2   :     0.009145
      dxy     :     0.010470
      f0      :     0.000551  f :     0.004009
      f+1     :     0.000832
      f-1     :     0.000494
      f+2     :     0.000433
      f-2     :     0.000407
      f+3     :     0.000479
      f-3     :     0.000813
  7 H s       :     0.586600  s :     0.586600
      pz      :     0.019196  p :     0.045285
      px      :     0.012000
      py      :     0.014088
  8 H s       :     0.590786  s :     0.590786
      pz      :     0.010550  p :     0.043933
      px      :     0.018645
      py      :     0.014738
  9 O s       :     3.790245  s :     3.790245
      pz      :     1.516342  p :     4.881694
      px      :     1.585653
      py      :     1.779700
      dz2     :     0.017401  d :     0.052246
      dxz     :     0.006680
      dyz     :     0.007952
      dx2y2   :     0.008057
      dxy     :     0.012155
      f0      :     0.000632  f :     0.004001
      f+1     :     0.000756
      f-1     :     0.000534
      f+2     :     0.000415
      f-2     :     0.000424
      f+3     :     0.000427
      f-3     :     0.000812
 10 H s       :     0.592551  s :     0.592551
      pz      :     0.019384  p :     0.045168
      px      :     0.012300
      py      :     0.013483
 11 H s       :     0.557814  s :     0.557814
      pz      :     0.010341  p :     0.050693
      px      :     0.024223
      py      :     0.016129
 12 O s       :     3.810211  s :     3.810211
      pz      :     1.487834  p :     4.821349
      px      :     1.806464
      py      :     1.527051
      dz2     :     0.017256  d :     0.052746
      dxz     :     0.008509
      dyz     :     0.006582
      dx2y2   :     0.007583
      dxy     :     0.012816
      f0      :     0.000644  f :     0.004083
      f+1     :     0.000545
      f-1     :     0.000747
      f+2     :     0.000413
      f-2     :     0.000419
      f+3     :     0.000877
      f-3     :     0.000437
 13 H s       :     0.615565  s :     0.615565
      pz      :     0.018894  p :     0.046832
      px      :     0.014785
      py      :     0.013153
 14 H s       :     0.600995  s :     0.600995
      pz      :     0.011257  p :     0.046032
      px      :     0.016249
      py      :     0.018526
 15 O s       :     3.803694  s :     3.803694
      pz      :     1.723954  p :     4.885064
      px      :     1.778969
      py      :     1.382141
      dz2     :     0.009709  d :     0.051241
      dxz     :     0.010906
      dyz     :     0.010046
      dx2y2   :     0.008009
      dxy     :     0.012570
      f0      :     0.000458  f :     0.004038
      f+1     :     0.000546
      f-1     :     0.000699
      f+2     :     0.000431
      f-2     :     0.000712
      f+3     :     0.000729
      f-3     :     0.000464
 16 H s       :     0.583441  s :     0.583441
      pz      :     0.017544  p :     0.046453
      px      :     0.015261
      py      :     0.013648
 17 H s       :     0.567972  s :     0.567972
      pz      :     0.011123  p :     0.041878
      px      :     0.012679
      py      :     0.018076


                     *******************************
                     * LOEWDIN POPULATION ANALYSIS *
                     *******************************

----------------------
LOEWDIN ATOMIC CHARGES
----------------------
   0 O :   -0.375936
   1 H :    0.148463
   2 H :    0.148326
   3 O :   -0.371286
   4 H :    0.144315
   5 H :    0.141666
   6 O :   -0.295447
   7 H :    0.173100
   8 H :    0.176704
   9 O :   -0.288042
  10 H :    0.170716
  11 H :    0.158039
  12 O :   -0.326985
  13 H :    0.159491
  14 H :    0.169384
  15 O :   -0.293570
  16 H :    0.165890
  17 H :    0.195170

-------------------------------
LOEWDIN REDUCED ORBITAL CHARGES
-------------------------------
  0 O s       :     3.463651  s :     3.463651
      pz      :     1.695957  p :     4.850070
      px      :     1.768552
      py      :     1.385561
      dz2     :     0.009779  d :     0.057453
      dxz     :     0.011374
      dyz     :     0.012669
      dx2y2   :     0.008947
      dxy     :     0.014684
      f0      :     0.000450  f :     0.004763
      f+1     :     0.000647
      f-1     :     0.000851
      f+2     :     0.000409
      f-2     :     0.001038
      f+3     :     0.000896
      f-3     :     0.000472
  1 H s       :     0.683897  s :     0.683897
      pz      :     0.066800  p :     0.167640
      px      :     0.054216
      py      :     0.046624
  2 H s       :     0.653765  s :     0.653765
      pz      :     0.034359  p :     0.197909
      px      :     0.048654
      py      :     0.114896
  3 O s       :     3.461691  s :     3.461691
      pz      :     1.552499  p :     4.846902
      px      :     1.825857
      py      :     1.468546
      dz2     :     0.019774  d :     0.057942
      dxz     :     0.007124
      dyz     :     0.009477
      dx2y2   :     0.009658
      dxy     :     0.011909
      f0      :     0.000774  f :     0.004752
      f+1     :     0.000577
      f-1     :     0.001152
      f+2     :     0.000415
      f-2     :     0.000415
      f+3     :     0.000974
      f-3     :     0.000444
  4 H s       :     0.681051  s :     0.681051
      pz      :     0.091963  p :     0.174635
      px      :     0.044454
      py      :     0.038217
  5 H s       :     0.671035  s :     0.671035
      pz      :     0.031365  p :     0.187299
      px      :     0.053514
      py      :     0.102420
  6 O s       :     3.464472  s :     3.464472
      pz      :     1.541041  p :     4.765248
      px      :     1.448736
      py      :     1.775472
      dz2     :     0.021184  d :     0.060854
      dxz     :     0.009444
      dyz     :     0.006923
      dx2y2   :     0.011071
      dxy     :     0.012232
      f0      :     0.000773  f :     0.004873
      f+1     :     0.001184
      f-1     :     0.000603
      f+2     :     0.000413
      f-2     :     0.000416
      f+3     :     0.000455
      f-3     :     0.001029
  7 H s       :     0.665097  s :     0.665097
      pz      :     0.082070  p :     0.161803
      px      :     0.036137
      py      :     0.043596
  8 H s       :     0.666501  s :     0.666501
      pz      :     0.029931  p :     0.156794
      px      :     0.076587
      py      :     0.050277
  9 O s       :     3.449008  s :     3.449008
      pz      :     1.508665  p :     4.774181
      px      :     1.544766
      py      :     1.720750
      dz2     :     0.021937  d :     0.059948
      dxz     :     0.007420
      dyz     :     0.007409
      dx2y2   :     0.009055
      dxy     :     0.014126
      f0      :     0.000884  f :     0.004905
      f+1     :     0.000998
      f-1     :     0.000733
      f+2     :     0.000390
      f-2     :     0.000426
      f+3     :     0.000409
      f-3     :     0.001065
 10 H s       :     0.666979  s :     0.666979
      pz      :     0.082399  p :     0.162304
      px      :     0.037258
      py      :     0.042647
 11 H s       :     0.665094  s :     0.665094
      pz      :     0.030337  p :     0.176867
      px      :     0.087633
      py      :     0.058897
 12 O s       :     3.470194  s :     3.470194
      pz      :     1.496392  p :     4.790672
      px      :     1.776853
      py      :     1.517428
      dz2     :     0.022611  d :     0.061155
      dxz     :     0.007883
      dyz     :     0.007395
      dx2y2   :     0.007734
      dxy     :     0.015532
      f0      :     0.000913  f :     0.004964
      f+1     :     0.000723
      f-1     :     0.001014
      f+2     :     0.000388
      f-2     :     0.000417
      f+3     :     0.001133
      f-3     :     0.000375
 13 H s       :     0.679560  s :     0.679560
      pz      :     0.081603  p :     0.160949
      px      :     0.043188
      py      :     0.036158
 14 H s       :     0.670913  s :     0.670913
      pz      :     0.030292  p :     0.159703
      px      :     0.055800
      py      :     0.073610
 15 O s       :     3.458074  s :     3.458074
      pz      :     1.677492  p :     4.771029
      px      :     1.733771
      py      :     1.359766
      dz2     :     0.011193  d :     0.059652
      dxz     :     0.011116
      dyz     :     0.012443
      dx2y2   :     0.009739
      dxy     :     0.015162
      f0      :     0.000477  f :     0.004814
      f+1     :     0.000655
      f-1     :     0.000856
      f+2     :     0.000409
      f-2     :     0.001008
      f+3     :     0.000935
      f-3     :     0.000474
 16 H s       :     0.666995  s :     0.666995
      pz      :     0.068060  p :     0.167114
      px      :     0.053593
      py      :     0.045461
 17 H s       :     0.652387  s :     0.652387
      pz      :     0.034046  p :     0.152442
      px      :     0.044290
      py      :     0.074106


                      *****************************
                      * MAYER POPULATION ANALYSIS *
                      *****************************

  NA   - Mulliken gross atomic population
  ZA   - Total nuclear charge
  QA   - Mulliken gross atomic charge
  VA   - Mayer's total valence
  BVA  - Mayer's bonded valence
  FA   - Mayer's free valence

  ATOM       NA         ZA         QA         VA         BVA        FA
  0 O      8.7622     8.0000    -0.7622     2.0023     1.6097     0.3926
  1 H      0.6650     1.0000     0.3350     0.9082     0.8606     0.0476
  2 H      0.6119     1.0000     0.3881     0.8915     0.8455     0.0460
  3 O      8.7576     8.0000    -0.7576     2.0172     1.6244     0.3928
  4 H      0.6329     1.0000     0.3671     0.8929     0.8471     0.0458
  5 H      0.6390     1.0000     0.3610     0.9135     0.8657     0.0478
  6 O      8.7089     8.0000    -0.7089     2.0844     1.6958     0.3886
  7 H      0.6319     1.0000     0.3681     0.8830     0.8373     0.0457
  8 H      0.6347     1.0000     0.3653     0.8916     0.8444     0.0473
  9 O      8.7282     8.0000    -0.7282     2.0580     1.6701     0.3878
 10 H      0.6377     1.0000     0.3623     0.8884     0.8422     0.0462
 11 H      0.6085     1.0000     0.3915     0.8806     0.8365     0.0440
 12 O      8.6884     8.0000    -0.6884     2.0854     1.7003     0.3851
 13 H      0.6624     1.0000     0.3376     0.9062     0.8581     0.0481
 14 H      0.6470     1.0000     0.3530     0.8938     0.8471     0.0467
 15 O      8.7440     8.0000    -0.7440     2.0643     1.6717     0.3926
 16 H      0.6299     1.0000     0.3701     0.8823     0.8376     0.0448
 17 H      0.6098     1.0000     0.3902     0.8673     0.8211     0.0462

  Mayer bond orders larger than 0.100000
B(  0-O ,  1-H ) :   0.8552 B(  0-O ,  2-H ) :   0.7722 B(  3-O ,  4-H ) :   0.8301 
B(  3-O ,  5-H ) :   0.8067 B(  6-O ,  7-H ) :   0.8309 B(  6-O ,  8-H ) :   0.8270 
B(  9-O , 10-H ) :   0.8344 B(  9-O , 11-H ) :   0.7986 B( 12-O , 13-H ) :   0.8512 
B( 12-O , 14-H ) :   0.8425 B( 15-O , 16-H ) :   0.8290 B( 15-O , 17-H ) :   0.8076 



                *******************************************
                * RELAXED MP2 DENSITY POPULATION ANALYSIS *
                *******************************************

------------------------------------------------------------------------------
                           ORCA POPULATION ANALYSIS
------------------------------------------------------------------------------
Input electron density              ... 12h2o.su.etal.mol2,4,7,8,9,10-orca.engrad-mp2.def2tzvp.frozencore.pmp2re
BaseName (.gbw .S,...)              ... 12h2o.su.etal.mol2,4,7,8,9,10-orca.engrad-mp2.def2tzvp.frozencore

                    ********************************
                    * MULLIKEN POPULATION ANALYSIS *
                    ********************************

-----------------------
MULLIKEN ATOMIC CHARGES
-----------------------
   0 O :   -0.742493
   1 H :    0.328689
   2 H :    0.365230
   3 O :   -0.733784
   4 H :    0.354147
   5 H :    0.339952
   6 O :   -0.685788
   7 H :    0.361436
   8 H :    0.356220
   9 O :   -0.701446
  10 H :    0.355880
  11 H :    0.374973
  12 O :   -0.674262
  13 H :    0.331235
  14 H :    0.346422
  15 O :   -0.721448
  16 H :    0.363091
  17 H :    0.381947
Sum of atomic charges:   -0.0000000

--------------------------------
MULLIKEN REDUCED ORBITAL CHARGES
--------------------------------
  0 O s       :     3.804534  s :     3.804534
      pz      :     1.704370  p :     4.885295
      px      :     1.783472
      py      :     1.397452
      dz2     :     0.009240  d :     0.048701
      dxz     :     0.010520
      dyz     :     0.009444
      dx2y2   :     0.007693
      dxy     :     0.011804
      f0      :     0.000453  f :     0.003963
      f+1     :     0.000538
      f-1     :     0.000673
      f+2     :     0.000438
      f-2     :     0.000704
      f+3     :     0.000697
      f-3     :     0.000459
  1 H s       :     0.622851  s :     0.622851
      pz      :     0.017691  p :     0.048460
      px      :     0.016402
      py      :     0.014367
  2 H s       :     0.575786  s :     0.575786
      pz      :     0.012292  p :     0.058983
      px      :     0.015337
      py      :     0.031353
  3 O s       :     3.797214  s :     3.797214
      pz      :     1.556840  p :     4.883069
      px      :     1.855226
      py      :     1.471002
      dz2     :     0.015194  d :     0.049585
      dxz     :     0.008144
      dyz     :     0.008034
      dx2y2   :     0.008266
      dxy     :     0.009947
      f0      :     0.000542  f :     0.003916
      f+1     :     0.000485
      f-1     :     0.000783
      f+2     :     0.000439
      f-2     :     0.000405
      f+3     :     0.000781
      f-3     :     0.000480
  4 H s       :     0.594560  s :     0.594560
      pz      :     0.023074  p :     0.051293
      px      :     0.015588
      py      :     0.012631
  5 H s       :     0.603388  s :     0.603388
      pz      :     0.011595  p :     0.056660
      px      :     0.017236
      py      :     0.027829
  6 O s       :     3.805313  s :     3.805313
      pz      :     1.541116  p :     4.825774
      px      :     1.463004
      py      :     1.821654
      dz2     :     0.015937  d :     0.050766
      dxz     :     0.008005
      dyz     :     0.007947
      dx2y2   :     0.008869
      dxy     :     0.010009
      f0      :     0.000536  f :     0.003934
      f+1     :     0.000803
      f-1     :     0.000488
      f+2     :     0.000433
      f-2     :     0.000405
      f+3     :     0.000477
      f-3     :     0.000791
  7 H s       :     0.592650  s :     0.592650
      pz      :     0.018488  p :     0.045914
      px      :     0.012381
      py      :     0.015045
  8 H s       :     0.599223  s :     0.599223
      pz      :     0.011272  p :     0.044557
      px      :     0.017847
      py      :     0.015438
  9 O s       :     3.789759  s :     3.789759
      pz      :     1.511005  p :     4.857409
      px      :     1.584642
      py      :     1.761762
      dz2     :     0.016117  d :     0.050350
      dxz     :     0.006633
      dyz     :     0.007933
      dx2y2   :     0.008062
      dxy     :     0.011606
      f0      :     0.000614  f :     0.003928
      f+1     :     0.000735
      f-1     :     0.000524
      f+2     :     0.000416
      f-2     :     0.000423
      f+3     :     0.000427
      f-3     :     0.000789
 10 H s       :     0.598336  s :     0.598336
      pz      :     0.018625  p :     0.045784
      px      :     0.012821
      py      :     0.014338
 11 H s       :     0.573898  s :     0.573898
      pz      :     0.010946  p :     0.051129
      px      :     0.023714
      py      :     0.016469
 12 O s       :     3.815338  s :     3.815338
      pz      :     1.481765  p :     4.804516
      px      :     1.800695
      py      :     1.522056
      dz2     :     0.015845  d :     0.050401
      dxz     :     0.008477
      dyz     :     0.006514
      dx2y2   :     0.007501
      dxy     :     0.012064
      f0      :     0.000625  f :     0.004006
      f+1     :     0.000534
      f-1     :     0.000725
      f+2     :     0.000414
      f-2     :     0.000418
      f+3     :     0.000853
      f-3     :     0.000438
 13 H s       :     0.621118  s :     0.621118
      pz      :     0.018112  p :     0.047647
      px      :     0.015786
      py      :     0.013750
 14 H s       :     0.606854  s :     0.606854
      pz      :     0.011930  p :     0.046725
      px      :     0.016783
      py      :     0.018011
 15 O s       :     3.807254  s :     3.807254
      pz      :     1.715508  p :     4.861108
      px      :     1.766772
      py      :     1.378828
      dz2     :     0.009502  d :     0.049121
      dxz     :     0.010648
      dyz     :     0.009455
      dx2y2   :     0.007747
      dxy     :     0.011768
      f0      :     0.000457  f :     0.003965
      f+1     :     0.000538
      f-1     :     0.000680
      f+2     :     0.000430
      f-2     :     0.000691
      f+3     :     0.000708
      f-3     :     0.000462
 16 H s       :     0.589784  s :     0.589784
      pz      :     0.017697  p :     0.047126
      px      :     0.015857
      py      :     0.013571
 17 H s       :     0.575687  s :     0.575687
      pz      :     0.011931  p :     0.042366
      px      :     0.013324
      py      :     0.017111


                     *******************************
                     * LOEWDIN POPULATION ANALYSIS *
                     *******************************

----------------------
LOEWDIN ATOMIC CHARGES
----------------------
   0 O :   -0.378012
   1 H :    0.150336
   2 H :    0.140830
   3 O :   -0.371241
   4 H :    0.140803
   5 H :    0.135445
   6 O :   -0.290747
   7 H :    0.174442
   8 H :    0.177014
   9 O :   -0.282206
  10 H :    0.172066
  11 H :    0.153223
  12 O :   -0.329430
  13 H :    0.160966
  14 H :    0.171091
  15 O :   -0.287791
  16 H :    0.167531
  17 H :    0.195680

-------------------------------
LOEWDIN REDUCED ORBITAL CHARGES
-------------------------------
  0 O s       :     3.465161  s :     3.465161
      pz      :     1.695511  p :     4.851393
      px      :     1.766726
      py      :     1.389156
      dz2     :     0.009726  d :     0.056657
      dxz     :     0.011275
      dyz     :     0.012305
      dx2y2   :     0.008933
      dxy     :     0.014418
      f0      :     0.000453  f :     0.004801
      f+1     :     0.000647
      f-1     :     0.000863
      f+2     :     0.000410
      f-2     :     0.001039
      f+3     :     0.000913
      f-3     :     0.000476
  1 H s       :     0.681815  s :     0.681815
      pz      :     0.066841  p :     0.167849
      px      :     0.054775
      py      :     0.046233
  2 H s       :     0.661016  s :     0.661016
      pz      :     0.035020  p :     0.198155
      px      :     0.049242
      py      :     0.113892
  3 O s       :     3.462580  s :     3.462580
      pz      :     1.553142  p :     4.846703
      px      :     1.822750
      py      :     1.470811
      dz2     :     0.019341  d :     0.057175
      dxz     :     0.007189
      dyz     :     0.009284
      dx2y2   :     0.009585
      dxy     :     0.011776
      f0      :     0.000776  f :     0.004784
      f+1     :     0.000577
      f-1     :     0.001165
      f+2     :     0.000417
      f-2     :     0.000414
      f+3     :     0.000988
      f-3     :     0.000447
  4 H s       :     0.683957  s :     0.683957
      pz      :     0.091367  p :     0.175241
      px      :     0.045399
      py      :     0.038475
  5 H s       :     0.676359  s :     0.676359
      pz      :     0.031919  p :     0.188195
      px      :     0.054206
      py      :     0.102071
  6 O s       :     3.466127  s :     3.466127
      pz      :     1.542217  p :     4.759997
      px      :     1.452185
      py      :     1.765596
      dz2     :     0.020546  d :     0.059734
      dxz     :     0.009207
      dyz     :     0.006998
      dx2y2   :     0.010949
      dxy     :     0.012033
      f0      :     0.000769  f :     0.004889
      f+1     :     0.001191
      f-1     :     0.000604
      f+2     :     0.000415
      f-2     :     0.000415
      f+3     :     0.000457
      f-3     :     0.001037
  7 H s       :     0.663877  s :     0.663877
      pz      :     0.081281  p :     0.161681
      px      :     0.036027
      py      :     0.044373
  8 H s       :     0.666217  s :     0.666217
      pz      :     0.030389  p :     0.156769
      px      :     0.075473
      py      :     0.050907
  9 O s       :     3.449858  s :     3.449858
      pz      :     1.510931  p :     4.768254
      px      :     1.546659
      py      :     1.710664
      dz2     :     0.021302  d :     0.059167
      dxz     :     0.007289
      dyz     :     0.007440
      dx2y2   :     0.009158
      dxy     :     0.013977
      f0      :     0.000883  f :     0.004928
      f+1     :     0.001006
      f-1     :     0.000734
      f+2     :     0.000392
      f-2     :     0.000426
      f+3     :     0.000410
      f-3     :     0.001077
 10 H s       :     0.665664  s :     0.665664
      pz      :     0.081484  p :     0.162270
      px      :     0.037528
      py      :     0.043258
 11 H s       :     0.669499  s :     0.669499
      pz      :     0.030721  p :     0.177278
      px      :     0.087233
      py      :     0.059324
 12 O s       :     3.472471  s :     3.472471
      pz      :     1.498163  p :     4.792214
      px      :     1.774685
      py      :     1.519366
      dz2     :     0.021791  d :     0.059766
      dxz     :     0.007911
      dyz     :     0.007242
      dx2y2   :     0.007661
      dxy     :     0.015162
      f0      :     0.000913  f :     0.004979
      f+1     :     0.000720
      f-1     :     0.001022
      f+2     :     0.000390
      f-2     :     0.000417
      f+3     :     0.001141
      f-3     :     0.000375
 13 H s       :     0.677733  s :     0.677733
      pz      :     0.080866  p :     0.161302
      px      :     0.044146
      py      :     0.036290
 14 H s       :     0.669226  s :     0.669226
      pz      :     0.030551  p :     0.159684
      px      :     0.056288
      py      :     0.072844
 15 O s       :     3.459844  s :     3.459844
      pz      :     1.672888  p :     4.764453
      px      :     1.726832
      py      :     1.364733
      dz2     :     0.011164  d :     0.058659
      dxz     :     0.011116
      dyz     :     0.012088
      dx2y2   :     0.009536
      dxy     :     0.014755
      f0      :     0.000481  f :     0.004834
      f+1     :     0.000656
      f-1     :     0.000862
      f+2     :     0.000410
      f-2     :     0.001009
      f+3     :     0.000940
      f-3     :     0.000477
 16 H s       :     0.665615  s :     0.665615
      pz      :     0.068143  p :     0.166854
      px      :     0.054021
      py      :     0.044690
 17 H s       :     0.652112  s :     0.652112
      pz      :     0.034739  p :     0.152208
      px      :     0.044855
      py      :     0.072614


                      *****************************
                      * MAYER POPULATION ANALYSIS *
                      *****************************

  NA   - Mulliken gross atomic population
  ZA   - Total nuclear charge
  QA   - Mulliken gross atomic charge
  VA   - Mayer's total valence
  BVA  - Mayer's bonded valence
  FA   - Mayer's free valence

  ATOM       NA         ZA         QA         VA         BVA        FA
  0 O      8.7425     8.0000    -0.7425     2.0096     1.6218     0.3877
  1 H      0.6713     1.0000     0.3287     0.9121     0.8644     0.0477
  2 H      0.6348     1.0000     0.3652     0.9196     0.8744     0.0452
  3 O      8.7338     8.0000    -0.7338     2.0323     1.6447     0.3876
  4 H      0.6459     1.0000     0.3541     0.9095     0.8639     0.0456
  5 H      0.6600     1.0000     0.3400     0.9418     0.8949     0.0469
  6 O      8.6858     8.0000    -0.6858     2.1153     1.7326     0.3828
  7 H      0.6386     1.0000     0.3614     0.8887     0.8430     0.0457
  8 H      0.6438     1.0000     0.3562     0.9025     0.8556     0.0469
  9 O      8.7014     8.0000    -0.7014     2.0918     1.7098     0.3820
 10 H      0.6441     1.0000     0.3559     0.8940     0.8478     0.0462
 11 H      0.6250     1.0000     0.3750     0.9037     0.8602     0.0435
 12 O      8.6743     8.0000    -0.6743     2.0926     1.7125     0.3800
 13 H      0.6688     1.0000     0.3312     0.9114     0.8632     0.0481
 14 H      0.6536     1.0000     0.3464     0.8987     0.8520     0.0468
 15 O      8.7214     8.0000    -0.7214     2.1028     1.7166     0.3862
 16 H      0.6369     1.0000     0.3631     0.8878     0.8430     0.0447
 17 H      0.6181     1.0000     0.3819     0.8762     0.8302     0.0460

  Mayer bond orders larger than 0.100000
B(  0-O ,  1-H ) :   0.8585 B(  0-O ,  2-H ) :   0.7734 B(  3-O ,  4-H ) :   0.8356 
B(  3-O ,  5-H ) :   0.8080 B(  6-O ,  7-H ) :   0.8348 B(  6-O ,  8-H ) :   0.8303 
B(  9-O , 10-H ) :   0.8373 B(  9-O , 11-H ) :   0.8017 B( 12-O , 13-H ) :   0.8550 
B( 12-O , 14-H ) :   0.8471 B( 15-O , 16-H ) :   0.8323 B( 15-O , 17-H ) :   0.8112 



----------------------------------
MP2 DERIVATIVE INTEGRAL GENERATION
----------------------------------


Input Wavefunction Amplitudes       ... 12h2o.su.etal.mol2,4,7,8,9,10-orca.engrad-mp2.def2tzvp.frozencore.mp2tsaa.tmp
Input Correlated Electron Density   ... 12h2o.su.etal.mol2,4,7,8,9,10-orca.engrad-mp2.def2tzvp.frozencore.pmp2re
Input Energy Weighted Density       ... 12h2o.su.etal.mol2,4,7,8,9,10-orca.engrad-mp2.def2tzvp.frozencore.wmp2.tmp
Input SCF Electron Density          ... 12h2o.su.etal.mol2,4,7,8,9,10-orca.engrad-mp2.def2tzvp.frozencore.scfp

One-Electron Terms    ...
                        ... One-Electron Terms done
Prescreening matrices              ... done

Batch handling in the gradient evaluation:
Memory available                      ... 8000.0 MB
Memory per occupied orbital in Q2     ...   12.2 MB
Memory per occupied orbital in Q3     ...    0.1 MB
Total memory requirement per |i>      ...   12.3 MB
Max. Number of orbitals possible      ...    651
Number of orbitals treated per batch  ...     24
Number of batches to be done          ...      1
Batch   0: i=    6 ...    29

---------------------------------------
MP2 TOTAL ENERGY:     -457.914357468 Eh
---------------------------------------

The final MP2 gradient
  0:  -0.00173552  -0.00919635  -0.00173861
  1:  -0.00007682  -0.00157835  -0.00052359
  2:   0.00437019   0.01589024   0.00150193
  3:   0.00315193   0.00414154   0.00417318
  4:  -0.00220438   0.00367044  -0.00820294
  5:  -0.00420912  -0.01241193   0.00070382
  6:  -0.01352063   0.01022763  -0.00973998
  7:  -0.00166577   0.00016638   0.00628662
  8:   0.01623032  -0.00492263   0.00380125
  9:  -0.00199278  -0.00593229  -0.00832687
 10:   0.00184514  -0.00076186   0.00721934
 11:  -0.00125376  -0.00108295  -0.00156790
 12:  -0.00529444  -0.00669516   0.00949994
 13:  -0.00040924  -0.00164482  -0.00911576
 14:   0.00578268   0.00842134   0.00066479
 15:   0.00589140   0.02556557   0.00449888
 16:   0.00255214   0.00025341   0.00284480
 17:  -0.00746133  -0.02411022  -0.00197890

-----------------------------------
NORM OF THE MP2 GRADIENT:  0.057307
-----------------------------------

-------------------------   --------------------
FINAL SINGLE POINT ENERGY      -457.914357468286
-------------------------   --------------------


                            ***************************************
                            *     ORCA property calculations      *
                            ***************************************

                                    ---------------------
                                    Active property flags
                                    ---------------------
   (+) Dipole Moment


------------------------------------------------------------------------------
                       ORCA ELECTRIC PROPERTIES CALCULATION
------------------------------------------------------------------------------

Dipole Moment Calculation                       ... on
Quadrupole Moment Calculation                   ... off
Polarizability Calculation                      ... off
GBWName                                         ... 12h2o.su.etal.mol2,4,7,8,9,10-orca.engrad-mp2.def2tzvp.frozencore.gbw
Electron density file                           ... 12h2o.su.etal.mol2,4,7,8,9,10-orca.engrad-mp2.def2tzvp.frozencore.scfp
The origin for moment calculation is the CENTER OF MASS  = (-0.038497, -0.047474 -1.770594)

-------------
DIPOLE MOMENT
-------------
                                X             Y             Z
Electronic contribution:     -0.17097       0.14259       0.06860
Nuclear contribution   :      0.11114       0.11229      -1.26519
                        -----------------------------------------
Total Dipole Moment    :     -0.05984       0.25487      -1.19659
                        -----------------------------------------
Magnitude (a.u.)       :      1.22489
Magnitude (Debye)      :      3.11343



--------------------
Rotational spectrum 
--------------------
 
Rotational constants in cm-1:     0.046989     0.026038     0.020996 
Rotational constants in MHz :  1408.688146   780.603345   629.459187 

 Dipole components along the rotational axes: 
x,y,z [a.u.] :    -1.194688    -0.096591     0.252496 
x,y,z [Debye]:    -3.036655    -0.245514     0.641795 

 

                         *** MP2 UNRELAXED DENSITY ***

------------------------------------------------------------------------------
                       ORCA ELECTRIC PROPERTIES CALCULATION
------------------------------------------------------------------------------

Dipole Moment Calculation                       ... on
Quadrupole Moment Calculation                   ... off
Polarizability Calculation                      ... off
GBWName                                         ... 12h2o.su.etal.mol2,4,7,8,9,10-orca.engrad-mp2.def2tzvp.frozencore.gbw
Electron density file                           ... 12h2o.su.etal.mol2,4,7,8,9,10-orca.engrad-mp2.def2tzvp.frozencore.pmp2ur
The origin for moment calculation is the CENTER OF MASS  = (-0.038497, -0.047474 -1.770594)

-------------
DIPOLE MOMENT
-------------
                                X             Y             Z
Electronic contribution:     -0.17350       0.14346       0.08082
Nuclear contribution   :      0.11114       0.11229      -1.26519
                        -----------------------------------------
Total Dipole Moment    :     -0.06237       0.25575      -1.18437
                        -----------------------------------------
Magnitude (a.u.)       :      1.21327
Magnitude (Debye)      :      3.08388



--------------------
Rotational spectrum 
--------------------
 
Rotational constants in cm-1:     0.046989     0.026038     0.020996 
Rotational constants in MHz :  1408.688146   780.603345   629.459187 

 Dipole components along the rotational axes: 
x,y,z [a.u.] :    -1.183671    -0.091084     0.250287 
x,y,z [Debye]:    -3.008653    -0.231516     0.636179 

 

                           *** MP2 RELAXED DENSITY ***

------------------------------------------------------------------------------
                       ORCA ELECTRIC PROPERTIES CALCULATION
------------------------------------------------------------------------------

Dipole Moment Calculation                       ... on
Quadrupole Moment Calculation                   ... off
Polarizability Calculation                      ... off
GBWName                                         ... 12h2o.su.etal.mol2,4,7,8,9,10-orca.engrad-mp2.def2tzvp.frozencore.gbw
Electron density file                           ... 12h2o.su.etal.mol2,4,7,8,9,10-orca.engrad-mp2.def2tzvp.frozencore.pmp2re
The origin for moment calculation is the CENTER OF MASS  = (-0.038497, -0.047474 -1.770594)

-------------
DIPOLE MOMENT
-------------
                                X             Y             Z
Electronic contribution:     -0.17907       0.14093       0.09800
Nuclear contribution   :      0.11114       0.11229      -1.26519
                        -----------------------------------------
Total Dipole Moment    :     -0.06793       0.25321      -1.16719
                        -----------------------------------------
Magnitude (a.u.)       :      1.19627
Magnitude (Debye)      :      3.04067



--------------------
Rotational spectrum 
--------------------
 
Rotational constants in cm-1:     0.046989     0.026038     0.020996 
Rotational constants in MHz :  1408.688146   780.603345   629.459187 

 Dipole components along the rotational axes: 
x,y,z [a.u.] :    -1.166589    -0.084727     0.250889 
x,y,z [Debye]:    -2.965235    -0.215359     0.637708 

 

Timings for individual modules:

Sum of individual times         ...       57.057 sec (=   0.951 min)
GTO integral calculation        ...        1.017 sec (=   0.017 min)   1.8 %
SCF iterations                  ...       10.958 sec (=   0.183 min)  19.2 %
MP2 module                      ...       45.082 sec (=   0.751 min)  79.0 %
                             ****ORCA TERMINATED NORMALLY****
TOTAL RUN TIME: 0 days 0 hours 0 minutes 57 seconds 981 msec
