19
Energy:   -538.38606226
O   -1.14549113  -3.04786833   0.71494397
H   -1.36136217  -3.86716040   0.26953175
H   -1.71241575  -3.03736470   1.48612358
O   -0.59588070  -0.54165879  -1.35362435
H   -0.91301311  -0.59550647  -2.25515599
H   -0.77743857   0.36008561  -1.08881191
O    0.75881664   3.86826076  -0.63339458
H    0.88376170   4.27045306  -1.49296537
H    1.20721657   4.45643914  -0.02576349
O   -0.95096907   1.84734142  -0.00724028
H   -1.78541079   2.29606244   0.12909868
H   -0.33594805   2.54648283  -0.22901106
O    0.04862100  -0.19881558   1.55984257
H   -0.28179107   0.62659664   1.20522395
H    0.38577671   0.02996445   2.42599358
O    1.82768222  -2.32970321  -0.21757044
H    2.43075302  -2.01360416  -0.89033998
H    2.30127152  -3.04058123   0.21439883
Li   0.05309241  -1.59011855   0.17409986
