19
Energy:   -513.97465875
O   -0.57843961  -1.60158965  -0.25365608
H   -0.95410900  -0.97217454  -0.86923790
H   -0.79603551  -2.45750180  -0.62284204
O    0.27670457   2.98194019  -2.86719989
H    0.51356462   3.89988332  -2.73487615
H    0.36570102   2.84467828  -3.81031740
O    2.34724555  -1.33202983   1.07335496
H    2.66368545  -2.22018738   1.23850278
H    2.97573832  -0.96507295   0.45160635
O   -0.29892606  -1.93166625   2.82431906
H   -0.11282909  -1.98268725   3.76186726
H   -0.73830124  -2.75754417   2.62157057
O   -0.10214374   1.03169893   1.05671716
H   -0.21374069   1.83899995   1.55875603
H   -0.46803107   1.23229406   0.19525334
O   -1.57846482   0.86718483  -1.37742864
H   -1.18765124   1.42431502  -2.05055755
H   -2.51528697   0.87484074  -1.57373833
Li   0.41205451  -0.88421066   1.27334999
