19
Energy:   -512.02163416
O   -0.03255697  -0.68951465  -0.51703666
H   -0.53838745  -1.44188604  -0.82412729
H    0.52470640  -1.04204782   0.17680031
O   -2.39886752  -2.41353447  -0.78386118
H   -3.01638918  -2.97352735  -0.31342859
H   -2.85490951  -2.17953884  -1.59225687
O    1.38688114   1.61631079  -1.91543718
H    1.73480603   0.77402643  -2.20824629
H    1.60743320   2.22518720  -2.62031883
O   -1.72018589   1.96560460   0.21506678
H   -2.57365584   1.58181274   0.01375930
H   -1.92497977   2.76614820   0.69820367
O    1.27696224   1.32489500   1.23356569
H    2.03713347   1.80696881   1.55910582
H    1.37300210   0.44723761   1.60333008
O    1.53972284  -1.39135330   1.70284019
H    1.18830673  -1.85400132   2.46356049
H    2.31771276  -1.89144627   1.45612062
Li   0.05064112   1.28983513  -0.35218933
