19
Energy:   -525.45564614
O   -2.17700046   2.32101118  -2.83815761
H   -1.77684503   3.11989123  -3.18152061
H   -3.11498243   2.43873379  -2.98836767
O   -0.87242958   0.02317425  -2.19131541
H   -0.90901838  -0.47275395  -3.00920803
H   -1.30537195   0.85247517  -2.39393017
O    1.79758571   0.69955394   2.28711560
H    2.34543290   1.37112265   1.88080196
H    1.88395696   0.85598246   3.22748892
O    1.35189099  -2.29808901   2.15349875
H    2.03321344  -2.29428591   2.82582091
H    1.11856490  -3.22101361   2.05349389
O    1.23393047  -0.48627041  -0.60615522
H    0.52580158  -0.28502931  -1.21794550
H    1.98537270  -0.68349904  -1.16532183
O   -1.22063997  -0.44894913   1.35997898
H   -1.90664541  -0.55082450   2.01971362
H   -1.69368560  -0.26662737   0.54805629
Li   0.72077727  -0.64419194   1.29255750
