19
Energy:   -514.37796747
O   -2.40350932   1.81347840  -2.24999448
H   -2.83460493   1.59410160  -3.07598615
H   -3.05551123   2.32057087  -1.76627702
O    1.49097611  -1.16189301   1.49318126
H    2.10212150  -1.19780083   0.75735261
H    1.98535156  -1.51436454   2.23317354
O    0.13657426   0.07270411  -1.01315088
H   -0.36295832   0.47094624  -1.72596379
H    0.90878098  -0.29884780  -1.43962222
O   -0.00796122   1.50891597   1.96134157
H   -0.54143890   1.82784761   2.68929489
H    0.67997135   2.16697067   1.86161876
O   -1.97886611  -0.92037990   0.96706770
H   -2.50421276  -1.29135355   1.67602559
H   -2.59268857  -0.82319929   0.23905001
O    2.75096761  -1.31514708  -0.95337778
H    3.56905320  -0.89422924  -1.21756707
H    2.78394523  -2.18069423  -1.36077495
Li  -0.13483885  -0.19893429   0.91665534
