19
Energy:   -539.76669686
O   -1.66788563  -1.10685118   1.66697591
H   -2.59903207  -1.28151871   1.53026664
H   -1.44458453  -1.59997406   2.45640501
O   -1.03054745   1.85481674   0.47518629
H   -1.28278272   2.61321982   1.00190630
H   -1.15740424   2.13850808  -0.43016360
O    1.34613089  -0.21937946   1.38025950
H    1.88105359   0.29270625   1.98677230
H    1.93561636  -0.90063760   1.05679995
O    2.99644137  -2.16176156   0.44022329
H    3.13327252  -3.02828255   0.82317296
H    3.75027924  -2.03192109  -0.13519115
O   -0.48822168  -0.46274494  -1.31009697
H   -0.72785525   0.27810684  -1.86682514
H   -0.28344074  -1.16796151  -1.92407270
O   -1.23573296   2.04925603  -2.31397531
H   -2.07906224   2.18364002  -2.74637387
H   -0.62218321   2.59007148  -2.81127523
Li  -0.42918279  -0.01557895   0.60362674
