
                                 *****************
                                 * O   R   C   A *
                                 *****************

           --- An Ab Initio, DFT and Semiempirical electronic structure package ---

                  #######################################################
                  #                        -***-                        #
                  #          Department of theory and spectroscopy      #
                  #               Directorship: Frank Neese             #
                  #        Max Planck Institute fuer Kohlenforschung    #
                  #                Kaiser Wilhelm Platz 1               #
                  #                 D-45470 Muelheim/Ruhr               #
                  #                      Germany                        #
                  #                                                     #
                  #                  All rights reserved                #
                  #                        -***-                        #
                  #######################################################


                         Program Version 4.2.0 -  RELEASE  -


 With contributions from (in alphabetic order):
   Daniel Aravena         : Magnetic Suceptibility
   Michael Atanasov       : Ab Initio Ligand Field Theory (pilot matlab implementation)
   Alexander A. Auer      : GIAO ZORA, VPT2
   Ute Becker             : Parallelization
   Giovanni Bistoni       : ED, misc. LED, open-shell LED, HFLED
   Martin Brehm           : Molecular dynamics
   Dmytro Bykov           : SCF Hessian
   Vijay G. Chilkuri      : MRCI spin determinant printing, contributions to CSF-ICE
   Dipayan Datta          : RHF DLPNO-CCSD density
   Achintya Kumar Dutta   : EOM-CC, STEOM-CC
   Dmitry Ganyushin       : Spin-Orbit,Spin-Spin,Magnetic field MRCI
   Miquel Garcia          : C-PCM Hessian, Gaussian charge scheme
   Yang Guo               : DLPNO-NEVPT2, CIM, IAO-localization
   Andreas Hansen         : Spin unrestricted coupled pair/coupled cluster methods
   Benjamin Helmich-Paris : CASSCF linear response (MC-RPA)
   Lee Huntington         : MR-EOM, pCC
   Robert Izsak           : Overlap fitted RIJCOSX, COSX-SCS-MP3, EOM
   Christian Kollmar      : KDIIS, OOCD, Brueckner-CCSD(T), CCSD density
   Simone Kossmann        : Meta GGA functionals, TD-DFT gradient, OOMP2, MP2 Hessian
   Martin Krupicka        : AUTO-CI
   Lucas Lang             : DCDCAS
   Dagmar Lenk            : GEPOL surface, SMD
   Dimitrios Liakos       : Extrapolation schemes; Compound Job, initial MDCI parallelization
   Dimitrios Manganas     : Further ROCIS development; embedding schemes
   Dimitrios Pantazis     : SARC Basis sets
   Taras Petrenko         : DFT Hessian,TD-DFT gradient, ASA, ECA, R-Raman, ABS, FL, XAS/XES, NRVS
   Peter Pinski           : DLPNO-MP2, DLPNO-MP2 Gradient
   Christoph Reimann      : Effective Core Potentials
   Marius Retegan         : Local ZFS, SOC
   Christoph Riplinger    : Optimizer, TS searches, QM/MM, DLPNO-CCSD(T), (RO)-DLPNO pert. Triples
   Tobias Risthaus        : Range-separated hybrids, TD-DFT gradient, RPA, STAB
   Michael Roemelt        : Original ROCIS implementation
   Masaaki Saitow         : Open-shell DLPNO-CCSD energy and density
   Barbara Sandhoefer     : DKH picture change effects
   Avijit Sen             : IP-ROCIS
   Kantharuban Sivalingam : CASSCF convergence, NEVPT2, FIC-MRCI
   Bernardo de Souza      : ESD, SOC TD-DFT
   Georgi Stoychev        : AutoAux, RI-MP2 NMR
   Willem Van den Heuvel  : Paramagnetic NMR
   Boris Wezisla          : Elementary symmetry handling
   Frank Wennmohs         : Technical directorship


 We gratefully acknowledge several colleagues who have allowed us to
 interface, adapt or use parts of their codes:
   Stefan Grimme, W. Hujo, H. Kruse,             : VdW corrections, initial TS optimization,
                  C. Bannwarth                     DFT functionals, gCP, sTDA/sTD-DF
   Ed Valeev, F. Pavosevic, A. Kumar             : LibInt (2-el integral package), F12 methods
   Garnet Chan, S. Sharma, J. Yang, R. Olivares  : DMRG
   Ulf Ekstrom                                   : XCFun DFT Library
   Mihaly Kallay                                 : mrcc  (arbitrary order and MRCC methods)
   Andreas Klamt, Michael Diedenhofen            : otool_cosmo (COSMO solvation model)
   Jiri Pittner, Ondrej Demel                    : Mk-CCSD
   Frank Weinhold                                : gennbo (NPA and NBO analysis)
   Christopher J. Cramer and Donald G. Truhlar   : smd solvation model
   Lars Goerigk                                  : TD-DFT with DH, B97 family of functionals
   V. Asgeirsson, H. Jonsson                     : NEB implementation
   FAccTs GmbH                                   : IRC, NEB, NEB-TS, Multilevel, MM, QM/MM, CI optimization
   S Lehtola, MJT Oliveira, MAL Marques          : LibXC Library


 Your calculation uses the libint2 library for the computation of 2-el integrals
 For citations please refer to: http://libint.valeyev.net

 Your ORCA version has been built with support for libXC version: 4.2.3
 For citations please refer to: https://tddft.org/programs/libxc/

 This ORCA versions uses:
   CBLAS   interface :  Fast vector & matrix operations
   LAPACKE interface :  Fast linear algebra routines
   SCALAPACK package :  Parallel linear algebra routines


----- Orbital basis set information -----
Your calculation utilizes the basis: def2-TZVP
   F. Weigend and R. Ahlrichs, Phys. Chem. Chem. Phys. 7, 3297 (2005).

================================================================================
                                        WARNINGS
                       Please study these warnings very carefully!
================================================================================


WARNING: The frozen-core approximation for MP2-gradient calculations is turned on by default.

INFO   : the flag for use of LIBINT has been found!

================================================================================
                                       INPUT FILE
================================================================================
NAME = 12h2o.su.etal.mol0,5,8,10-orca.engrad-mp2.def2tzvp.frozencore.inp
|  1> # 12h2o.su.etal.mol0,5,8,10
|  2> ! MP2 def2-TZVP EnGrad TightSCF
|  3> 
|  4> %pal
|  5>     nprocs 6
|  6> end
|  7> 
|  8> %maxcore 8000
|  9> 
| 10> %scf
| 11>     ConvForced true
| 12> end
| 13> 
| 14> *xyz 0 1
| 15> O   1.794470000   0.923410000   2.768350000
| 16> H   2.338250000   1.359750000   3.430940000
| 17> H   0.879480000   1.303000000   2.865760000
| 18> O   0.885520000  -1.737840000   0.052730000
| 19> H   1.284090000  -0.839590000   0.017130000
| 20> H   1.032320000  -2.090180000  -0.841890000
| 21> O   1.752130000   0.741530000  -2.896280000
| 22> H   2.036450000   0.920500000  -1.984040000
| 23> H   0.921210000   1.242140000  -2.984230000
| 24> O  -0.923410000   1.794470000  -2.768350000
| 25> H  -1.359750000   2.338250000  -3.430940000
| 26> H  -1.303000000   0.879480000  -2.865760000
| 27> *
| 28> 
| 29>                          ****END OF INPUT****
================================================================================

                     *******************************
                     * Energy+Gradient Calculation *
                     *******************************

---------------------------------
CARTESIAN COORDINATES (ANGSTROEM)
---------------------------------
  O      1.794470    0.923410    2.768350
  H      2.338250    1.359750    3.430940
  H      0.879480    1.303000    2.865760
  O      0.885520   -1.737840    0.052730
  H      1.284090   -0.839590    0.017130
  H      1.032320   -2.090180   -0.841890
  O      1.752130    0.741530   -2.896280
  H      2.036450    0.920500   -1.984040
  H      0.921210    1.242140   -2.984230
  O     -0.923410    1.794470   -2.768350
  H     -1.359750    2.338250   -3.430940
  H     -1.303000    0.879480   -2.865760

----------------------------
CARTESIAN COORDINATES (A.U.)
----------------------------
  NO LB      ZA    FRAG     MASS         X           Y           Z
   0 O     8.0000    0    15.999    3.391057    1.744992    5.231423
   1 H     1.0000    0     1.008    4.418652    2.569555    6.483537
   2 H     1.0000    0     1.008    1.661976    2.462313    5.415502
   3 O     8.0000    0    15.999    1.673390   -3.284042    0.099645
   4 H     1.0000    0     1.008    2.426578   -1.586595    0.032371
   5 H     1.0000    0     1.008    1.950802   -3.949868   -1.590942
   6 O     8.0000    0    15.999    3.311046    1.401289   -5.473176
   7 H     1.0000    0     1.008    3.848333    1.739493   -3.749292
   8 H     1.0000    0     1.008    1.740835    2.347304   -5.639377
   9 O     8.0000    0    15.999   -1.744992    3.391057   -5.231423
  10 H     1.0000    0     1.008   -2.569555    4.418652   -6.483537
  11 H     1.0000    0     1.008   -2.462313    1.661976   -5.415502

--------------------------------
INTERNAL COORDINATES (ANGSTROEM)
--------------------------------
 O      0   0   0     0.000000000000     0.00000000     0.00000000
 H      1   0   0     0.961828878803     0.00000000     0.00000000
 H      1   2   0     0.995381322057   106.21731035     0.00000000
 O      1   2   3     3.909352075396   156.75189195   192.19368952
 H      4   1   2     0.983350632989    46.29716176   266.74328444
 H      4   1   2     0.972645187106   148.25827701   289.33301105
 O      5   4   1     3.347679752321   121.30565948   189.32488668
 H      7   5   4     0.972136791249    46.46358234   189.63776419
 H      7   5   4     0.974050112161   101.65702229    91.50593950
 O      9   7   5     1.937600461318   161.54375213   337.81137610
 H     10   9   7     0.961828878803   121.08403650   202.75419110
 H     10   9   7     0.995381322057    95.17003195   315.21089530

---------------------------
INTERNAL COORDINATES (A.U.)
---------------------------
 O      0   0   0     0.000000000000     0.00000000     0.00000000
 H      1   0   0     1.817593168635     0.00000000     0.00000000
 H      1   2   0     1.880998097508   106.21731035     0.00000000
 O      1   2   3     7.387604783574   156.75189195   192.19368952
 H      4   1   2     1.858263389967    46.29716176   266.74328444
 H      4   1   2     1.838033029106   148.25827701   289.33301105
 O      5   4   1     6.326197915960   121.30565948   189.32488668
 H      7   5   4     1.837072300170    46.46358234   189.63776419
 H      7   5   4     1.840687952699   101.65702229    91.50593950
 O      9   7   5     3.661534228851   161.54375213   337.81137610
 H     10   9   7     1.817593168635   121.08403650   202.75419110
 H     10   9   7     1.880998097508    95.17003195   315.21089530

---------------------
BASIS SET INFORMATION
---------------------
There are 2 groups of distinct atoms

 Group   1 Type O   : 11s6p2d1f contracted to 5s3p2d1f pattern {62111/411/11/1}
 Group   2 Type H   : 5s1p contracted to 3s1p pattern {311/1}

Atom   0O    basis set group =>   1
Atom   1H    basis set group =>   2
Atom   2H    basis set group =>   2
Atom   3O    basis set group =>   1
Atom   4H    basis set group =>   2
Atom   5H    basis set group =>   2
Atom   6O    basis set group =>   1
Atom   7H    basis set group =>   2
Atom   8H    basis set group =>   2
Atom   9O    basis set group =>   1
Atom  10H    basis set group =>   2
Atom  11H    basis set group =>   2


           ************************************************************
           *        Program running with 6 parallel MPI-processes     *
           *              working on a common directory               *
           ************************************************************
------------------------------------------------------------------------------
                           ORCA GTO INTEGRAL CALCULATION
------------------------------------------------------------------------------

                         BASIS SET STATISTICS AND STARTUP INFO

 # of primitive gaussian shells          ...  128
 # of primitive gaussian functions       ...  248
 # of contracted shells                  ...   76
 # of contracted basis functions         ...  172
 Highest angular momentum                ...    3
 Maximum contraction depth               ...    6
 Integral package used                   ... LIBINT
 Integral threshhold            Thresh   ...  2.500e-11
 Primitive cut-off              TCut     ...  2.500e-12


------------------------------ INTEGRAL EVALUATION ----------------------------


 * One electron integrals 
 Pre-screening matrix                    ... done
 Shell pair data                         ... done (   0.001 sec)



           ************************************************************
           *        Program running with 6 parallel MPI-processes     *
           *              working on a common directory               *
           ************************************************************
-------------------------------------------------------------------------------
                                 ORCA SCF
-------------------------------------------------------------------------------

------------
SCF SETTINGS
------------
Hamiltonian:
 Ab initio Hamiltonian  Method          .... Hartree-Fock(GTOs)


General Settings:
 Integral files         IntName         .... 12h2o.su.etal.mol0,5,8,10-orca.engrad-mp2.def2tzvp.frozencore
 Hartree-Fock type      HFTyp           .... RHF
 Total Charge           Charge          ....    0
 Multiplicity           Mult            ....    1
 Number of Electrons    NEL             ....   40
 Basis Dimension        Dim             ....  172
 Nuclear Repulsion      ENuc            ....    110.2497944622 Eh

Convergence Acceleration:
 DIIS                   CNVDIIS         .... on
   Start iteration      DIISMaxIt       ....    12
   Startup error        DIISStart       ....  0.200000
   # of expansion vecs  DIISMaxEq       ....     5
   Bias factor          DIISBfac        ....   1.050
   Max. coefficient     DIISMaxC        ....  10.000
 Newton-Raphson         CNVNR           .... off
 SOSCF                  CNVSOSCF        .... on
   Start iteration      SOSCFMaxIt      ....   150
   Startup grad/error   SOSCFStart      ....  0.003300
 Level Shifting         CNVShift        .... on
   Level shift para.    LevelShift      ....    0.2500
   Turn off err/grad.   ShiftErr        ....    0.0010
 Zerner damping         CNVZerner       .... off
 Static damping         CNVDamp         .... on
   Fraction old density DampFac         ....    0.7000
   Max. Damping (<1)    DampMax         ....    0.9800
   Min. Damping (>=0)   DampMin         ....    0.0000
   Turn off err/grad.   DampErr         ....    0.1000
 Fernandez-Rico         CNVRico         .... off

SCF Procedure:
 Maximum # iterations   MaxIter         ....   125
 SCF integral mode      SCFMode         .... Direct
   Integral package                     .... LIBINT
 Reset frequency        DirectResetFreq ....    20
 Integral Threshold     Thresh          ....  2.500e-11 Eh
 Primitive CutOff       TCut            ....  2.500e-12 Eh

Convergence Tolerance:
 Convergence Check Mode ConvCheckMode   .... Total+1el-Energy
 Convergence forced     ConvForced      .... 1
 Energy Change          TolE            ....  1.000e-08 Eh
 1-El. energy change                    ....  1.000e-05 Eh
 Orbital Gradient       TolG            ....  1.000e-05
 Orbital Rotation angle TolX            ....  1.000e-05
 DIIS Error             TolErr          ....  5.000e-07


Diagonalization of the overlap matrix:
Smallest eigenvalue                        ... 7.121e-03
Time for diagonalization                   ...    0.005 sec
Threshold for overlap eigenvalues          ... 1.000e-08
Number of eigenvalues below threshold      ... 0
Time for construction of square roots      ...    0.002 sec
Total time needed                          ...    0.007 sec

-------------------
DFT GRID GENERATION
-------------------

General Integration Accuracy     IntAcc      ...  4.340
Radial Grid Type                 RadialGrid  ... Gauss-Chebyshev
Angular Grid (max. acc.)         AngularGrid ... Lebedev-110
Angular grid pruning method      GridPruning ... 3 (G Style)
Weight generation scheme         WeightScheme... Becke
Basis function cutoff            BFCut       ...    1.0000e-11
Integration weight cutoff        WCut        ...    1.0000e-14
Grids for H and He will be reduced by one unit

# of grid points (after initial pruning)     ...  13216 (   0.0 sec)
# of grid points (after weights+screening)   ...  12839 (   0.0 sec)
nearest neighbour list constructed           ...    0.0 sec
Grid point re-assignment to atoms done       ...    0.0 sec
Grid point division into batches done        ...    0.0 sec
Reduced shell lists constructed in    0.0 sec

Total number of grid points                  ...    12839
Total number of batches                      ...      208
Average number of points per batch           ...       61
Average number of grid points per atom       ...     1070
Average number of shells per batch           ...    32.08 (42.21%)
Average number of basis functions per batch  ...    64.14 (37.29%)
Average number of large shells per batch     ...    22.72 (70.82%)
Average number of large basis fcns per batch ...    47.56 (74.14%)
Maximum spatial batch extension              ...  15.12, 20.63, 17.28 au
Average spatial batch extension              ...   0.72,  0.75,  0.70 au

Time for grid setup =    0.030 sec

------------------------------
INITIAL GUESS: MODEL POTENTIAL
------------------------------
Loading Hartree-Fock densities                     ... done
Calculating cut-offs                               ... done
Setting up the integral package                    ... done
Initializing the effective Hamiltonian             ... done
Starting the Coulomb interaction                   ... done (   0.0 sec)
Reading the grid                                   ... done
Mapping shells                                     ... done
Starting the XC term evaluation                    ... done (   0.0 sec)
Transforming the Hamiltonian                       ... done (   0.0 sec)
Diagonalizing the Hamiltonian                      ... done (   0.0 sec)
Back transforming the eigenvectors                 ... done (   0.0 sec)
Now organizing SCF variables                       ... done
                      ------------------
                      INITIAL GUESS DONE (   0.1 sec)
                      ------------------
--------------
SCF ITERATIONS
--------------
ITER       Energy         Delta-E        Max-DP      RMS-DP      [F,P]     Damp
               ***  Starting incremental Fock matrix formation  ***
  0   -303.8455946111   0.000000000000 0.04309244  0.00121734  0.3484385 0.7000
  1   -304.0006448563  -0.155050245221 0.02876908  0.00083556  0.2163055 0.7000
                               ***Turning on DIIS***
  2   -304.0814612716  -0.080816415271 0.01656746  0.00045594  0.1638402 0.7000
  3   -304.7765800860  -0.695118814393 0.00752725  0.00019703  0.1218847 0.7000
  4   -304.6319556177   0.144624468328 0.01678303  0.00045104  0.0862023 0.0000
  5   -304.2676504416   0.364305176089 0.00186653  0.00007332  0.0054656 0.0000
                      *** Initiating the SOSCF procedure ***
                           *** Shutting down DIIS ***
                      *** Re-Reading the Fockian *** 
                      *** Removing any level shift *** 
ITER      Energy       Delta-E        Grad      Rot      Max-DP    RMS-DP
  6   -304.24336925   0.0242811904  0.001070  0.001070  0.001159  0.000043
               *** Restarting incremental Fock matrix formation ***
  7   -304.23587185   0.0074974038  0.000331  0.000475  0.000564  0.000019
  8   -304.23587745  -0.0000056013  0.000212  0.000354  0.000432  0.000016
  9   -304.23587877  -0.0000013226  0.000077  0.000059  0.000095  0.000003
 10   -304.23587888  -0.0000001110  0.000011  0.000008  0.000017  0.000000
                  ***Gradient check signals convergence***
              ***Rediagonalizing the Fockian in SOSCF/NRSCF***

               *****************************************************
               *                     SUCCESS                       *
               *           SCF CONVERGED AFTER  11 CYCLES          *
               *****************************************************


----------------
TOTAL SCF ENERGY
----------------

Total Energy       :         -304.23587888 Eh           -8278.67914 eV

Components:
Nuclear Repulsion  :          110.24979446 Eh            3000.04943 eV
Electronic Energy  :         -414.48567335 Eh          -11278.72857 eV
One Electron Energy:         -639.44389531 Eh          -17400.15300 eV
Two Electron Energy:          224.95822197 Eh            6121.42443 eV

Virial components:
Potential Energy   :         -607.96063291 Eh          -16543.44987 eV
Kinetic Energy     :          303.72475402 Eh            8264.77073 eV
Virial Ratio       :            2.00168286


---------------
SCF CONVERGENCE
---------------

  Last Energy change         ...   -2.0382e-09  Tolerance :   1.0000e-08
  Last MAX-Density change    ...    4.4398e-06  Tolerance :   1.0000e-07
  Last RMS-Density change    ...    1.5039e-07  Tolerance :   5.0000e-09
  Last Orbital Gradient      ...    1.9379e-06  Tolerance :   1.0000e-05
  Last Orbital Rotation      ...    2.4754e-06  Tolerance :   1.0000e-05

             **** THE GBW FILE WAS UPDATED (12h2o.su.etal.mol0,5,8,10-orca.engrad-mp2.def2tzvp.frozencore.gbw) ****
             **** DENSITY FILE WAS UPDATED (12h2o.su.etal.mol0,5,8,10-orca.engrad-mp2.def2tzvp.frozencore.scfp) ****
             **** ENERGY FILE WAS UPDATED (12h2o.su.etal.mol0,5,8,10-orca.engrad-mp2.def2tzvp.frozencore.en.tmp) ****
             **** THE GBW FILE WAS UPDATED (12h2o.su.etal.mol0,5,8,10-orca.engrad-mp2.def2tzvp.frozencore.gbw) ****
             **** DENSITY FILE WAS UPDATED (12h2o.su.etal.mol0,5,8,10-orca.engrad-mp2.def2tzvp.frozencore.scfp) ****
----------------
ORBITAL ENERGIES
----------------

  NO   OCC          E(Eh)            E(eV) 
   0   2.0000     -20.594195      -560.3965 
   1   2.0000     -20.564656      -559.5927 
   2   2.0000     -20.548253      -559.1464 
   3   2.0000     -20.540197      -558.9272 
   4   2.0000      -1.371878       -37.3307 
   5   2.0000      -1.339900       -36.4605 
   6   2.0000      -1.324226       -36.0340 
   7   2.0000      -1.322226       -35.9796 
   8   2.0000      -0.739065       -20.1110 
   9   2.0000      -0.708316       -19.2743 
  10   2.0000      -0.691558       -18.8182 
  11   2.0000      -0.685988       -18.6667 
  12   2.0000      -0.611547       -16.6410 
  13   2.0000      -0.576125       -15.6772 
  14   2.0000      -0.564974       -15.3737 
  15   2.0000      -0.563142       -15.3239 
  16   2.0000      -0.531112       -14.4523 
  17   2.0000      -0.507776       -13.8173 
  18   2.0000      -0.491615       -13.3775 
  19   2.0000      -0.487011       -13.2522 
  20   0.0000       0.099796         2.7156 
  21   0.0000       0.119944         3.2638 
  22   0.0000       0.143070         3.8931 
  23   0.0000       0.177131         4.8200 
  24   0.0000       0.194701         5.2981 
  25   0.0000       0.195432         5.3180 
  26   0.0000       0.248232         6.7547 
  27   0.0000       0.301397         8.2014 
  28   0.0000       0.473204        12.8765 
  29   0.0000       0.497499        13.5376 
  30   0.0000       0.500899        13.6302 
  31   0.0000       0.532157        14.4807 
  32   0.0000       0.534816        14.5531 
  33   0.0000       0.563190        15.3252 
  34   0.0000       0.579550        15.7704 
  35   0.0000       0.592507        16.1229 
  36   0.0000       0.595339        16.2000 
  37   0.0000       0.611715        16.6456 
  38   0.0000       0.618833        16.8393 
  39   0.0000       0.627536        17.0761 
  40   0.0000       0.643377        17.5072 
  41   0.0000       0.686964        18.6932 
  42   0.0000       0.702125        19.1058 
  43   0.0000       0.721090        19.6219 
  44   0.0000       0.753356        20.4999 
  45   0.0000       0.761532        20.7223 
  46   0.0000       0.766156        20.8482 
  47   0.0000       0.785681        21.3795 
  48   0.0000       0.815095        22.1799 
  49   0.0000       0.882554        24.0155 
  50   0.0000       0.886950        24.1351 
  51   0.0000       0.945438        25.7267 
  52   0.0000       1.379277        37.5320 
  53   0.0000       1.397531        38.0288 
  54   0.0000       1.421954        38.6933 
  55   0.0000       1.428723        38.8775 
  56   0.0000       1.431069        38.9414 
  57   0.0000       1.437798        39.1245 
  58   0.0000       1.454333        39.5744 
  59   0.0000       1.483408        40.3656 
  60   0.0000       1.543659        42.0051 
  61   0.0000       1.553066        42.2611 
  62   0.0000       1.560842        42.4727 
  63   0.0000       1.593516        43.3618 
  64   0.0000       1.784524        48.5594 
  65   0.0000       1.791282        48.7433 
  66   0.0000       1.841998        50.1233 
  67   0.0000       1.846015        50.2326 
  68   0.0000       1.870399        50.8961 
  69   0.0000       1.895071        51.5675 
  70   0.0000       1.939365        52.7728 
  71   0.0000       1.975727        53.7623 
  72   0.0000       2.002195        54.4825 
  73   0.0000       2.019413        54.9510 
  74   0.0000       2.040712        55.5306 
  75   0.0000       2.091453        56.9113 
  76   0.0000       2.289550        62.3018 
  77   0.0000       2.294330        62.4319 
  78   0.0000       2.302660        62.6586 
  79   0.0000       2.316000        63.0216 
  80   0.0000       2.323124        63.2154 
  81   0.0000       2.331045        63.4310 
  82   0.0000       2.356530        64.1244 
  83   0.0000       2.376973        64.6807 
  84   0.0000       2.385603        64.9156 
  85   0.0000       2.388557        64.9959 
  86   0.0000       2.392955        65.1156 
  87   0.0000       2.509483        68.2865 
  88   0.0000       2.554132        69.5015 
  89   0.0000       2.575089        70.0717 
  90   0.0000       2.602549        70.8189 
  91   0.0000       2.633486        71.6608 
  92   0.0000       2.677449        72.8571 
  93   0.0000       2.691128        73.2293 
  94   0.0000       2.705931        73.6321 
  95   0.0000       2.712162        73.8017 
  96   0.0000       2.887938        78.5848 
  97   0.0000       2.903520        79.0088 
  98   0.0000       2.949635        80.2637 
  99   0.0000       2.954999        80.4096 
 100   0.0000       2.959167        80.5230 
 101   0.0000       2.969064        80.7923 
 102   0.0000       3.000593        81.6503 
 103   0.0000       3.009824        81.9015 
 104   0.0000       3.024672        82.3055 
 105   0.0000       3.040372        82.7327 
 106   0.0000       3.061942        83.3197 
 107   0.0000       3.102542        84.4245 
 108   0.0000       3.152679        85.7888 
 109   0.0000       3.192433        86.8705 
 110   0.0000       3.212550        87.4179 
 111   0.0000       3.306882        89.9848 
 112   0.0000       3.964820       107.8882 
 113   0.0000       3.979048       108.2754 
 114   0.0000       4.037013       109.8527 
 115   0.0000       4.055894       110.3665 
 116   0.0000       4.282124       116.5225 
 117   0.0000       4.306713       117.1916 
 118   0.0000       4.311919       117.3333 
 119   0.0000       4.339113       118.0733 
 120   0.0000       5.517688       150.1439 
 121   0.0000       5.549459       151.0084 
 122   0.0000       5.563556       151.3921 
 123   0.0000       5.566364       151.4685 
 124   0.0000       5.613840       152.7604 
 125   0.0000       5.639981       153.4717 
 126   0.0000       5.666907       154.2044 
 127   0.0000       5.672119       154.3462 
 128   0.0000       5.781879       157.3329 
 129   0.0000       5.811821       158.1477 
 130   0.0000       5.818393       158.3265 
 131   0.0000       5.831252       158.6764 
 132   0.0000       5.846280       159.0854 
 133   0.0000       5.847790       159.1265 
 134   0.0000       5.863220       159.5463 
 135   0.0000       5.882995       160.0844 
 136   0.0000       5.893333       160.3657 
 137   0.0000       5.902772       160.6226 
 138   0.0000       5.915893       160.9796 
 139   0.0000       5.916946       161.0083 
 140   0.0000       6.399657       174.1435 
 141   0.0000       6.429320       174.9507 
 142   0.0000       6.482896       176.4086 
 143   0.0000       6.504538       176.9975 
 144   0.0000       6.666075       181.3931 
 145   0.0000       6.695881       182.2042 
 146   0.0000       6.698129       182.2654 
 147   0.0000       6.715873       182.7482 
 148   0.0000       6.820550       185.5966 
 149   0.0000       6.835032       185.9907 
 150   0.0000       6.843334       186.2166 
 151   0.0000       6.853046       186.4809 
 152   0.0000       6.884524       187.3374 
 153   0.0000       6.887816       187.4270 
 154   0.0000       6.894895       187.6196 
 155   0.0000       6.899254       187.7383 
 156   0.0000       6.922403       188.3682 
 157   0.0000       6.950553       189.1342 
 158   0.0000       6.961755       189.4390 
 159   0.0000       6.974018       189.7727 
 160   0.0000       7.339510       199.7182 
 161   0.0000       7.363167       200.3620 
 162   0.0000       7.373019       200.6301 
 163   0.0000       7.422702       201.9820 
 164   0.0000       7.460428       203.0086 
 165   0.0000       7.484283       203.6577 
 166   0.0000       7.525985       204.7925 
 167   0.0000       7.560896       205.7425 
 168   0.0000      44.812979      1219.4232 
 169   0.0000      44.838370      1220.1141 
 170   0.0000      44.893013      1221.6010 
 171   0.0000      44.933377      1222.6994 

                    ********************************
                    * MULLIKEN POPULATION ANALYSIS *
                    ********************************

-----------------------
MULLIKEN ATOMIC CHARGES
-----------------------
   0 O :   -0.700710
   1 H :    0.348518
   2 H :    0.353419
   3 O :   -0.696834
   4 H :    0.348672
   5 H :    0.345359
   6 O :   -0.725560
   7 H :    0.334350
   8 H :    0.378044
   9 O :   -0.719883
  10 H :    0.363217
  11 H :    0.371409
Sum of atomic charges:   -0.0000000

--------------------------------
MULLIKEN REDUCED ORBITAL CHARGES
--------------------------------
  0 O s       :     3.813310  s :     3.813310
      pz      :     1.721252  p :     4.860349
      px      :     1.345287
      py      :     1.793810
      dz2     :     0.004339  d :     0.025498
      dxz     :     0.004747
      dyz     :     0.005956
      dx2y2   :     0.002537
      dxy     :     0.007920
      f0      :     0.000091  f :     0.001553
      f+1     :     0.000345
      f-1     :     0.000194
      f+2     :     0.000071
      f-2     :     0.000361
      f+3     :     0.000098
      f-3     :     0.000394
  1 H s       :     0.605621  s :     0.605621
      pz      :     0.017152  p :     0.045861
      px      :     0.013617
      py      :     0.015092
  2 H s       :     0.604301  s :     0.604301
      pz      :     0.011369  p :     0.042281
      px      :     0.017734
      py      :     0.013178
  3 O s       :     3.816465  s :     3.816465
      pz      :     1.528509  p :     4.852501
      px      :     1.874373
      py      :     1.449619
      dz2     :     0.011961  d :     0.026356
      dxz     :     0.002721
      dyz     :     0.003012
      dx2y2   :     0.003247
      dxy     :     0.005414
      f0      :     0.000182  f :     0.001513
      f+1     :     0.000131
      f-1     :     0.000458
      f+2     :     0.000079
      f-2     :     0.000042
      f+3     :     0.000491
      f-3     :     0.000130
  4 H s       :     0.607807  s :     0.607807
      pz      :     0.010168  p :     0.043521
      px      :     0.015002
      py      :     0.018350
  5 H s       :     0.609903  s :     0.609903
      pz      :     0.018587  p :     0.044738
      px      :     0.014187
      py      :     0.011965
  6 O s       :     3.809293  s :     3.809293
      pz      :     1.491705  p :     4.889378
      px      :     1.574357
      py      :     1.823316
      dz2     :     0.011970  d :     0.025401
      dxz     :     0.001266
      dyz     :     0.002978
      dx2y2   :     0.002039
      dxy     :     0.007148
      f0      :     0.000273  f :     0.001487
      f+1     :     0.000381
      f-1     :     0.000169
      f+2     :     0.000056
      f-2     :     0.000056
      f+3     :     0.000064
      f-3     :     0.000488
  7 H s       :     0.620599  s :     0.620599
      pz      :     0.018598  p :     0.045051
      px      :     0.012483
      py      :     0.013971
  8 H s       :     0.571714  s :     0.571714
      pz      :     0.009889  p :     0.050242
      px      :     0.023907
      py      :     0.016447
  9 O s       :     3.809115  s :     3.809115
      pz      :     1.735365  p :     4.884501
      px      :     1.780680
      py      :     1.368456
      dz2     :     0.004415  d :     0.024757
      dxz     :     0.005633
      dyz     :     0.004971
      dx2y2   :     0.002595
      dxy     :     0.007143
      f0      :     0.000094  f :     0.001511
      f+1     :     0.000185
      f-1     :     0.000352
      f+2     :     0.000062
      f-2     :     0.000357
      f+3     :     0.000369
      f-3     :     0.000092
 10 H s       :     0.591419  s :     0.591419
      pz      :     0.017250  p :     0.045364
      px      :     0.014766
      py      :     0.013348
 11 H s       :     0.587241  s :     0.587241
      pz      :     0.011116  p :     0.041350
      px      :     0.012268
      py      :     0.017967


                     *******************************
                     * LOEWDIN POPULATION ANALYSIS *
                     *******************************

----------------------
LOEWDIN ATOMIC CHARGES
----------------------
   0 O :   -0.338134
   1 H :    0.158008
   2 H :    0.181588
   3 O :   -0.337045
   4 H :    0.170261
   5 H :    0.163765
   6 O :   -0.346763
   7 H :    0.157123
   8 H :    0.154184
   9 O :   -0.316179
  10 H :    0.163874
  11 H :    0.189319

-------------------------------
LOEWDIN REDUCED ORBITAL CHARGES
-------------------------------
  0 O s       :     3.475887  s :     3.475887
      pz      :     1.706965  p :     4.827349
      px      :     1.348928
      py      :     1.771456
      dz2     :     0.005003  d :     0.032753
      dxz     :     0.007169
      dyz     :     0.006016
      dx2y2   :     0.004013
      dxy     :     0.010553
      f0      :     0.000078  f :     0.002144
      f+1     :     0.000467
      f-1     :     0.000279
      f+2     :     0.000036
      f-2     :     0.000623
      f+3     :     0.000094
      f-3     :     0.000568
  1 H s       :     0.679240  s :     0.679240
      pz      :     0.066037  p :     0.162752
      px      :     0.043883
      py      :     0.052832
  2 H s       :     0.671208  s :     0.671208
      pz      :     0.033445  p :     0.147205
      px      :     0.070158
      py      :     0.043602
  3 O s       :     3.478285  s :     3.478285
      pz      :     1.539973  p :     4.823065
      px      :     1.835349
      py      :     1.447743
      dz2     :     0.015811  d :     0.033515
      dxz     :     0.001831
      dyz     :     0.004386
      dx2y2   :     0.004491
      dxy     :     0.006996
      f0      :     0.000385  f :     0.002180
      f+1     :     0.000207
      f-1     :     0.000773
      f+2     :     0.000050
      f-2     :     0.000045
      f+3     :     0.000644
      f-3     :     0.000075
  4 H s       :     0.677161  s :     0.677161
      pz      :     0.029168  p :     0.152578
      px      :     0.049279
      py      :     0.074131
  5 H s       :     0.678689  s :     0.678689
      pz      :     0.079469  p :     0.157546
      px      :     0.043094
      py      :     0.034984
  6 O s       :     3.467171  s :     3.467171
      pz      :     1.503306  p :     4.845647
      px      :     1.548499
      py      :     1.793841
      dz2     :     0.016387  d :     0.031814
      dxz     :     0.002202
      dyz     :     0.002447
      dx2y2   :     0.002047
      dxy     :     0.008732
      f0      :     0.000506  f :     0.002130
      f+1     :     0.000581
      f-1     :     0.000318
      f+2     :     0.000025
      f-2     :     0.000050
      f+3     :     0.000002
      f-3     :     0.000648
  7 H s       :     0.684594  s :     0.684594
      pz      :     0.079209  p :     0.158283
      px      :     0.036440
      py      :     0.042635
  8 H s       :     0.672768  s :     0.672768
      pz      :     0.029518  p :     0.173048
      px      :     0.085696
      py      :     0.057835
  9 O s       :     3.468852  s :     3.468852
      pz      :     1.711609  p :     4.813284
      px      :     1.742320
      py      :     1.359355
      dz2     :     0.005101  d :     0.031953
      dxz     :     0.005556
      dyz     :     0.007100
      dx2y2   :     0.004401
      dxy     :     0.009794
      f0      :     0.000079  f :     0.002090
      f+1     :     0.000274
      f-1     :     0.000462
      f+2     :     0.000033
      f-2     :     0.000611
      f+3     :     0.000539
      f-3     :     0.000091
 10 H s       :     0.672660  s :     0.672660
      pz      :     0.066436  p :     0.163466
      px      :     0.052668
      py      :     0.044362
 11 H s       :     0.662540  s :     0.662540
      pz      :     0.033362  p :     0.148141
      px      :     0.043448
      py      :     0.071331


                      *****************************
                      * MAYER POPULATION ANALYSIS *
                      *****************************

  NA   - Mulliken gross atomic population
  ZA   - Total nuclear charge
  QA   - Mulliken gross atomic charge
  VA   - Mayer's total valence
  BVA  - Mayer's bonded valence
  FA   - Mayer's free valence

  ATOM       NA         ZA         QA         VA         BVA        FA
  0 O      8.7007     8.0000    -0.7007     1.7721     1.7721     0.0000
  1 H      0.6515     1.0000     0.3485     0.8933     0.8933     0.0000
  2 H      0.6466     1.0000     0.3534     0.8874     0.8874    -0.0000
  3 O      8.6968     8.0000    -0.6968     1.7771     1.7771    -0.0000
  4 H      0.6513     1.0000     0.3487     0.8974     0.8974     0.0000
  5 H      0.6546     1.0000     0.3454     0.8955     0.8955    -0.0000
  6 O      8.7256     8.0000    -0.7256     1.7478     1.7478    -0.0000
  7 H      0.6657     1.0000     0.3343     0.9038     0.9038    -0.0000
  8 H      0.6220     1.0000     0.3780     0.8887     0.8887    -0.0000
  9 O      8.7199     8.0000    -0.7199     1.7682     1.7682    -0.0000
 10 H      0.6368     1.0000     0.3632     0.8832     0.8832     0.0000
 11 H      0.6286     1.0000     0.3714     0.8752     0.8752    -0.0000

  Mayer bond orders larger than 0.100000
B(  0-O ,  1-H ) :   0.8878 B(  0-O ,  2-H ) :   0.8820 B(  3-O ,  4-H ) :   0.8849 
B(  3-O ,  5-H ) :   0.8893 B(  6-O ,  7-H ) :   0.8972 B(  6-O ,  8-H ) :   0.8497 
B(  9-O , 10-H ) :   0.8757 B(  9-O , 11-H ) :   0.8667 

-------
TIMINGS
-------

Total SCF time: 0 days 0 hours 0 min 3 sec 

Total time                  ....       3.326 sec
Sum of individual times     ....       3.118 sec  ( 93.8%)

Fock matrix formation       ....       2.925 sec  ( 87.9%)
Diagonalization             ....       0.029 sec  (  0.9%)
Density matrix formation    ....       0.004 sec  (  0.1%)
Population analysis         ....       0.004 sec  (  0.1%)
Initial guess               ....       0.107 sec  (  3.2%)
Orbital Transformation      ....       0.000 sec  (  0.0%)
Orbital Orthonormalization  ....       0.000 sec  (  0.0%)
DIIS solution               ....       0.009 sec  (  0.3%)
SOSCF solution              ....       0.011 sec  (  0.3%)


           ************************************************************
           *        Program running with 6 parallel MPI-processes     *
           *              working on a common directory               *
           ************************************************************

------------------------------------------------------------------------------
                                ORCA  MP2 
------------------------------------------------------------------------------

Freezing NCore=8 chemical core electrons
MP2 will be done in the AO integral direct mode
The Q1-step will be done using symmetric double matrices
Dimension of the basis                    ...  172
Memory devoted for MP2                    ... 8000 MB   
Memory needed for all in one shot         ...   60 MB
Number of MOs that can be treated together...  408      
MP2 density construction                  ... relaxed
The MP2 gradient is requested => amplitudes will be stored on disk
Total number of MOs              ...   16
Number of MOs treated per batch  ...    3 
Number of batches necessary      ...    1 
OPERATORS   0/  0 PASS   0
-----------------------------------------------
 MP2 CORRELATION ENERGY   :     -1.025411273 Eh
-----------------------------------------------


---------------------
MP2 DENSITY FORMATION
---------------------

Completing the external part of the density      ... done
Storing the unrelaxed density                    ... done

Calculating G(D)                                 ... done
Completing the Lagrangian                        ... done
Solving the Z-vector equations                   ... 

------------------------------------------------------------------------------
                           ORCA CP-SCF CALCULATION
------------------------------------------------------------------------------

Input orbitals are from        ... 12h2o.su.etal.mol0,5,8,10-orca.engrad-mp2.def2tzvp.frozencore.gbw
Input Perturbation             ... 12h2o.su.etal.mol0,5,8,10-orca.engrad-mp2.def2tzvp.frozencore.pin.tmp
Wavefunction output            ... 12h2o.su.etal.mol0,5,8,10-orca.engrad-mp2.def2tzvp.frozencore.pout.tmp
Perturbation mode              ... Real perturbation (singlet)
Solver                         ... POPLE
Max. number of iterations      ... 128
Convergence tolerance          ... 1.000e-08
Integral handling              ... Direct
Number of perturbations        ... 1
Number of operators            ... 1
Orbital ranges used for CP-SCF:
 Operator 0:  Orbitals   0... 19  to  20...171
Variables per vector in CP-SCF ... 3040
Number of vectors sought       ... 1
     CP-SCF ITERATION   0: 
     CP-SCF ITERATION   1:      0.000473913377
     CP-SCF ITERATION   2:      0.000009667038
     CP-SCF ITERATION   3:      0.000000323919
     CP-SCF ITERATION   4:      0.000000027933
     CP-SCF ITERATION   5:      0.000000002165
                                                 ... done
Finalizing the relaxed density                   ... done
Transforming P to the AO basis                   ... done
Storing the relaxed density                      ... done

------------------------------------
ENERGY WEIGHTED DENSITY FINALIZATION
------------------------------------

Gathering the parts of the W-matrix              ...                                                      done
Forming the Z-density                            ... done
Transforming Z to the AO basis                   ... done
Calculating G(Z)                                 ... done
Finalizing the W-matrix                          ...                                                      done
Transforming W to the AO basis and storing       ... done

                *********************************************
                * UNRELAXED MP2 DENSITY POPULATION ANALYSIS *
                *********************************************

------------------------------------------------------------------------------
                           ORCA POPULATION ANALYSIS
------------------------------------------------------------------------------
Input electron density              ... 12h2o.su.etal.mol0,5,8,10-orca.engrad-mp2.def2tzvp.frozencore.pmp2ur
BaseName (.gbw .S,...)              ... 12h2o.su.etal.mol0,5,8,10-orca.engrad-mp2.def2tzvp.frozencore

                    ********************************
                    * MULLIKEN POPULATION ANALYSIS *
                    ********************************

-----------------------
MULLIKEN ATOMIC CHARGES
-----------------------
   0 O :   -0.695979
   1 H :    0.346394
   2 H :    0.350849
   3 O :   -0.691877
   4 H :    0.345990
   5 H :    0.342960
   6 O :   -0.720263
   7 H :    0.331863
   8 H :    0.374826
   9 O :   -0.714477
  10 H :    0.361026
  11 H :    0.368689
Sum of atomic charges:   -0.0000000

--------------------------------
MULLIKEN REDUCED ORBITAL CHARGES
--------------------------------
  0 O s       :     3.808512  s :     3.808512
      pz      :     1.710844  p :     4.831539
      px      :     1.337995
      py      :     1.782700
      dz2     :     0.009686  d :     0.051838
      dxz     :     0.009984
      dyz     :     0.011234
      dx2y2   :     0.007844
      dxy     :     0.013090
      f0      :     0.000458  f :     0.004090
      f+1     :     0.000703
      f-1     :     0.000556
      f+2     :     0.000436
      f-2     :     0.000722
      f+3     :     0.000465
      f-3     :     0.000750
  1 H s       :     0.606116  s :     0.606116
      pz      :     0.017648  p :     0.047490
      px      :     0.014013
      py      :     0.015829
  2 H s       :     0.605267  s :     0.605267
      pz      :     0.012224  p :     0.043884
      px      :     0.017694
      py      :     0.013966
  3 O s       :     3.811586  s :     3.811586
      pz      :     1.519314  p :     4.823597
      px      :     1.862867
      py      :     1.441416
      dz2     :     0.016927  d :     0.052640
      dxz     :     0.008147
      dyz     :     0.008243
      dx2y2   :     0.008604
      dxy     :     0.010719
      f0      :     0.000560  f :     0.004053
      f+1     :     0.000499
      f-1     :     0.000819
      f+2     :     0.000438
      f-2     :     0.000404
      f+3     :     0.000841
      f-3     :     0.000492
  4 H s       :     0.608854  s :     0.608854
      pz      :     0.011005  p :     0.045156
      px      :     0.015764
      py      :     0.018387
  5 H s       :     0.610662  s :     0.610662
      pz      :     0.018722  p :     0.046378
      px      :     0.015064
      py      :     0.012592
  6 O s       :     3.804439  s :     3.804439
      pz      :     1.482897  p :     4.859736
      px      :     1.565042
      py      :     1.811797
      dz2     :     0.016974  d :     0.052041
      dxz     :     0.006648
      dyz     :     0.008414
      dx2y2   :     0.007577
      dxy     :     0.012428
      f0      :     0.000647  f :     0.004047
      f+1     :     0.000745
      f-1     :     0.000539
      f+2     :     0.000415
      f-2     :     0.000421
      f+3     :     0.000435
      f-3     :     0.000845
  7 H s       :     0.621372  s :     0.621372
      pz      :     0.018702  p :     0.046765
      px      :     0.013210
      py      :     0.014853
  8 H s       :     0.573359  s :     0.573359
      pz      :     0.010659  p :     0.051815
      px      :     0.024101
      py      :     0.017055
  9 O s       :     3.804232  s :     3.804232
      pz      :     1.724760  p :     4.854650
      px      :     1.768982
      py      :     1.360908
      dz2     :     0.009791  d :     0.051532
      dxz     :     0.011017
      dyz     :     0.010247
      dx2y2   :     0.008031
      dxy     :     0.012447
      f0      :     0.000462  f :     0.004064
      f+1     :     0.000550
      f-1     :     0.000712
      f+2     :     0.000430
      f-2     :     0.000720
      f+3     :     0.000729
      f-3     :     0.000462
 10 H s       :     0.592049  s :     0.592049
      pz      :     0.017730  p :     0.046925
      px      :     0.015463
      py      :     0.013733
 11 H s       :     0.588421  s :     0.588421
      pz      :     0.011955  p :     0.042890
      px      :     0.013018
      py      :     0.017917


                     *******************************
                     * LOEWDIN POPULATION ANALYSIS *
                     *******************************

----------------------
LOEWDIN ATOMIC CHARGES
----------------------
   0 O :   -0.335351
   1 H :    0.156909
   2 H :    0.179982
   3 O :   -0.334124
   4 H :    0.168563
   5 H :    0.162357
   6 O :   -0.343979
   7 H :    0.155585
   8 H :    0.152143
   9 O :   -0.312508
  10 H :    0.162765
  11 H :    0.187656

-------------------------------
LOEWDIN REDUCED ORBITAL CHARGES
-------------------------------
  0 O s       :     3.472124  s :     3.472124
      pz      :     1.696577  p :     4.798227
      px      :     1.341085
      py      :     1.760564
      dz2     :     0.010430  d :     0.060127
      dxz     :     0.012622
      dyz     :     0.011573
      dx2y2   :     0.009431
      dxy     :     0.016071
      f0      :     0.000454  f :     0.004873
      f+1     :     0.000872
      f-1     :     0.000660
      f+2     :     0.000408
      f-2     :     0.001028
      f+3     :     0.000474
      f-3     :     0.000977
  1 H s       :     0.677244  s :     0.677244
      pz      :     0.067276  p :     0.165847
      px      :     0.044728
      py      :     0.053843
  2 H s       :     0.669629  s :     0.669629
      pz      :     0.034281  p :     0.150389
      px      :     0.071493
      py      :     0.044615
  3 O s       :     3.474451  s :     3.474451
      pz      :     1.530466  p :     4.793863
      px      :     1.824263
      py      :     1.439134
      dz2     :     0.021429  d :     0.060898
      dxz     :     0.007187
      dyz     :     0.009631
      dx2y2   :     0.010046
      dxy     :     0.012604
      f0      :     0.000792  f :     0.004912
      f+1     :     0.000591
      f-1     :     0.001201
      f+2     :     0.000417
      f-2     :     0.000413
      f+3     :     0.001049
      f-3     :     0.000448
  4 H s       :     0.675655  s :     0.675655
      pz      :     0.029969  p :     0.155782
      px      :     0.050238
      py      :     0.075575
  5 H s       :     0.676904  s :     0.676904
      pz      :     0.081100  p :     0.160739
      px      :     0.043895
      py      :     0.035743
  6 O s       :     3.463464  s :     3.463464
      pz      :     1.494090  p :     4.816080
      px      :     1.539193
      py      :     1.782797
      dz2     :     0.022117  d :     0.059551
      dxz     :     0.007520
      dyz     :     0.007823
      dx2y2   :     0.007552
      dxy     :     0.014539
      f0      :     0.000922  f :     0.004885
      f+1     :     0.001001
      f-1     :     0.000711
      f+2     :     0.000389
      f-2     :     0.000422
      f+3     :     0.000377
      f-3     :     0.001063
  7 H s       :     0.682779  s :     0.682779
      pz      :     0.080928  p :     0.161636
      px      :     0.037234
      py      :     0.043473
  8 H s       :     0.671954  s :     0.671954
      pz      :     0.030258  p :     0.175903
      px      :     0.086877
      py      :     0.058769
  9 O s       :     3.465070  s :     3.465070
      pz      :     1.701076  p :     4.782834
      px      :     1.730382
      py      :     1.351376
      dz2     :     0.010600  d :     0.059768
      dxz     :     0.011217
      dyz     :     0.012590
      dx2y2   :     0.009930
      dxy     :     0.015430
      f0      :     0.000457  f :     0.004836
      f+1     :     0.000658
      f-1     :     0.000870
      f+2     :     0.000408
      f-2     :     0.001017
      f+3     :     0.000951
      f-3     :     0.000475
 10 H s       :     0.670790  s :     0.670790
      pz      :     0.067631  p :     0.166445
      px      :     0.053639
      py      :     0.045175
 11 H s       :     0.661167  s :     0.661167
      pz      :     0.034186  p :     0.151177
      px      :     0.044422
      py      :     0.072569


                      *****************************
                      * MAYER POPULATION ANALYSIS *
                      *****************************

  NA   - Mulliken gross atomic population
  ZA   - Total nuclear charge
  QA   - Mulliken gross atomic charge
  VA   - Mayer's total valence
  BVA  - Mayer's bonded valence
  FA   - Mayer's free valence

  ATOM       NA         ZA         QA         VA         BVA        FA
  0 O      8.6960     8.0000    -0.6960     2.0766     1.6900     0.3866
  1 H      0.6536     1.0000     0.3464     0.8990     0.8529     0.0461
  2 H      0.6492     1.0000     0.3508     0.8933     0.8449     0.0484
  3 O      8.6919     8.0000    -0.6919     2.0808     1.6942     0.3867
  4 H      0.6540     1.0000     0.3460     0.9038     0.8554     0.0484
  5 H      0.6570     1.0000     0.3430     0.9015     0.8539     0.0476
  6 O      8.7203     8.0000    -0.7203     2.0554     1.6676     0.3878
  7 H      0.6681     1.0000     0.3319     0.9101     0.8613     0.0488
  8 H      0.6252     1.0000     0.3748     0.8952     0.8502     0.0450
  9 O      8.7145     8.0000    -0.7145     2.0762     1.6875     0.3887
 10 H      0.6390     1.0000     0.3610     0.8887     0.8436     0.0452
 11 H      0.6313     1.0000     0.3687     0.8812     0.8339     0.0473

  Mayer bond orders larger than 0.100000
B(  0-O ,  1-H ) :   0.8479 B(  0-O ,  2-H ) :   0.8399 B(  3-O ,  4-H ) :   0.8434 
B(  3-O ,  5-H ) :   0.8482 B(  6-O ,  7-H ) :   0.8552 B(  6-O ,  8-H ) :   0.8121 
B(  9-O , 10-H ) :   0.8367 B(  9-O , 11-H ) :   0.8259 


                *******************************************
                * RELAXED MP2 DENSITY POPULATION ANALYSIS *
                *******************************************

------------------------------------------------------------------------------
                           ORCA POPULATION ANALYSIS
------------------------------------------------------------------------------
Input electron density              ... 12h2o.su.etal.mol0,5,8,10-orca.engrad-mp2.def2tzvp.frozencore.pmp2re
BaseName (.gbw .S,...)              ... 12h2o.su.etal.mol0,5,8,10-orca.engrad-mp2.def2tzvp.frozencore

                    ********************************
                    * MULLIKEN POPULATION ANALYSIS *
                    ********************************

-----------------------
MULLIKEN ATOMIC CHARGES
-----------------------
   0 O :   -0.682778
   1 H :    0.339950
   2 H :    0.344872
   3 O :   -0.678016
   4 H :    0.337251
   5 H :    0.336067
   6 O :   -0.702613
   7 H :    0.325721
   8 H :    0.358498
   9 O :   -0.695451
  10 H :    0.354385
  11 H :    0.362114
Sum of atomic charges:   -0.0000000

--------------------------------
MULLIKEN REDUCED ORBITAL CHARGES
--------------------------------
  0 O s       :     3.813434  s :     3.813434
      pz      :     1.704702  p :     4.815807
      px      :     1.334641
      py      :     1.776464
      dz2     :     0.009392  d :     0.049520
      dxz     :     0.009400
      dyz     :     0.010939
      dx2y2   :     0.007589
      dxy     :     0.012200
      f0      :     0.000456  f :     0.004018
      f+1     :     0.000684
      f-1     :     0.000548
      f+2     :     0.000436
      f-2     :     0.000702
      f+3     :     0.000464
      f-3     :     0.000729
  1 H s       :     0.611848  s :     0.611848
      pz      :     0.017755  p :     0.048202
      px      :     0.013953
      py      :     0.016493
  2 H s       :     0.610579  s :     0.610579
      pz      :     0.013121  p :     0.044549
      px      :     0.016692
      py      :     0.014736
  3 O s       :     3.816372  s :     3.816372
      pz      :     1.511777  p :     4.807398
      px      :     1.858699
      py      :     1.436922
      dz2     :     0.015651  d :     0.050267
      dxz     :     0.008185
      dyz     :     0.007967
      dx2y2   :     0.008292
      dxy     :     0.010173
      f0      :     0.000545  f :     0.003979
      f+1     :     0.000493
      f-1     :     0.000789
      f+2     :     0.000438
      f-2     :     0.000403
      f+3     :     0.000820
      f-3     :     0.000491
  4 H s       :     0.616872  s :     0.616872
      pz      :     0.011769  p :     0.045877
      px      :     0.016516
      py      :     0.017593
  5 H s       :     0.616838  s :     0.616838
      pz      :     0.018033  p :     0.047094
      px      :     0.016060
      py      :     0.013001
  6 O s       :     3.805824  s :     3.805824
      pz      :     1.476063  p :     4.842901
      px      :     1.562319
      py      :     1.804519
      dz2     :     0.015610  d :     0.049913
      dxz     :     0.006589
      dyz     :     0.008379
      dx2y2   :     0.007535
      dxy     :     0.011800
      f0      :     0.000629  f :     0.003975
      f+1     :     0.000724
      f-1     :     0.000529
      f+2     :     0.000415
      f-2     :     0.000420
      f+3     :     0.000435
      f-3     :     0.000823
  7 H s       :     0.626676  s :     0.626676
      pz      :     0.017924  p :     0.047603
      px      :     0.013825
      py      :     0.015854
  8 H s       :     0.589128  s :     0.589128
      pz      :     0.011298  p :     0.052375
      px      :     0.023598
      py      :     0.017478
  9 O s       :     3.807847  s :     3.807847
      pz      :     1.719746  p :     4.834269
      px      :     1.756461
      py      :     1.358062
      dz2     :     0.009518  d :     0.049344
      dxz     :     0.010761
      dyz     :     0.009670
      dx2y2   :     0.007759
      dxy     :     0.011637
      f0      :     0.000460  f :     0.003991
      f+1     :     0.000541
      f-1     :     0.000694
      f+2     :     0.000429
      f-2     :     0.000699
      f+3     :     0.000707
      f-3     :     0.000460
 10 H s       :     0.597998  s :     0.597998
      pz      :     0.017850  p :     0.047617
      px      :     0.016125
      py      :     0.013642
 11 H s       :     0.594437  s :     0.594437
      pz      :     0.012796  p :     0.043448
      px      :     0.013709
      py      :     0.016944


                     *******************************
                     * LOEWDIN POPULATION ANALYSIS *
                     *******************************

----------------------
LOEWDIN ATOMIC CHARGES
----------------------
   0 O :   -0.338504
   1 H :    0.158616
   2 H :    0.181828
   3 O :   -0.337015
   4 H :    0.169098
   5 H :    0.163665
   6 O :   -0.345428
   7 H :    0.157095
   8 H :    0.147731
   9 O :   -0.310529
  10 H :    0.164398
  11 H :    0.189045

-------------------------------
LOEWDIN REDUCED ORBITAL CHARGES
-------------------------------
  0 O s       :     3.474237  s :     3.474237
      pz      :     1.695800  p :     4.800636
      px      :     1.346181
      py      :     1.758655
      dz2     :     0.010240  d :     0.058739
      dxz     :     0.012227
      dyz     :     0.011509
      dx2y2   :     0.009197
      dxy     :     0.015566
      f0      :     0.000456  f :     0.004892
      f+1     :     0.000879
      f-1     :     0.000660
      f+2     :     0.000408
      f-2     :     0.001028
      f+3     :     0.000477
      f-3     :     0.000984
  1 H s       :     0.675531  s :     0.675531
      pz      :     0.067369  p :     0.165853
      px      :     0.043957
      py      :     0.054527
  2 H s       :     0.667643  s :     0.667643
      pz      :     0.035040  p :     0.150528
      px      :     0.070061
      py      :     0.045427
  3 O s       :     3.476565  s :     3.476565
      pz      :     1.531289  p :     4.796015
      px      :     1.822336
      py      :     1.442389
      dz2     :     0.020714  d :     0.059506
      dxz     :     0.007255
      dyz     :     0.009371
      dx2y2   :     0.009838
      dxy     :     0.012328
      f0      :     0.000789  f :     0.004930
      f+1     :     0.000591
      f-1     :     0.001211
      f+2     :     0.000420
      f-2     :     0.000411
      f+3     :     0.001057
      f-3     :     0.000450
  4 H s       :     0.674925  s :     0.674925
      pz      :     0.030449  p :     0.155977
      px      :     0.051019
      py      :     0.074508
  5 H s       :     0.675454  s :     0.675454
      pz      :     0.080452  p :     0.160881
      px      :     0.044845
      py      :     0.035584
  6 O s       :     3.464986  s :     3.464986
      pz      :     1.495860  p :     4.817139
      px      :     1.540976
      py      :     1.780303
      dz2     :     0.021364  d :     0.058398
      dxz     :     0.007372
      dyz     :     0.007842
      dx2y2   :     0.007524
      dxy     :     0.014296
      f0      :     0.000922  f :     0.004905
      f+1     :     0.001010
      f-1     :     0.000709
      f+2     :     0.000391
      f-2     :     0.000421
      f+3     :     0.000377
      f-3     :     0.001075
  7 H s       :     0.680819  s :     0.680819
      pz      :     0.080204  p :     0.162086
      px      :     0.037498
      py      :     0.044385
  8 H s       :     0.675888  s :     0.675888
      pz      :     0.030601  p :     0.176381
      px      :     0.086476
      py      :     0.059304
  9 O s       :     3.466845  s :     3.466845
      pz      :     1.700342  p :     4.780253
      px      :     1.723279
      py      :     1.356632
      dz2     :     0.010444  d :     0.058577
      dxz     :     0.011187
      dyz     :     0.012215
      dx2y2   :     0.009719
      dxy     :     0.015013
      f0      :     0.000459  f :     0.004854
      f+1     :     0.000658
      f-1     :     0.000876
      f+2     :     0.000408
      f-2     :     0.001018
      f+3     :     0.000957
      f-3     :     0.000478
 10 H s       :     0.669350  s :     0.669350
      pz      :     0.067693  p :     0.166252
      px      :     0.054129
      py      :     0.044431
 11 H s       :     0.659822  s :     0.659822
      pz      :     0.034937  p :     0.151133
      px      :     0.045077
      py      :     0.071119


                      *****************************
                      * MAYER POPULATION ANALYSIS *
                      *****************************

  NA   - Mulliken gross atomic population
  ZA   - Total nuclear charge
  QA   - Mulliken gross atomic charge
  VA   - Mayer's total valence
  BVA  - Mayer's bonded valence
  FA   - Mayer's free valence

  ATOM       NA         ZA         QA         VA         BVA        FA
  0 O      8.6828     8.0000    -0.6828     2.0818     1.7000     0.3817
  1 H      0.6600     1.0000     0.3400     0.9036     0.8574     0.0462
  2 H      0.6551     1.0000     0.3449     0.8977     0.8492     0.0485
  3 O      8.6780     8.0000    -0.6780     2.0859     1.7041     0.3818
  4 H      0.6627     1.0000     0.3373     0.9130     0.8647     0.0482
  5 H      0.6639     1.0000     0.3361     0.9072     0.8596     0.0476
  6 O      8.7026     8.0000    -0.7026     2.0657     1.6830     0.3827
  7 H      0.6743     1.0000     0.3257     0.9147     0.8658     0.0488
  8 H      0.6415     1.0000     0.3585     0.9178     0.8733     0.0445
  9 O      8.6955     8.0000    -0.6955     2.0992     1.7160     0.3832
 10 H      0.6456     1.0000     0.3544     0.8938     0.8486     0.0452
 11 H      0.6379     1.0000     0.3621     0.8871     0.8398     0.0473

  Mayer bond orders larger than 0.100000
B(  0-O ,  1-H ) :   0.8522 B(  0-O ,  2-H ) :   0.8440 B(  3-O ,  4-H ) :   0.8478 
B(  3-O ,  5-H ) :   0.8524 B(  6-O ,  7-H ) :   0.8584 B(  6-O ,  8-H ) :   0.8161 
B(  9-O , 10-H ) :   0.8406 B(  9-O , 11-H ) :   0.8296 


----------------------------------
MP2 DERIVATIVE INTEGRAL GENERATION
----------------------------------


Input Wavefunction Amplitudes       ... 12h2o.su.etal.mol0,5,8,10-orca.engrad-mp2.def2tzvp.frozencore.mp2tsaa.tmp
Input Correlated Electron Density   ... 12h2o.su.etal.mol0,5,8,10-orca.engrad-mp2.def2tzvp.frozencore.pmp2re
Input Energy Weighted Density       ... 12h2o.su.etal.mol0,5,8,10-orca.engrad-mp2.def2tzvp.frozencore.wmp2.tmp
Input SCF Electron Density          ... 12h2o.su.etal.mol0,5,8,10-orca.engrad-mp2.def2tzvp.frozencore.scfp

One-Electron Terms    ...
                        ... One-Electron Terms done
Prescreening matrices              ... done

Batch handling in the gradient evaluation:
Memory available                      ... 8000.0 MB
Memory per occupied orbital in Q2     ...    3.6 MB
Memory per occupied orbital in Q3     ...    0.1 MB
Total memory requirement per |i>      ...    3.7 MB
Max. Number of orbitals possible      ...   2176
Number of orbitals treated per batch  ...     16
Number of batches to be done          ...      1
Batch   0: i=    4 ...    19

---------------------------------------
MP2 TOTAL ENERGY:     -305.261290157 Eh
---------------------------------------

The final MP2 gradient
  0:   0.02703412  -0.00882751   0.00206065
  1:   0.00244535  -0.00167461  -0.00117511
  2:  -0.02938540   0.01049793   0.00022045
  3:  -0.00786566  -0.01424449   0.01035481
  4:   0.00719666   0.01803766  -0.00253384
  5:   0.00078828  -0.00398987  -0.00796545
  6:   0.00059025  -0.00157812  -0.00936188
  7:   0.00216889   0.00009271   0.01008194
  8:  -0.00370926   0.00114393  -0.00221326
  9:   0.00676776   0.02725620   0.00062787
 10:   0.00227381   0.00105278   0.00157104
 11:  -0.00830480  -0.02776664  -0.00166723

-----------------------------------
NORM OF THE MP2 GRADIENT:  0.067007
-----------------------------------

-------------------------   --------------------
FINAL SINGLE POINT ENERGY      -305.261290157036
-------------------------   --------------------


                            ***************************************
                            *     ORCA property calculations      *
                            ***************************************

                                    ---------------------
                                    Active property flags
                                    ---------------------
   (+) Dipole Moment


------------------------------------------------------------------------------
                       ORCA ELECTRIC PROPERTIES CALCULATION
------------------------------------------------------------------------------

Dipole Moment Calculation                       ... on
Quadrupole Moment Calculation                   ... off
Polarizability Calculation                      ... off
GBWName                                         ... 12h2o.su.etal.mol0,5,8,10-orca.engrad-mp2.def2tzvp.frozencore.gbw
Electron density file                           ... 12h2o.su.etal.mol0,5,8,10-orca.engrad-mp2.def2tzvp.frozencore.scfp
The origin for moment calculation is the CENTER OF MASS  = ( 1.626212,  0.857475 -1.346183)

-------------
DIPOLE MOMENT
-------------
                                X             Y             Z
Electronic contribution:     -0.04227      -0.10542       0.00466
Nuclear contribution   :     -0.98915       1.39022      -0.08817
                        -----------------------------------------
Total Dipole Moment    :     -1.03142       1.28480      -0.08351
                        -----------------------------------------
Magnitude (a.u.)       :      1.64970
Magnitude (Debye)      :      4.19320



--------------------
Rotational spectrum 
--------------------
 
Rotational constants in cm-1:     0.096049     0.033938     0.030466 
Rotational constants in MHz :  2879.472483  1017.432815   913.341599 

 Dipole components along the rotational axes: 
x,y,z [a.u.] :    -0.622366     1.404154     0.602095 
x,y,z [Debye]:    -1.581928     3.569075     1.530405 

 

                         *** MP2 UNRELAXED DENSITY ***

------------------------------------------------------------------------------
                       ORCA ELECTRIC PROPERTIES CALCULATION
------------------------------------------------------------------------------

Dipole Moment Calculation                       ... on
Quadrupole Moment Calculation                   ... off
Polarizability Calculation                      ... off
GBWName                                         ... 12h2o.su.etal.mol0,5,8,10-orca.engrad-mp2.def2tzvp.frozencore.gbw
Electron density file                           ... 12h2o.su.etal.mol0,5,8,10-orca.engrad-mp2.def2tzvp.frozencore.pmp2ur
The origin for moment calculation is the CENTER OF MASS  = ( 1.626212,  0.857475 -1.346183)

-------------
DIPOLE MOMENT
-------------
                                X             Y             Z
Electronic contribution:     -0.03393      -0.11786       0.00568
Nuclear contribution   :     -0.98915       1.39022      -0.08817
                        -----------------------------------------
Total Dipole Moment    :     -1.02309       1.27236      -0.08249
                        -----------------------------------------
Magnitude (a.u.)       :      1.63475
Magnitude (Debye)      :      4.15521



--------------------
Rotational spectrum 
--------------------
 
Rotational constants in cm-1:     0.096049     0.033938     0.030466 
Rotational constants in MHz :  2879.472483  1017.432815   913.341599 

 Dipole components along the rotational axes: 
x,y,z [a.u.] :    -0.616607     1.390962     0.597857 
x,y,z [Debye]:    -1.567292     3.535544     1.519631 

 

                           *** MP2 RELAXED DENSITY ***

------------------------------------------------------------------------------
                       ORCA ELECTRIC PROPERTIES CALCULATION
------------------------------------------------------------------------------

Dipole Moment Calculation                       ... on
Quadrupole Moment Calculation                   ... off
Polarizability Calculation                      ... off
GBWName                                         ... 12h2o.su.etal.mol0,5,8,10-orca.engrad-mp2.def2tzvp.frozencore.gbw
Electron density file                           ... 12h2o.su.etal.mol0,5,8,10-orca.engrad-mp2.def2tzvp.frozencore.pmp2re
The origin for moment calculation is the CENTER OF MASS  = ( 1.626212,  0.857475 -1.346183)

-------------
DIPOLE MOMENT
-------------
                                X             Y             Z
Electronic contribution:     -0.03273      -0.12818       0.01022
Nuclear contribution   :     -0.98915       1.39022      -0.08817
                        -----------------------------------------
Total Dipole Moment    :     -1.02189       1.26203      -0.07796
                        -----------------------------------------
Magnitude (a.u.)       :      1.62575
Magnitude (Debye)      :      4.13233



--------------------
Rotational spectrum 
--------------------
 
Rotational constants in cm-1:     0.096049     0.033938     0.030466 
Rotational constants in MHz :  2879.472483  1017.432815   913.341599 

 Dipole components along the rotational axes: 
x,y,z [a.u.] :    -0.609941     1.382177     0.600515 
x,y,z [Debye]:    -1.550346     3.513215     1.526388 

 

Timings for individual modules:

Sum of individual times         ...       14.019 sec (=   0.234 min)
GTO integral calculation        ...        1.129 sec (=   0.019 min)   8.1 %
SCF iterations                  ...        4.179 sec (=   0.070 min)  29.8 %
MP2 module                      ...        8.712 sec (=   0.145 min)  62.1 %
                             ****ORCA TERMINATED NORMALLY****
TOTAL RUN TIME: 0 days 0 hours 0 minutes 14 seconds 986 msec
