
                                 *****************
                                 * O   R   C   A *
                                 *****************

           --- An Ab Initio, DFT and Semiempirical electronic structure package ---

                  #######################################################
                  #                        -***-                        #
                  #          Department of theory and spectroscopy      #
                  #               Directorship: Frank Neese             #
                  #        Max Planck Institute fuer Kohlenforschung    #
                  #                Kaiser Wilhelm Platz 1               #
                  #                 D-45470 Muelheim/Ruhr               #
                  #                      Germany                        #
                  #                                                     #
                  #                  All rights reserved                #
                  #                        -***-                        #
                  #######################################################


                         Program Version 4.2.0 -  RELEASE  -


 With contributions from (in alphabetic order):
   Daniel Aravena         : Magnetic Suceptibility
   Michael Atanasov       : Ab Initio Ligand Field Theory (pilot matlab implementation)
   Alexander A. Auer      : GIAO ZORA, VPT2
   Ute Becker             : Parallelization
   Giovanni Bistoni       : ED, misc. LED, open-shell LED, HFLED
   Martin Brehm           : Molecular dynamics
   Dmytro Bykov           : SCF Hessian
   Vijay G. Chilkuri      : MRCI spin determinant printing, contributions to CSF-ICE
   Dipayan Datta          : RHF DLPNO-CCSD density
   Achintya Kumar Dutta   : EOM-CC, STEOM-CC
   Dmitry Ganyushin       : Spin-Orbit,Spin-Spin,Magnetic field MRCI
   Miquel Garcia          : C-PCM Hessian, Gaussian charge scheme
   Yang Guo               : DLPNO-NEVPT2, CIM, IAO-localization
   Andreas Hansen         : Spin unrestricted coupled pair/coupled cluster methods
   Benjamin Helmich-Paris : CASSCF linear response (MC-RPA)
   Lee Huntington         : MR-EOM, pCC
   Robert Izsak           : Overlap fitted RIJCOSX, COSX-SCS-MP3, EOM
   Christian Kollmar      : KDIIS, OOCD, Brueckner-CCSD(T), CCSD density
   Simone Kossmann        : Meta GGA functionals, TD-DFT gradient, OOMP2, MP2 Hessian
   Martin Krupicka        : AUTO-CI
   Lucas Lang             : DCDCAS
   Dagmar Lenk            : GEPOL surface, SMD
   Dimitrios Liakos       : Extrapolation schemes; Compound Job, initial MDCI parallelization
   Dimitrios Manganas     : Further ROCIS development; embedding schemes
   Dimitrios Pantazis     : SARC Basis sets
   Taras Petrenko         : DFT Hessian,TD-DFT gradient, ASA, ECA, R-Raman, ABS, FL, XAS/XES, NRVS
   Peter Pinski           : DLPNO-MP2, DLPNO-MP2 Gradient
   Christoph Reimann      : Effective Core Potentials
   Marius Retegan         : Local ZFS, SOC
   Christoph Riplinger    : Optimizer, TS searches, QM/MM, DLPNO-CCSD(T), (RO)-DLPNO pert. Triples
   Tobias Risthaus        : Range-separated hybrids, TD-DFT gradient, RPA, STAB
   Michael Roemelt        : Original ROCIS implementation
   Masaaki Saitow         : Open-shell DLPNO-CCSD energy and density
   Barbara Sandhoefer     : DKH picture change effects
   Avijit Sen             : IP-ROCIS
   Kantharuban Sivalingam : CASSCF convergence, NEVPT2, FIC-MRCI
   Bernardo de Souza      : ESD, SOC TD-DFT
   Georgi Stoychev        : AutoAux, RI-MP2 NMR
   Willem Van den Heuvel  : Paramagnetic NMR
   Boris Wezisla          : Elementary symmetry handling
   Frank Wennmohs         : Technical directorship


 We gratefully acknowledge several colleagues who have allowed us to
 interface, adapt or use parts of their codes:
   Stefan Grimme, W. Hujo, H. Kruse,             : VdW corrections, initial TS optimization,
                  C. Bannwarth                     DFT functionals, gCP, sTDA/sTD-DF
   Ed Valeev, F. Pavosevic, A. Kumar             : LibInt (2-el integral package), F12 methods
   Garnet Chan, S. Sharma, J. Yang, R. Olivares  : DMRG
   Ulf Ekstrom                                   : XCFun DFT Library
   Mihaly Kallay                                 : mrcc  (arbitrary order and MRCC methods)
   Andreas Klamt, Michael Diedenhofen            : otool_cosmo (COSMO solvation model)
   Jiri Pittner, Ondrej Demel                    : Mk-CCSD
   Frank Weinhold                                : gennbo (NPA and NBO analysis)
   Christopher J. Cramer and Donald G. Truhlar   : smd solvation model
   Lars Goerigk                                  : TD-DFT with DH, B97 family of functionals
   V. Asgeirsson, H. Jonsson                     : NEB implementation
   FAccTs GmbH                                   : IRC, NEB, NEB-TS, Multilevel, MM, QM/MM, CI optimization
   S Lehtola, MJT Oliveira, MAL Marques          : LibXC Library


 Your calculation uses the libint2 library for the computation of 2-el integrals
 For citations please refer to: http://libint.valeyev.net

 Your ORCA version has been built with support for libXC version: 4.2.3
 For citations please refer to: https://tddft.org/programs/libxc/

 This ORCA versions uses:
   CBLAS   interface :  Fast vector & matrix operations
   LAPACKE interface :  Fast linear algebra routines
   SCALAPACK package :  Parallel linear algebra routines


----- Orbital basis set information -----
Your calculation utilizes the basis: def2-TZVP
   F. Weigend and R. Ahlrichs, Phys. Chem. Chem. Phys. 7, 3297 (2005).

================================================================================
                                        WARNINGS
                       Please study these warnings very carefully!
================================================================================


WARNING: The frozen-core approximation for MP2-gradient calculations is turned on by default.

INFO   : the flag for use of LIBINT has been found!

================================================================================
                                       INPUT FILE
================================================================================
NAME = 12meoh.boyd.etal.mol4,5-orca.engrad-mp2.def2tzvp.frozencore.inp
|  1> # 12meoh.boyd.etal.mol4,5
|  2> ! MP2 def2-TZVP EnGrad TightSCF
|  3> 
|  4> %pal
|  5>     nprocs 6
|  6> end
|  7> 
|  8> %maxcore 8000
|  9> 
| 10> %scf
| 11>     ConvForced true
| 12> end
| 13> 
| 14> *xyz 0 1
| 15> O  -1.358578914   1.232360421   1.189721000
| 16> H  -1.058250183   1.216459361   0.238591307
| 17> C  -0.389763452   1.957872567   1.943072362
| 18> H  -0.747220771   2.012806578   2.975200343
| 19> H  -0.260410585   2.982763209   1.565366540
| 20> H   0.585220638   1.453754179   1.934070793
| 21> O  -0.662721750   1.449094618  -1.383082065
| 22> H   0.064188300   2.119867608  -1.465650660
| 23> C  -0.353319239   0.341218776  -2.229326771
| 24> H  -1.072358530  -0.454743281  -2.019906495
| 25> H   0.657636746  -0.044472139  -2.042736771
| 26> H  -0.434616607   0.624733901  -3.287793021
| 27> *
| 28> 
| 29>                          ****END OF INPUT****
================================================================================

                     *******************************
                     * Energy+Gradient Calculation *
                     *******************************

---------------------------------
CARTESIAN COORDINATES (ANGSTROEM)
---------------------------------
  O     -1.358579    1.232360    1.189721
  H     -1.058250    1.216459    0.238591
  C     -0.389763    1.957873    1.943072
  H     -0.747221    2.012807    2.975200
  H     -0.260411    2.982763    1.565367
  H      0.585221    1.453754    1.934071
  O     -0.662722    1.449095   -1.383082
  H      0.064188    2.119868   -1.465651
  C     -0.353319    0.341219   -2.229327
  H     -1.072359   -0.454743   -2.019906
  H      0.657637   -0.044472   -2.042737
  H     -0.434617    0.624734   -3.287793

----------------------------
CARTESIAN COORDINATES (A.U.)
----------------------------
  NO LB      ZA    FRAG     MASS         X           Y           Z
   0 O     8.0000    0    15.999   -2.567342    2.328824    2.248247
   1 H     1.0000    0     1.008   -1.999803    2.298775    0.450872
   2 C     6.0000    0    12.011   -0.736546    3.699843    3.671875
   3 H     1.0000    0     1.008   -1.412043    3.803653    5.622314
   4 H     1.0000    0     1.008   -0.492105    5.636606    2.958114
   5 H     1.0000    0     1.008    1.105907    2.747197    3.654864
   6 O     8.0000    0    15.999   -1.252363    2.738392   -2.613646
   7 H     1.0000    0     1.008    0.121298    4.005969   -2.769678
   8 C     6.0000    0    12.011   -0.667677    0.644810   -4.212817
   9 H     1.0000    0     1.008   -2.026464   -0.859340   -3.817070
  10 H     1.0000    0     1.008    1.242753   -0.084040   -3.860213
  11 H     1.0000    0     1.008   -0.821306    1.180576   -6.213028

--------------------------------
INTERNAL COORDINATES (ANGSTROEM)
--------------------------------
 O      0   0   0     0.000000000000     0.00000000     0.00000000
 H      1   0   0     0.997545930411     0.00000000     0.00000000
 C      1   2   0     1.425661091575   107.89987774     0.00000000
 H      3   1   2     1.093655178580   107.58652868   177.37408112
 H      3   1   2     1.099906668874   111.87891396    58.41528197
 H      3   1   2     1.097638534818   111.44220277   296.47910227
 O      2   1   3     1.685344602615   170.36858743   278.77596359
 H      7   2   1     0.992548335239   110.19446525    70.92962507
 C      7   2   1     1.428022723045   120.92869081   198.75797138
 H      9   7   2     1.092899789636   107.99441671    42.85367700
 H      9   7   2     1.098000598188   111.79589191   283.56090327
 H      9   7   2     1.098790649094   110.77151416   162.02034423

---------------------------
INTERNAL COORDINATES (A.U.)
---------------------------
 O      0   0   0     0.000000000000     0.00000000     0.00000000
 H      1   0   0     1.885088614484     0.00000000     0.00000000
 C      1   2   0     2.694109022864   107.89987774     0.00000000
 H      3   1   2     2.066708772461   107.58652868   177.37408112
 H      3   1   2     2.078522377045   111.87891396    58.41528197
 H      3   1   2     2.074236224845   111.44220277   296.47910227
 O      2   1   3     3.184839740225   170.36858743   278.77596359
 H      7   2   1     1.875644528280   110.19446525    70.92962507
 C      7   2   1     2.698571859572   120.92869081   198.75797138
 H      9   7   2     2.065281294231   107.99441671    42.85367700
 H      9   7   2     2.074920425457   111.79589191   283.56090327
 H      9   7   2     2.076413405301   110.77151416   162.02034423

---------------------
BASIS SET INFORMATION
---------------------
There are 3 groups of distinct atoms

 Group   1 Type O   : 11s6p2d1f contracted to 5s3p2d1f pattern {62111/411/11/1}
 Group   2 Type H   : 5s1p contracted to 3s1p pattern {311/1}
 Group   3 Type C   : 11s6p2d1f contracted to 5s3p2d1f pattern {62111/411/11/1}

Atom   0O    basis set group =>   1
Atom   1H    basis set group =>   2
Atom   2C    basis set group =>   3
Atom   3H    basis set group =>   2
Atom   4H    basis set group =>   2
Atom   5H    basis set group =>   2
Atom   6O    basis set group =>   1
Atom   7H    basis set group =>   2
Atom   8C    basis set group =>   3
Atom   9H    basis set group =>   2
Atom  10H    basis set group =>   2
Atom  11H    basis set group =>   2


           ************************************************************
           *        Program running with 6 parallel MPI-processes     *
           *              working on a common directory               *
           ************************************************************
------------------------------------------------------------------------------
                           ORCA GTO INTEGRAL CALCULATION
------------------------------------------------------------------------------

                         BASIS SET STATISTICS AND STARTUP INFO

 # of primitive gaussian shells          ...  128
 # of primitive gaussian functions       ...  248
 # of contracted shells                  ...   76
 # of contracted basis functions         ...  172
 Highest angular momentum                ...    3
 Maximum contraction depth               ...    6
 Integral package used                   ... LIBINT
 Integral threshhold            Thresh   ...  2.500e-11
 Primitive cut-off              TCut     ...  2.500e-12


------------------------------ INTEGRAL EVALUATION ----------------------------


 * One electron integrals 
 Pre-screening matrix                    ... done
 Shell pair data                         ... done (   0.001 sec)



           ************************************************************
           *        Program running with 6 parallel MPI-processes     *
           *              working on a common directory               *
           ************************************************************
-------------------------------------------------------------------------------
                                 ORCA SCF
-------------------------------------------------------------------------------

------------
SCF SETTINGS
------------
Hamiltonian:
 Ab initio Hamiltonian  Method          .... Hartree-Fock(GTOs)


General Settings:
 Integral files         IntName         .... 12meoh.boyd.etal.mol4,5-orca.engrad-mp2.def2tzvp.frozencore
 Hartree-Fock type      HFTyp           .... RHF
 Total Charge           Charge          ....    0
 Multiplicity           Mult            ....    1
 Number of Electrons    NEL             ....   36
 Basis Dimension        Dim             ....  172
 Nuclear Repulsion      ENuc            ....    129.8728114437 Eh

Convergence Acceleration:
 DIIS                   CNVDIIS         .... on
   Start iteration      DIISMaxIt       ....    12
   Startup error        DIISStart       ....  0.200000
   # of expansion vecs  DIISMaxEq       ....     5
   Bias factor          DIISBfac        ....   1.050
   Max. coefficient     DIISMaxC        ....  10.000
 Newton-Raphson         CNVNR           .... off
 SOSCF                  CNVSOSCF        .... on
   Start iteration      SOSCFMaxIt      ....   150
   Startup grad/error   SOSCFStart      ....  0.003300
 Level Shifting         CNVShift        .... on
   Level shift para.    LevelShift      ....    0.2500
   Turn off err/grad.   ShiftErr        ....    0.0010
 Zerner damping         CNVZerner       .... off
 Static damping         CNVDamp         .... on
   Fraction old density DampFac         ....    0.7000
   Max. Damping (<1)    DampMax         ....    0.9800
   Min. Damping (>=0)   DampMin         ....    0.0000
   Turn off err/grad.   DampErr         ....    0.1000
 Fernandez-Rico         CNVRico         .... off

SCF Procedure:
 Maximum # iterations   MaxIter         ....   125
 SCF integral mode      SCFMode         .... Direct
   Integral package                     .... LIBINT
 Reset frequency        DirectResetFreq ....    20
 Integral Threshold     Thresh          ....  2.500e-11 Eh
 Primitive CutOff       TCut            ....  2.500e-12 Eh

Convergence Tolerance:
 Convergence Check Mode ConvCheckMode   .... Total+1el-Energy
 Convergence forced     ConvForced      .... 1
 Energy Change          TolE            ....  1.000e-08 Eh
 1-El. energy change                    ....  1.000e-05 Eh
 Orbital Gradient       TolG            ....  1.000e-05
 Orbital Rotation angle TolX            ....  1.000e-05
 DIIS Error             TolErr          ....  5.000e-07


Diagonalization of the overlap matrix:
Smallest eigenvalue                        ... 1.521e-03
Time for diagonalization                   ...    0.005 sec
Threshold for overlap eigenvalues          ... 1.000e-08
Number of eigenvalues below threshold      ... 0
Time for construction of square roots      ...    0.002 sec
Total time needed                          ...    0.007 sec

-------------------
DFT GRID GENERATION
-------------------

General Integration Accuracy     IntAcc      ...  4.340
Radial Grid Type                 RadialGrid  ... Gauss-Chebyshev
Angular Grid (max. acc.)         AngularGrid ... Lebedev-110
Angular grid pruning method      GridPruning ... 3 (G Style)
Weight generation scheme         WeightScheme... Becke
Basis function cutoff            BFCut       ...    1.0000e-11
Integration weight cutoff        WCut        ...    1.0000e-14
Grids for H and He will be reduced by one unit

# of grid points (after initial pruning)     ...  13096 (   0.0 sec)
# of grid points (after weights+screening)   ...  12476 (   0.0 sec)
nearest neighbour list constructed           ...    0.0 sec
Grid point re-assignment to atoms done       ...    0.0 sec
Grid point division into batches done        ...    0.0 sec
Reduced shell lists constructed in    0.0 sec

Total number of grid points                  ...    12476
Total number of batches                      ...      199
Average number of points per batch           ...       62
Average number of grid points per atom       ...     1040
Average number of shells per batch           ...    57.51 (75.68%)
Average number of basis functions per batch  ...   133.97 (77.89%)
Average number of large shells per batch     ...    47.71 (82.96%)
Average number of large basis fcns per batch ...   111.14 (82.96%)
Maximum spatial batch extension              ...  13.67, 16.42, 13.58 au
Average spatial batch extension              ...   0.56,  0.53,  0.46 au

Time for grid setup =    0.030 sec

------------------------------
INITIAL GUESS: MODEL POTENTIAL
------------------------------
Loading Hartree-Fock densities                     ... done
Calculating cut-offs                               ... done
Setting up the integral package                    ... done
Initializing the effective Hamiltonian             ... done
Starting the Coulomb interaction                   ... done (   0.0 sec)
Reading the grid                                   ... done
Mapping shells                                     ... done
Starting the XC term evaluation                    ... done (   0.0 sec)
Transforming the Hamiltonian                       ... done (   0.0 sec)
Diagonalizing the Hamiltonian                      ... done (   0.0 sec)
Back transforming the eigenvectors                 ... done (   0.0 sec)
Now organizing SCF variables                       ... done
                      ------------------
                      INITIAL GUESS DONE (   0.1 sec)
                      ------------------
--------------
SCF ITERATIONS
--------------
ITER       Energy         Delta-E        Max-DP      RMS-DP      [F,P]     Damp
               ***  Starting incremental Fock matrix formation  ***
  0   -229.9528942674   0.000000000000 0.03598260  0.00093839  0.2922347 0.7000
  1   -230.0347470871  -0.081852819698 0.02398083  0.00070443  0.2186594 0.7000
                               ***Turning on DIIS***
  2   -230.0827091838  -0.047962096682 0.01354503  0.00044198  0.1626083 0.7000
  3   -230.6559713510  -0.573262167198 0.00733214  0.00025254  0.1200174 0.7000
  4   -230.5600666743   0.095904676666 0.01573933  0.00060636  0.0845940 0.0000
  5   -230.1993077656   0.360758908716 0.00187388  0.00008119  0.0050165 0.0000
                      *** Initiating the SOSCF procedure ***
                           *** Shutting down DIIS ***
                      *** Re-Reading the Fockian *** 
                      *** Removing any level shift *** 
ITER      Energy       Delta-E        Grad      Rot      Max-DP    RMS-DP
  6   -230.18484790   0.0144598702  0.000635  0.000635  0.000834  0.000042
               *** Restarting incremental Fock matrix formation ***
  7   -230.18125240   0.0035954981  0.000333  0.000430  0.000484  0.000023
  8   -230.18125719  -0.0000047880  0.000152  0.000303  0.000328  0.000016
  9   -230.18125833  -0.0000011471  0.000027  0.000032  0.000058  0.000003
 10   -230.18125837  -0.0000000416  0.000005  0.000012  0.000021  0.000001
                  ***Gradient check signals convergence***
              ***Rediagonalizing the Fockian in SOSCF/NRSCF***

               *****************************************************
               *                     SUCCESS                       *
               *           SCF CONVERGED AFTER  11 CYCLES          *
               *****************************************************


----------------
TOTAL SCF ENERGY
----------------

Total Energy       :         -230.18125838 Eh           -6263.55047 eV

Components:
Nuclear Repulsion  :          129.87281144 Eh            3534.01887 eV
Electronic Energy  :         -360.05406982 Eh           -9797.56934 eV
One Electron Energy:         -572.38219784 Eh          -15575.31144 eV
Two Electron Energy:          212.32812802 Eh            5777.74210 eV

Virial components:
Potential Energy   :         -459.97604998 Eh          -12516.58465 eV
Kinetic Energy     :          229.79479160 Eh            6253.03418 eV
Virial Ratio       :            2.00168179


---------------
SCF CONVERGENCE
---------------

  Last Energy change         ...   -3.2857e-09  Tolerance :   1.0000e-08
  Last MAX-Density change    ...    4.6392e-06  Tolerance :   1.0000e-07
  Last RMS-Density change    ...    1.9261e-07  Tolerance :   5.0000e-09
  Last Orbital Gradient      ...    1.6399e-06  Tolerance :   1.0000e-05
  Last Orbital Rotation      ...    4.9851e-06  Tolerance :   1.0000e-05

             **** THE GBW FILE WAS UPDATED (12meoh.boyd.etal.mol4,5-orca.engrad-mp2.def2tzvp.frozencore.gbw) ****
             **** DENSITY FILE WAS UPDATED (12meoh.boyd.etal.mol4,5-orca.engrad-mp2.def2tzvp.frozencore.scfp) ****
             **** ENERGY FILE WAS UPDATED (12meoh.boyd.etal.mol4,5-orca.engrad-mp2.def2tzvp.frozencore.en.tmp) ****
             **** THE GBW FILE WAS UPDATED (12meoh.boyd.etal.mol4,5-orca.engrad-mp2.def2tzvp.frozencore.gbw) ****
             **** DENSITY FILE WAS UPDATED (12meoh.boyd.etal.mol4,5-orca.engrad-mp2.def2tzvp.frozencore.scfp) ****
----------------
ORBITAL ENERGIES
----------------

  NO   OCC          E(Eh)            E(eV) 
   0   2.0000     -20.590906      -560.3070 
   1   2.0000     -20.512650      -558.1776 
   2   2.0000     -11.292257      -307.2779 
   3   2.0000     -11.251671      -306.1735 
   4   2.0000      -1.383301       -37.6415 
   5   2.0000      -1.308440       -35.6045 
   6   2.0000      -0.944417       -25.6989 
   7   2.0000      -0.897220       -24.4146 
   8   2.0000      -0.715537       -19.4707 
   9   2.0000      -0.674198       -18.3459 
  10   2.0000      -0.636447       -17.3186 
  11   2.0000      -0.610403       -16.6099 
  12   2.0000      -0.591806       -16.1039 
  13   2.0000      -0.561394       -15.2763 
  14   2.0000      -0.529448       -14.4070 
  15   2.0000      -0.488597       -13.2954 
  16   2.0000      -0.457625       -12.4526 
  17   2.0000      -0.416668       -11.3381 
  18   0.0000       0.113181         3.0798 
  19   0.0000       0.156858         4.2683 
  20   0.0000       0.180559         4.9133 
  21   0.0000       0.210148         5.7184 
  22   0.0000       0.215604         5.8669 
  23   0.0000       0.223106         6.0710 
  24   0.0000       0.242000         6.5851 
  25   0.0000       0.244351         6.6491 
  26   0.0000       0.259040         7.0488 
  27   0.0000       0.311492         8.4761 
  28   0.0000       0.325565         8.8591 
  29   0.0000       0.354616         9.6496 
  30   0.0000       0.364668         9.9231 
  31   0.0000       0.395381        10.7589 
  32   0.0000       0.459620        12.5069 
  33   0.0000       0.470497        12.8029 
  34   0.0000       0.505027        13.7425 
  35   0.0000       0.551336        15.0026 
  36   0.0000       0.578410        15.7393 
  37   0.0000       0.585253        15.9255 
  38   0.0000       0.622487        16.9387 
  39   0.0000       0.631500        17.1840 
  40   0.0000       0.642098        17.4724 
  41   0.0000       0.647454        17.6181 
  42   0.0000       0.665203        18.1011 
  43   0.0000       0.679429        18.4882 
  44   0.0000       0.680908        18.5284 
  45   0.0000       0.722631        19.6638 
  46   0.0000       0.749921        20.4064 
  47   0.0000       0.763960        20.7884 
  48   0.0000       0.803719        21.8703 
  49   0.0000       0.875365        23.8199 
  50   0.0000       0.881868        23.9969 
  51   0.0000       0.914922        24.8963 
  52   0.0000       0.936015        25.4703 
  53   0.0000       0.967298        26.3215 
  54   0.0000       1.030212        28.0335 
  55   0.0000       1.053747        28.6739 
  56   0.0000       1.097710        29.8702 
  57   0.0000       1.119521        30.4637 
  58   0.0000       1.140021        31.0215 
  59   0.0000       1.179571        32.0978 
  60   0.0000       1.235924        33.6312 
  61   0.0000       1.271078        34.5878 
  62   0.0000       1.550350        42.1872 
  63   0.0000       1.578439        42.9515 
  64   0.0000       1.669283        45.4235 
  65   0.0000       1.680491        45.7285 
  66   0.0000       1.695161        46.1277 
  67   0.0000       1.735458        47.2242 
  68   0.0000       1.766204        48.0608 
  69   0.0000       1.773219        48.2517 
  70   0.0000       1.779398        48.4199 
  71   0.0000       1.806584        49.1596 
  72   0.0000       1.815271        49.3960 
  73   0.0000       1.831721        49.8437 
  74   0.0000       1.843981        50.1773 
  75   0.0000       1.857652        50.5493 
  76   0.0000       1.887304        51.3561 
  77   0.0000       1.933826        52.6221 
  78   0.0000       1.986957        54.0678 
  79   0.0000       2.113807        57.5196 
  80   0.0000       2.142659        58.3047 
  81   0.0000       2.170215        59.0545 
  82   0.0000       2.211447        60.1765 
  83   0.0000       2.225026        60.5460 
  84   0.0000       2.243618        61.0519 
  85   0.0000       2.277191        61.9655 
  86   0.0000       2.286195        62.2105 
  87   0.0000       2.306571        62.7650 
  88   0.0000       2.344987        63.8103 
  89   0.0000       2.381419        64.8017 
  90   0.0000       2.450118        66.6711 
  91   0.0000       2.491927        67.8088 
  92   0.0000       2.544572        69.2413 
  93   0.0000       2.555485        69.5383 
  94   0.0000       2.577320        70.1325 
  95   0.0000       2.604948        70.8842 
  96   0.0000       2.607218        70.9460 
  97   0.0000       2.616566        71.2004 
  98   0.0000       2.636310        71.7376 
  99   0.0000       2.686417        73.1011 
 100   0.0000       2.722578        74.0851 
 101   0.0000       2.728421        74.2441 
 102   0.0000       2.790538        75.9344 
 103   0.0000       2.821771        76.7843 
 104   0.0000       2.834408        77.1282 
 105   0.0000       2.854791        77.6828 
 106   0.0000       2.873938        78.2038 
 107   0.0000       2.966749        80.7294 
 108   0.0000       3.041713        82.7692 
 109   0.0000       3.076190        83.7074 
 110   0.0000       3.105807        84.5133 
 111   0.0000       3.133942        85.2789 
 112   0.0000       3.172192        86.3197 
 113   0.0000       3.200055        87.0779 
 114   0.0000       3.310250        90.0765 
 115   0.0000       3.371425        91.7411 
 116   0.0000       3.388461        92.2047 
 117   0.0000       3.417765        93.0021 
 118   0.0000       3.458837        94.1197 
 119   0.0000       3.483587        94.7932 
 120   0.0000       3.540364        96.3382 
 121   0.0000       3.588047        97.6357 
 122   0.0000       3.625288        98.6491 
 123   0.0000       3.653544        99.4180 
 124   0.0000       3.662551        99.6631 
 125   0.0000       3.711722       101.0011 
 126   0.0000       3.744637       101.8968 
 127   0.0000       3.751179       102.0748 
 128   0.0000       3.843373       104.5835 
 129   0.0000       3.868826       105.2761 
 130   0.0000       3.881723       105.6270 
 131   0.0000       3.896474       106.0284 
 132   0.0000       3.913628       106.4952 
 133   0.0000       3.941189       107.2452 
 134   0.0000       4.214396       114.6796 
 135   0.0000       4.394367       119.5768 
 136   0.0000       4.505527       122.6016 
 137   0.0000       4.519935       122.9937 
 138   0.0000       4.539279       123.5201 
 139   0.0000       4.595359       125.0461 
 140   0.0000       4.701394       127.9314 
 141   0.0000       4.742449       129.0486 
 142   0.0000       4.871946       132.5724 
 143   0.0000       4.914087       133.7191 
 144   0.0000       5.690724       154.8525 
 145   0.0000       5.733304       156.0111 
 146   0.0000       5.746408       156.3677 
 147   0.0000       5.818558       158.3310 
 148   0.0000       5.851257       159.2208 
 149   0.0000       5.933142       161.4490 
 150   0.0000       6.138972       167.0499 
 151   0.0000       6.146748       167.2615 
 152   0.0000       6.202876       168.7888 
 153   0.0000       6.213087       169.0667 
 154   0.0000       6.282556       170.9570 
 155   0.0000       6.365348       173.2099 
 156   0.0000       6.617312       180.0662 
 157   0.0000       6.752271       183.7386 
 158   0.0000       6.980857       189.9588 
 159   0.0000       7.052499       191.9083 
 160   0.0000       7.140332       194.2983 
 161   0.0000       7.202368       195.9864 
 162   0.0000       7.255032       197.4194 
 163   0.0000       7.299742       198.6361 
 164   0.0000       7.456261       202.8952 
 165   0.0000       7.524639       204.7558 
 166   0.0000       7.627747       207.5615 
 167   0.0000       7.751386       210.9259 
 168   0.0000      23.346496       635.2904 
 169   0.0000      23.389327       636.4559 
 170   0.0000      45.180179      1229.4152 
 171   0.0000      45.297443      1232.6061 

                    ********************************
                    * MULLIKEN POPULATION ANALYSIS *
                    ********************************

-----------------------
MULLIKEN ATOMIC CHARGES
-----------------------
   0 O :   -0.582597
   1 H :    0.379455
   2 C :   -0.079979
   3 H :    0.103025
   4 H :    0.074478
   5 H :    0.075940
   6 O :   -0.569698
   7 H :    0.348204
   8 C :   -0.089707
   9 H :    0.129609
  10 H :    0.104750
  11 H :    0.106520
Sum of atomic charges:   -0.0000000

--------------------------------
MULLIKEN REDUCED ORBITAL CHARGES
--------------------------------
  0 O s       :     3.799699  s :     3.799699
      pz      :     1.357558  p :     4.749867
      px      :     1.620338
      py      :     1.771971
      dz2     :     0.008909  d :     0.031376
      dxz     :     0.009145
      dyz     :     0.002592
      dx2y2   :     0.003897
      dxy     :     0.006833
      f0      :     0.000409  f :     0.001655
      f+1     :     0.000321
      f-1     :     0.000141
      f+2     :     0.000114
      f-2     :     0.000311
      f+3     :     0.000145
      f-3     :     0.000213
  1 H s       :     0.563812  s :     0.563812
      pz      :     0.033049  p :     0.056733
      px      :     0.011584
      py      :     0.012101
  2 C s       :     3.187818  s :     3.187818
      pz      :     0.972384  p :     2.763133
      px      :     0.869144
      py      :     0.921606
      dz2     :     0.036622  d :     0.119936
      dxz     :     0.015974
      dyz     :     0.014357
      dx2y2   :     0.033467
      dxy     :     0.019516
      f0      :     0.000953  f :     0.009092
      f+1     :     0.001850
      f-1     :     0.000642
      f+2     :     0.001563
      f-2     :     0.001094
      f+3     :     0.001235
      f-3     :     0.001756
  3 H s       :     0.876000  s :     0.876000
      pz      :     0.013621  p :     0.020974
      px      :     0.004091
      py      :     0.003262
  4 H s       :     0.905715  s :     0.905715
      pz      :     0.003974  p :     0.019806
      px      :     0.002954
      py      :     0.012878
  5 H s       :     0.904152  s :     0.904152
      pz      :     0.002963  p :     0.019908
      px      :     0.011638
      py      :     0.005307
  6 O s       :     3.801383  s :     3.801383
      pz      :     1.718131  p :     4.735296
      px      :     1.624228
      py      :     1.392937
      dz2     :     0.005923  d :     0.031348
      dxz     :     0.003225
      dyz     :     0.006769
      dx2y2   :     0.003513
      dxy     :     0.011919
      f0      :     0.000176  f :     0.001671
      f+1     :     0.000153
      f-1     :     0.000307
      f+2     :     0.000264
      f-2     :     0.000190
      f+3     :     0.000223
      f-3     :     0.000358
  7 H s       :     0.609321  s :     0.609321
      pz      :     0.011504  p :     0.042474
      px      :     0.015597
      py      :     0.015373
  8 C s       :     3.200594  s :     3.200594
      pz      :     0.912350  p :     2.769737
      px      :     1.042685
      py      :     0.814701
      dz2     :     0.037616  d :     0.110422
      dxz     :     0.006631
      dyz     :     0.017413
      dx2y2   :     0.017568
      dxy     :     0.031194
      f0      :     0.001294  f :     0.008954
      f+1     :     0.000370
      f-1     :     0.002465
      f+2     :     0.001096
      f-2     :     0.001281
      f+3     :     0.001251
      f-3     :     0.001197
  9 H s       :     0.849004  s :     0.849004
      pz      :     0.003371  p :     0.021388
      px      :     0.008500
      py      :     0.009517
 10 H s       :     0.875021  s :     0.875021
      pz      :     0.003094  p :     0.020229
      px      :     0.012920
      py      :     0.004215
 11 H s       :     0.872891  s :     0.872891
      pz      :     0.014072  p :     0.020589
      px      :     0.003509
      py      :     0.003007


                     *******************************
                     * LOEWDIN POPULATION ANALYSIS *
                     *******************************

----------------------
LOEWDIN ATOMIC CHARGES
----------------------
   0 O :   -0.148731
   1 H :    0.167610
   2 C :   -0.351373
   3 H :    0.097912
   4 H :    0.081589
   5 H :    0.081744
   6 O :   -0.100936
   7 H :    0.196225
   8 C :   -0.321824
   9 H :    0.108240
  10 H :    0.093162
  11 H :    0.096383

-------------------------------
LOEWDIN REDUCED ORBITAL CHARGES
-------------------------------
  0 O s       :     3.388655  s :     3.388655
      pz      :     1.344335  p :     4.691625
      px      :     1.628358
      py      :     1.718933
      dz2     :     0.020700  d :     0.064563
      dxz     :     0.015393
      dyz     :     0.007276
      dx2y2   :     0.009215
      dxy     :     0.011978
      f0      :     0.000569  f :     0.003888
      f+1     :     0.001003
      f-1     :     0.000317
      f+2     :     0.000460
      f-2     :     0.000660
      f+3     :     0.000474
      f-3     :     0.000405
  1 H s       :     0.646057  s :     0.646057
      pz      :     0.109984  p :     0.186333
      px      :     0.040300
      py      :     0.036048
  2 C s       :     2.861904  s :     2.861904
      pz      :     1.016646  p :     2.999858
      px      :     0.971449
      py      :     1.011763
      dz2     :     0.111009  d :     0.432165
      dxz     :     0.064260
      dyz     :     0.049198
      dx2y2   :     0.120389
      dxy     :     0.087309
      f0      :     0.005054  f :     0.057446
      f+1     :     0.010158
      f-1     :     0.004585
      f+2     :     0.011784
      f-2     :     0.009642
      f+3     :     0.007025
      f-3     :     0.009199
  3 H s       :     0.843853  s :     0.843853
      pz      :     0.034402  p :     0.058235
      px      :     0.012946
      py      :     0.010887
  4 H s       :     0.860787  s :     0.860787
      pz      :     0.013517  p :     0.057624
      px      :     0.010273
      py      :     0.033834
  5 H s       :     0.860244  s :     0.860244
      pz      :     0.011121  p :     0.058012
      px      :     0.030740
      py      :     0.016151
  6 O s       :     3.384197  s :     3.384197
      pz      :     1.658609  p :     4.644236
      px      :     1.592577
      py      :     1.393051
      dz2     :     0.015184  d :     0.068367
      dxz     :     0.005849
      dyz     :     0.014178
      dx2y2   :     0.008742
      dxy     :     0.024414
      f0      :     0.000417  f :     0.004136
      f+1     :     0.000376
      f-1     :     0.000821
      f+2     :     0.000595
      f-2     :     0.000615
      f+3     :     0.000431
      f-3     :     0.000882
  7 H s       :     0.657411  s :     0.657411
      pz      :     0.035776  p :     0.146364
      px      :     0.062121
      py      :     0.048467
  8 C s       :     2.862085  s :     2.862085
      pz      :     0.991235  p :     2.989390
      px      :     1.084754
      py      :     0.913402
      dz2     :     0.135690  d :     0.413634
      dxz     :     0.025175
      dyz     :     0.084126
      dx2y2   :     0.058151
      dxy     :     0.110492
      f0      :     0.004861  f :     0.056715
      f+1     :     0.003190
      f-1     :     0.014898
      f+2     :     0.010174
      f-2     :     0.010733
      f+3     :     0.007153
      f-3     :     0.005707
  9 H s       :     0.831908  s :     0.831908
      pz      :     0.011325  p :     0.059853
      px      :     0.024153
      py      :     0.024375
 10 H s       :     0.847631  s :     0.847631
      pz      :     0.010998  p :     0.059208
      px      :     0.034739
      py      :     0.013471
 11 H s       :     0.844580  s :     0.844580
      pz      :     0.036397  p :     0.059037
      px      :     0.012169
      py      :     0.010471


                      *****************************
                      * MAYER POPULATION ANALYSIS *
                      *****************************

  NA   - Mulliken gross atomic population
  ZA   - Total nuclear charge
  QA   - Mulliken gross atomic charge
  VA   - Mayer's total valence
  BVA  - Mayer's bonded valence
  FA   - Mayer's free valence

  ATOM       NA         ZA         QA         VA         BVA        FA
  0 O      8.5826     8.0000    -0.5826     1.7394     1.7394    -0.0000
  1 H      0.6205     1.0000     0.3795     0.8896     0.8896    -0.0000
  2 C      6.0800     6.0000    -0.0800     3.9416     3.9416    -0.0000
  3 H      0.8970     1.0000     0.1030     0.9654     0.9654    -0.0000
  4 H      0.9255     1.0000     0.0745     0.9582     0.9582     0.0000
  5 H      0.9241     1.0000     0.0759     0.9584     0.9584     0.0000
  6 O      8.5697     8.0000    -0.5697     1.7803     1.7803    -0.0000
  7 H      0.6518     1.0000     0.3482     0.8849     0.8849    -0.0000
  8 C      6.0897     6.0000    -0.0897     3.8528     3.8528    -0.0000
  9 H      0.8704     1.0000     0.1296     0.9657     0.9657    -0.0000
 10 H      0.8953     1.0000     0.1047     0.9610     0.9610     0.0000
 11 H      0.8935     1.0000     0.1065     0.9632     0.9632    -0.0000

  Mayer bond orders larger than 0.100000
B(  0-O ,  1-H ) :   0.8273 B(  0-O ,  2-C ) :   0.9593 B(  2-C ,  3-H ) :   0.9886 
B(  2-C ,  4-H ) :   0.9878 B(  2-C ,  5-H ) :   0.9871 B(  6-O ,  7-H ) :   0.8736 
B(  6-O ,  8-C ) :   0.8877 B(  8-C ,  9-H ) :   0.9838 B(  8-C , 10-H ) :   0.9864 
B(  8-C , 11-H ) :   0.9828 

-------
TIMINGS
-------

Total SCF time: 0 days 0 hours 0 min 6 sec 

Total time                  ....       6.844 sec
Sum of individual times     ....       6.639 sec  ( 97.0%)

Fock matrix formation       ....       6.430 sec  ( 93.9%)
Diagonalization             ....       0.030 sec  (  0.4%)
Density matrix formation    ....       0.004 sec  (  0.1%)
Population analysis         ....       0.012 sec  (  0.2%)
Initial guess               ....       0.112 sec  (  1.6%)
Orbital Transformation      ....       0.000 sec  (  0.0%)
Orbital Orthonormalization  ....       0.000 sec  (  0.0%)
DIIS solution               ....       0.010 sec  (  0.1%)
SOSCF solution              ....       0.012 sec  (  0.2%)


           ************************************************************
           *        Program running with 6 parallel MPI-processes     *
           *              working on a common directory               *
           ************************************************************

------------------------------------------------------------------------------
                                ORCA  MP2 
------------------------------------------------------------------------------

Freezing NCore=8 chemical core electrons
MP2 will be done in the AO integral direct mode
The Q1-step will be done using symmetric double matrices
Dimension of the basis                    ...  172
Memory devoted for MP2                    ... 8000 MB   
Memory needed for all in one shot         ...   60 MB
Number of MOs that can be treated together...  408      
MP2 density construction                  ... relaxed
The MP2 gradient is requested => amplitudes will be stored on disk
Total number of MOs              ...   14
Number of MOs treated per batch  ...    3 
Number of batches necessary      ...    1 
OPERATORS   0/  0 PASS   0
-----------------------------------------------
 MP2 CORRELATION ENERGY   :     -0.839648005 Eh
-----------------------------------------------


---------------------
MP2 DENSITY FORMATION
---------------------

Completing the external part of the density      ... done
Storing the unrelaxed density                    ... done

Calculating G(D)                                 ... done
Completing the Lagrangian                        ... done
Solving the Z-vector equations                   ... 

------------------------------------------------------------------------------
                           ORCA CP-SCF CALCULATION
------------------------------------------------------------------------------

Input orbitals are from        ... 12meoh.boyd.etal.mol4,5-orca.engrad-mp2.def2tzvp.frozencore.gbw
Input Perturbation             ... 12meoh.boyd.etal.mol4,5-orca.engrad-mp2.def2tzvp.frozencore.pin.tmp
Wavefunction output            ... 12meoh.boyd.etal.mol4,5-orca.engrad-mp2.def2tzvp.frozencore.pout.tmp
Perturbation mode              ... Real perturbation (singlet)
Solver                         ... POPLE
Max. number of iterations      ... 128
Convergence tolerance          ... 1.000e-08
Integral handling              ... Direct
Number of perturbations        ... 1
Number of operators            ... 1
Orbital ranges used for CP-SCF:
 Operator 0:  Orbitals   0... 17  to  18...171
Variables per vector in CP-SCF ... 2772
Number of vectors sought       ... 1
     CP-SCF ITERATION   0: 
     CP-SCF ITERATION   1:      0.000233185701
     CP-SCF ITERATION   2:      0.000018442580
     CP-SCF ITERATION   3:      0.000002731052
     CP-SCF ITERATION   4:      0.000000116392
     CP-SCF ITERATION   5:      0.000000004187
                                                 ... done
Finalizing the relaxed density                   ... done
Transforming P to the AO basis                   ... done
Storing the relaxed density                      ... done

------------------------------------
ENERGY WEIGHTED DENSITY FINALIZATION
------------------------------------

Gathering the parts of the W-matrix              ...                                                      done
Forming the Z-density                            ... done
Transforming Z to the AO basis                   ... done
Calculating G(Z)                                 ... done
Finalizing the W-matrix                          ...                                                      done
Transforming W to the AO basis and storing       ... done

                *********************************************
                * UNRELAXED MP2 DENSITY POPULATION ANALYSIS *
                *********************************************

------------------------------------------------------------------------------
                           ORCA POPULATION ANALYSIS
------------------------------------------------------------------------------
Input electron density              ... 12meoh.boyd.etal.mol4,5-orca.engrad-mp2.def2tzvp.frozencore.pmp2ur
BaseName (.gbw .S,...)              ... 12meoh.boyd.etal.mol4,5-orca.engrad-mp2.def2tzvp.frozencore

                    ********************************
                    * MULLIKEN POPULATION ANALYSIS *
                    ********************************

-----------------------
MULLIKEN ATOMIC CHARGES
-----------------------
   0 O :   -0.570505
   1 H :    0.375112
   2 C :   -0.096761
   3 H :    0.105871
   4 H :    0.077014
   5 H :    0.078504
   6 O :   -0.557900
   7 H :    0.345515
   8 C :   -0.105178
   9 H :    0.132243
  10 H :    0.107141
  11 H :    0.108944
Sum of atomic charges:   -0.0000000

--------------------------------
MULLIKEN REDUCED ORBITAL CHARGES
--------------------------------
  0 O s       :     3.794301  s :     3.794301
      pz      :     1.347568  p :     4.712658
      px      :     1.606942
      py      :     1.758147
      dz2     :     0.014443  d :     0.059210
      dxz     :     0.014555
      dyz     :     0.008382
      dx2y2   :     0.009559
      dxy     :     0.012271
      f0      :     0.000790  f :     0.004336
      f+1     :     0.000716
      f-1     :     0.000524
      f+2     :     0.000499
      f-2     :     0.000690
      f+3     :     0.000528
      f-3     :     0.000589
  1 H s       :     0.566393  s :     0.566393
      pz      :     0.033041  p :     0.058496
      px      :     0.012443
      py      :     0.013011
  2 C s       :     3.185992  s :     3.185992
      pz      :     0.970266  p :     2.757489
      px      :     0.867858
      py      :     0.919365
      dz2     :     0.040869  d :     0.140852
      dxz     :     0.020182
      dyz     :     0.018956
      dx2y2   :     0.037484
      dxy     :     0.023361
      f0      :     0.001436  f :     0.012428
      f+1     :     0.002300
      f-1     :     0.001187
      f+2     :     0.002037
      f-2     :     0.001507
      f+3     :     0.001787
      f-3     :     0.002175
  3 H s       :     0.870026  s :     0.870026
      pz      :     0.014517  p :     0.024102
      px      :     0.005184
      py      :     0.004402
  4 H s       :     0.899898  s :     0.899898
      pz      :     0.005127  p :     0.023087
      px      :     0.004145
      py      :     0.013815
  5 H s       :     0.898313  s :     0.898313
      pz      :     0.004143  p :     0.023183
      px      :     0.012622
      py      :     0.006418
  6 O s       :     3.796020  s :     3.796020
      pz      :     1.703842  p :     4.698127
      px      :     1.611823
      py      :     1.382462
      dz2     :     0.011754  d :     0.059397
      dxz     :     0.008939
      dyz     :     0.012381
      dx2y2   :     0.009112
      dxy     :     0.017210
      f0      :     0.000562  f :     0.004356
      f+1     :     0.000533
      f-1     :     0.000695
      f+2     :     0.000640
      f-2     :     0.000582
      f+3     :     0.000607
      f-3     :     0.000738
  7 H s       :     0.610401  s :     0.610401
      pz      :     0.012375  p :     0.044084
      px      :     0.016015
      py      :     0.015694
  8 C s       :     3.198490  s :     3.198490
      pz      :     0.910445  p :     2.763370
      px      :     1.037961
      py      :     0.814964
      dz2     :     0.041291  d :     0.131046
      dxz     :     0.011895
      dyz     :     0.020841
      dx2y2   :     0.021815
      dxy     :     0.035204
      f0      :     0.001780  f :     0.012272
      f+1     :     0.000883
      f-1     :     0.002929
      f+2     :     0.001501
      f-2     :     0.001756
      f+3     :     0.001750
      f-3     :     0.001673
  9 H s       :     0.843362  s :     0.843362
      pz      :     0.004472  p :     0.024395
      px      :     0.009456
      py      :     0.010466
 10 H s       :     0.869492  s :     0.869492
      pz      :     0.004241  p :     0.023368
      px      :     0.013810
      py      :     0.005317
 11 H s       :     0.867343  s :     0.867343
      pz      :     0.014924  p :     0.023714
      px      :     0.004645
      py      :     0.004144


                     *******************************
                     * LOEWDIN POPULATION ANALYSIS *
                     *******************************

----------------------
LOEWDIN ATOMIC CHARGES
----------------------
   0 O :   -0.140765
   1 H :    0.165053
   2 C :   -0.362583
   3 H :    0.099631
   4 H :    0.082985
   5 H :    0.083139
   6 O :   -0.092131
   7 H :    0.194380
   8 C :   -0.332358
   9 H :    0.110038
  10 H :    0.094682
  11 H :    0.097928

-------------------------------
LOEWDIN REDUCED ORBITAL CHARGES
-------------------------------
  0 O s       :     3.385282  s :     3.385282
      pz      :     1.334438  p :     4.654760
      px      :     1.614873
      py      :     1.705449
      dz2     :     0.026597  d :     0.093895
      dxz     :     0.021326
      dyz     :     0.013089
      dx2y2   :     0.014885
      dxy     :     0.017998
      f0      :     0.001030  f :     0.006828
      f+1     :     0.001446
      f-1     :     0.000713
      f+2     :     0.000860
      f-2     :     0.001097
      f+3     :     0.000867
      f-3     :     0.000815
  1 H s       :     0.645827  s :     0.645827
      pz      :     0.110923  p :     0.189121
      px      :     0.041275
      py      :     0.036923
  2 C s       :     2.860828  s :     2.860828
      pz      :     1.011807  p :     2.986106
      px      :     0.967368
      py      :     1.006930
      dz2     :     0.114981  d :     0.453288
      dxz     :     0.068822
      dyz     :     0.053808
      dx2y2   :     0.124144
      dxy     :     0.091533
      f0      :     0.005917  f :     0.062361
      f+1     :     0.010821
      f-1     :     0.005213
      f+2     :     0.012300
      f-2     :     0.010394
      f+3     :     0.007649
      f-3     :     0.010067
  3 H s       :     0.837026  s :     0.837026
      pz      :     0.036860  p :     0.063344
      px      :     0.014326
      py      :     0.012157
  4 H s       :     0.853996  s :     0.853996
      pz      :     0.014973  p :     0.063019
      px      :     0.011645
      py      :     0.036401
  5 H s       :     0.853459  s :     0.853459
      pz      :     0.012435  p :     0.063401
      px      :     0.033276
      py      :     0.017690
  6 O s       :     3.380700  s :     3.380700
      pz      :     1.644065  p :     4.606598
      px      :     1.580477
      py      :     1.382057
      dz2     :     0.021036  d :     0.097754
      dxz     :     0.011624
      dyz     :     0.020490
      dx2y2   :     0.014363
      dxy     :     0.030242
      f0      :     0.000832  f :     0.007078
      f+1     :     0.000780
      f-1     :     0.001253
      f+2     :     0.001016
      f-2     :     0.001033
      f+3     :     0.000856
      f-3     :     0.001309
  7 H s       :     0.655807  s :     0.655807
      pz      :     0.036659  p :     0.149813
      px      :     0.063547
      py      :     0.049607
  8 C s       :     2.860896  s :     2.860896
      pz      :     0.986780  p :     2.975506
      px      :     1.078235
      py      :     0.910491
      dz2     :     0.139279  d :     0.434395
      dxz     :     0.030127
      dyz     :     0.088106
      dx2y2   :     0.062388
      dxy     :     0.114495
      f0      :     0.005729  f :     0.061561
      f+1     :     0.003845
      f-1     :     0.015542
      f+2     :     0.010800
      f-2     :     0.011308
      f+3     :     0.007872
      f-3     :     0.006465
  9 H s       :     0.825214  s :     0.825214
      pz      :     0.012603  p :     0.064748
      px      :     0.025830
      py      :     0.026314
 10 H s       :     0.840954  s :     0.840954
      pz      :     0.012311  p :     0.064364
      px      :     0.037074
      py      :     0.014979
 11 H s       :     0.837911  s :     0.837911
      pz      :     0.038902  p :     0.064160
      px      :     0.013405
      py      :     0.011853


                      *****************************
                      * MAYER POPULATION ANALYSIS *
                      *****************************

  NA   - Mulliken gross atomic population
  ZA   - Total nuclear charge
  QA   - Mulliken gross atomic charge
  VA   - Mayer's total valence
  BVA  - Mayer's bonded valence
  FA   - Mayer's free valence

  ATOM       NA         ZA         QA         VA         BVA        FA
  0 O      8.5705     8.0000    -0.5705     2.0447     1.6354     0.4093
  1 H      0.6249     1.0000     0.3751     0.8970     0.8480     0.0490
  2 C      6.0968     6.0000    -0.0968     4.0465     3.7626     0.2839
  3 H      0.8941     1.0000     0.1059     0.9745     0.9270     0.0475
  4 H      0.9230     1.0000     0.0770     0.9688     0.9183     0.0505
  5 H      0.9215     1.0000     0.0785     0.9689     0.9187     0.0502
  6 O      8.5579     8.0000    -0.5579     2.0840     1.6755     0.4085
  7 H      0.6545     1.0000     0.3455     0.8911     0.8396     0.0515
  8 C      6.1052     6.0000    -0.1052     3.9599     3.6821     0.2778
  9 H      0.8678     1.0000     0.1322     0.9739     0.9281     0.0458
 10 H      0.8929     1.0000     0.1071     0.9704     0.9221     0.0483
 11 H      0.8911     1.0000     0.1089     0.9725     0.9243     0.0482

  Mayer bond orders larger than 0.100000
B(  0-O ,  1-H ) :   0.7878 B(  0-O ,  2-C ) :   0.8970 B(  2-C ,  3-H ) :   0.9508 
B(  2-C ,  4-H ) :   0.9489 B(  2-C ,  5-H ) :   0.9483 B(  6-O ,  7-H ) :   0.8293 
B(  6-O ,  8-C ) :   0.8306 B(  8-C ,  9-H ) :   0.9469 B(  8-C , 10-H ) :   0.9484 
B(  8-C , 11-H ) :   0.9449 


                *******************************************
                * RELAXED MP2 DENSITY POPULATION ANALYSIS *
                *******************************************

------------------------------------------------------------------------------
                           ORCA POPULATION ANALYSIS
------------------------------------------------------------------------------
Input electron density              ... 12meoh.boyd.etal.mol4,5-orca.engrad-mp2.def2tzvp.frozencore.pmp2re
BaseName (.gbw .S,...)              ... 12meoh.boyd.etal.mol4,5-orca.engrad-mp2.def2tzvp.frozencore

                    ********************************
                    * MULLIKEN POPULATION ANALYSIS *
                    ********************************

-----------------------
MULLIKEN ATOMIC CHARGES
-----------------------
   0 O :   -0.524763
   1 H :    0.354122
   2 C :   -0.182383
   3 H :    0.124748
   4 H :    0.093492
   5 H :    0.095729
   6 O :   -0.516002
   7 H :    0.340675
   8 C :   -0.184479
   9 H :    0.149783
  10 H :    0.123631
  11 H :    0.125447
Sum of atomic charges:   -0.0000000

--------------------------------
MULLIKEN REDUCED ORBITAL CHARGES
--------------------------------
  0 O s       :     3.790633  s :     3.790633
      pz      :     1.334649  p :     4.672482
      px      :     1.594080
      py      :     1.743752
      dz2     :     0.014076  d :     0.057360
      dxz     :     0.013490
      dyz     :     0.008201
      dx2y2   :     0.009822
      dxy     :     0.011773
      f0      :     0.000770  f :     0.004287
      f+1     :     0.000709
      f-1     :     0.000527
      f+2     :     0.000500
      f-2     :     0.000668
      f+3     :     0.000533
      f-3     :     0.000580
  1 H s       :     0.587446  s :     0.587446
      pz      :     0.031438  p :     0.058432
      px      :     0.013110
      py      :     0.013885
  2 C s       :     3.207485  s :     3.207485
      pz      :     0.994113  p :     2.830555
      px      :     0.890968
      py      :     0.945473
      dz2     :     0.038870  d :     0.132445
      dxz     :     0.018761
      dyz     :     0.017999
      dx2y2   :     0.035358
      dxy     :     0.021457
      f0      :     0.001366  f :     0.011898
      f+1     :     0.002178
      f-1     :     0.001156
      f+2     :     0.001935
      f-2     :     0.001443
      f+3     :     0.001754
      f-3     :     0.002066
  3 H s       :     0.852273  s :     0.852273
      pz      :     0.013142  p :     0.022979
      px      :     0.005206
      py      :     0.004631
  4 H s       :     0.884451  s :     0.884451
      pz      :     0.005169  p :     0.022056
      px      :     0.004407
      py      :     0.012480
  5 H s       :     0.882116  s :     0.882116
      pz      :     0.004373  p :     0.022155
      px      :     0.011482
      py      :     0.006300
  6 O s       :     3.799724  s :     3.799724
      pz      :     1.683769  p :     4.654367
      px      :     1.594250
      py      :     1.376347
      dz2     :     0.011945  d :     0.057607
      dxz     :     0.009026
      dyz     :     0.011477
      dx2y2   :     0.008962
      dxy     :     0.016196
      f0      :     0.000558  f :     0.004304
      f+1     :     0.000528
      f-1     :     0.000690
      f+2     :     0.000626
      f-2     :     0.000578
      f+3     :     0.000599
      f-3     :     0.000725
  7 H s       :     0.614680  s :     0.614680
      pz      :     0.013315  p :     0.044645
      px      :     0.015882
      py      :     0.015448
  8 C s       :     3.219456  s :     3.219456
      pz      :     0.932950  p :     2.832449
      px      :     1.064688
      py      :     0.834812
      dz2     :     0.036875  d :     0.120869
      dxz     :     0.012803
      dyz     :     0.018533
      dx2y2   :     0.020104
      dxy     :     0.032554
      f0      :     0.001700  f :     0.011705
      f+1     :     0.000848
      f-1     :     0.002766
      f+2     :     0.001418
      f-2     :     0.001716
      f+3     :     0.001683
      f-3     :     0.001574
  9 H s       :     0.827004  s :     0.827004
      pz      :     0.004640  p :     0.023212
      px      :     0.008901
      py      :     0.009671
 10 H s       :     0.854128  s :     0.854128
      pz      :     0.004460  p :     0.022242
      px      :     0.012514
      py      :     0.005268
 11 H s       :     0.851957  s :     0.851957
      pz      :     0.013439  p :     0.022596
      px      :     0.004877
      py      :     0.004280


                     *******************************
                     * LOEWDIN POPULATION ANALYSIS *
                     *******************************

----------------------
LOEWDIN ATOMIC CHARGES
----------------------
   0 O :   -0.125504
   1 H :    0.159109
   2 C :   -0.398254
   3 H :    0.107080
   4 H :    0.088994
   5 H :    0.089265
   6 O :   -0.074441
   7 H :    0.197247
   8 C :   -0.366288
   9 H :    0.117207
  10 H :    0.101198
  11 H :    0.104386

-------------------------------
LOEWDIN REDUCED ORBITAL CHARGES
-------------------------------
  0 O s       :     3.387598  s :     3.387598
      pz      :     1.335217  p :     4.637116
      px      :     1.606161
      py      :     1.695737
      dz2     :     0.026768  d :     0.093842
      dxz     :     0.020924
      dyz     :     0.013074
      dx2y2   :     0.015248
      dxy     :     0.017828
      f0      :     0.001056  f :     0.006948
      f+1     :     0.001474
      f-1     :     0.000721
      f+2     :     0.000876
      f-2     :     0.001115
      f+3     :     0.000877
      f-3     :     0.000828
  1 H s       :     0.651439  s :     0.651439
      pz      :     0.109486  p :     0.189453
      px      :     0.042098
      py      :     0.037870
  2 C s       :     2.866821  s :     2.866821
      pz      :     1.025245  p :     3.025749
      px      :     0.979350
      py      :     1.021153
      dz2     :     0.112710  d :     0.444839
      dxz     :     0.066896
      dyz     :     0.051561
      dx2y2   :     0.124209
      dxy     :     0.089464
      f0      :     0.005786  f :     0.060844
      f+1     :     0.010542
      f-1     :     0.005058
      f+2     :     0.011999
      f-2     :     0.010339
      f+3     :     0.007221
      f-3     :     0.009899
  3 H s       :     0.829122  s :     0.829122
      pz      :     0.036501  p :     0.063798
      px      :     0.014649
      py      :     0.012648
  4 H s       :     0.847106  s :     0.847106
      pz      :     0.015377  p :     0.063900
      px      :     0.012206
      py      :     0.036317
  5 H s       :     0.846430  s :     0.846430
      pz      :     0.012985  p :     0.064305
      px      :     0.033378
      py      :     0.017942
  6 O s       :     3.383537  s :     3.383537
      pz      :     1.628943  p :     4.585821
      px      :     1.574998
      py      :     1.381880
      dz2     :     0.021546  d :     0.097890
      dxz     :     0.011957
      dyz     :     0.020220
      dx2y2   :     0.014419
      dxy     :     0.029748
      f0      :     0.000842  f :     0.007193
      f+1     :     0.000785
      f-1     :     0.001284
      f+2     :     0.001039
      f-2     :     0.001049
      f+3     :     0.000871
      f-3     :     0.001322
  7 H s       :     0.652484  s :     0.652484
      pz      :     0.037406  p :     0.150269
      px      :     0.063830
      py      :     0.049033
  8 C s       :     2.866958  s :     2.866958
      pz      :     1.000179  p :     3.015739
      px      :     1.093500
      py      :     0.922060
      dz2     :     0.137554  d :     0.423606
      dxz     :     0.029860
      dyz     :     0.084642
      dx2y2   :     0.059128
      dxy     :     0.112422
      f0      :     0.005468  f :     0.059985
      f+1     :     0.003769
      f-1     :     0.015031
      f+2     :     0.010631
      f-2     :     0.011168
      f+3     :     0.007654
      f-3     :     0.006264
  9 H s       :     0.817722  s :     0.817722
      pz      :     0.013041  p :     0.065070
      px      :     0.025800
      py      :     0.026229
 10 H s       :     0.833706  s :     0.833706
      pz      :     0.012808  p :     0.065096
      px      :     0.036798
      py      :     0.015489
 11 H s       :     0.830757  s :     0.830757
      pz      :     0.038649  p :     0.064856
      px      :     0.013876
      py      :     0.012332


                      *****************************
                      * MAYER POPULATION ANALYSIS *
                      *****************************

  NA   - Mulliken gross atomic population
  ZA   - Total nuclear charge
  QA   - Mulliken gross atomic charge
  VA   - Mayer's total valence
  BVA  - Mayer's bonded valence
  FA   - Mayer's free valence

  ATOM       NA         ZA         QA         VA         BVA        FA
  0 O      8.5248     8.0000    -0.5248     2.1059     1.7033     0.4026
  1 H      0.6459     1.0000     0.3541     0.9242     0.8757     0.0486
  2 C      6.1824     6.0000    -0.1824     4.0701     3.7888     0.2813
  3 H      0.8753     1.0000     0.1247     0.9660     0.9192     0.0468
  4 H      0.9065     1.0000     0.0935     0.9611     0.9113     0.0498
  5 H      0.9043     1.0000     0.0957     0.9607     0.9111     0.0495
  6 O      8.5160     8.0000    -0.5160     2.1560     1.7552     0.4008
  7 H      0.6593     1.0000     0.3407     0.8936     0.8420     0.0516
  8 C      6.1845     6.0000    -0.1845     3.9734     3.6980     0.2755
  9 H      0.8502     1.0000     0.1498     0.9664     0.9211     0.0453
 10 H      0.8764     1.0000     0.1236     0.9633     0.9155     0.0477
 11 H      0.8746     1.0000     0.1254     0.9648     0.9173     0.0476

  Mayer bond orders larger than 0.100000
B(  0-O ,  1-H ) :   0.7899 B(  0-O ,  2-C ) :   0.9475 B(  2-C ,  3-H ) :   0.9427 
B(  2-C ,  4-H ) :   0.9376 B(  2-C ,  5-H ) :   0.9371 B(  6-O ,  7-H ) :   0.8289 
B(  6-O ,  8-C ) :   0.8716 B(  8-C ,  9-H ) :   0.9388 B(  8-C , 10-H ) :   0.9377 
B(  8-C , 11-H ) :   0.9341 


----------------------------------
MP2 DERIVATIVE INTEGRAL GENERATION
----------------------------------


Input Wavefunction Amplitudes       ... 12meoh.boyd.etal.mol4,5-orca.engrad-mp2.def2tzvp.frozencore.mp2tsaa.tmp
Input Correlated Electron Density   ... 12meoh.boyd.etal.mol4,5-orca.engrad-mp2.def2tzvp.frozencore.pmp2re
Input Energy Weighted Density       ... 12meoh.boyd.etal.mol4,5-orca.engrad-mp2.def2tzvp.frozencore.wmp2.tmp
Input SCF Electron Density          ... 12meoh.boyd.etal.mol4,5-orca.engrad-mp2.def2tzvp.frozencore.scfp

One-Electron Terms    ...
                        ... One-Electron Terms done
Prescreening matrices              ... done

Batch handling in the gradient evaluation:
Memory available                      ... 8000.0 MB
Memory per occupied orbital in Q2     ...    3.2 MB
Memory per occupied orbital in Q3     ...    0.1 MB
Total memory requirement per |i>      ...    3.2 MB
Max. Number of orbitals possible      ...   2481
Number of orbitals treated per batch  ...     14
Number of batches to be done          ...      1
Batch   0: i=    4 ...    17

---------------------------------------
MP2 TOTAL ENERGY:     -231.020906382 Eh
---------------------------------------

The final MP2 gradient
  0:  -0.00875414  -0.00204034   0.00755252
  1:   0.00699359  -0.00252105  -0.02119998
  2:   0.00552825   0.00463347   0.00676290
  3:  -0.00143646   0.00014870   0.00319658
  4:   0.00005594   0.00201507  -0.00171613
  5:   0.00053833  -0.00167318  -0.00145766
  6:  -0.01967331  -0.01537214   0.00650196
  7:   0.01854201   0.01731844  -0.00010292
  8:  -0.00447281   0.00192790   0.00578478
  9:  -0.00124422  -0.00485667  -0.00091517
 10:   0.00376786  -0.00118486  -0.00010918
 11:   0.00015496   0.00160465  -0.00429769

-----------------------------------
NORM OF THE MP2 GRADIENT:  0.046841
-----------------------------------

-------------------------   --------------------
FINAL SINGLE POINT ENERGY      -231.020906382156
-------------------------   --------------------


                            ***************************************
                            *     ORCA property calculations      *
                            ***************************************

                                    ---------------------
                                    Active property flags
                                    ---------------------
   (+) Dipole Moment


------------------------------------------------------------------------------
                       ORCA ELECTRIC PROPERTIES CALCULATION
------------------------------------------------------------------------------

Dipole Moment Calculation                       ... on
Quadrupole Moment Calculation                   ... off
Polarizability Calculation                      ... off
GBWName                                         ... 12meoh.boyd.etal.mol4,5-orca.engrad-mp2.def2tzvp.frozencore.gbw
Electron density file                           ... 12meoh.boyd.etal.mol4,5-orca.engrad-mp2.def2tzvp.frozencore.scfp
The origin for moment calculation is the CENTER OF MASS  = (-1.284152,  2.373966 -0.255117)

-------------
DIPOLE MOMENT
-------------
                                X             Y             Z
Electronic contribution:     -1.74770       0.27604      -0.15260
Nuclear contribution   :      2.96473      -0.12774      -0.95847
                        -----------------------------------------
Total Dipole Moment    :      1.21703       0.14831      -1.11107
                        -----------------------------------------
Magnitude (a.u.)       :      1.65458
Magnitude (Debye)      :      4.20561



--------------------
Rotational spectrum 
--------------------
 
Rotational constants in cm-1:     0.651521     0.077607     0.075012 
Rotational constants in MHz : 19532.112749  2326.591439  2248.791375 

 Dipole components along the rotational axes: 
x,y,z [a.u.] :    -1.131202    -1.098162     0.502058 
x,y,z [Debye]:    -2.875287    -2.791305     1.276131 

 

                         *** MP2 UNRELAXED DENSITY ***

------------------------------------------------------------------------------
                       ORCA ELECTRIC PROPERTIES CALCULATION
------------------------------------------------------------------------------

Dipole Moment Calculation                       ... on
Quadrupole Moment Calculation                   ... off
Polarizability Calculation                      ... off
GBWName                                         ... 12meoh.boyd.etal.mol4,5-orca.engrad-mp2.def2tzvp.frozencore.gbw
Electron density file                           ... 12meoh.boyd.etal.mol4,5-orca.engrad-mp2.def2tzvp.frozencore.pmp2ur
The origin for moment calculation is the CENTER OF MASS  = (-1.284152,  2.373966 -0.255117)

-------------
DIPOLE MOMENT
-------------
                                X             Y             Z
Electronic contribution:     -1.77266       0.27240      -0.14536
Nuclear contribution   :      2.96473      -0.12774      -0.95847
                        -----------------------------------------
Total Dipole Moment    :      1.19207       0.14466      -1.10384
                        -----------------------------------------
Magnitude (a.u.)       :      1.63108
Magnitude (Debye)      :      4.14587



--------------------
Rotational spectrum 
--------------------
 
Rotational constants in cm-1:     0.651521     0.077607     0.075012 
Rotational constants in MHz : 19532.112749  2326.591439  2248.791375 

 Dipole components along the rotational axes: 
x,y,z [a.u.] :    -1.123132    -1.077212     0.488474 
x,y,z [Debye]:    -2.854775    -2.738056     1.241603 

 

                           *** MP2 RELAXED DENSITY ***

------------------------------------------------------------------------------
                       ORCA ELECTRIC PROPERTIES CALCULATION
------------------------------------------------------------------------------

Dipole Moment Calculation                       ... on
Quadrupole Moment Calculation                   ... off
Polarizability Calculation                      ... off
GBWName                                         ... 12meoh.boyd.etal.mol4,5-orca.engrad-mp2.def2tzvp.frozencore.gbw
Electron density file                           ... 12meoh.boyd.etal.mol4,5-orca.engrad-mp2.def2tzvp.frozencore.pmp2re
The origin for moment calculation is the CENTER OF MASS  = (-1.284152,  2.373966 -0.255117)

-------------
DIPOLE MOMENT
-------------
                                X             Y             Z
Electronic contribution:     -1.80073       0.27035      -0.14231
Nuclear contribution   :      2.96473      -0.12774      -0.95847
                        -----------------------------------------
Total Dipole Moment    :      1.16400       0.14261      -1.10078
                        -----------------------------------------
Magnitude (a.u.)       :      1.60840
Magnitude (Debye)      :      4.08823



--------------------
Rotational spectrum 
--------------------
 
Rotational constants in cm-1:     0.651521     0.077607     0.075012 
Rotational constants in MHz : 19532.112749  2326.591439  2248.791375 

 Dipole components along the rotational axes: 
x,y,z [a.u.] :    -1.118426    -1.055739     0.470633 
x,y,z [Debye]:    -2.842813    -2.683474     1.196254 

 

Timings for individual modules:

Sum of individual times         ...       25.296 sec (=   0.422 min)
GTO integral calculation        ...        1.168 sec (=   0.019 min)   4.6 %
SCF iterations                  ...        7.631 sec (=   0.127 min)  30.2 %
MP2 module                      ...       16.497 sec (=   0.275 min)  65.2 %
                             ****ORCA TERMINATED NORMALLY****
TOTAL RUN TIME: 0 days 0 hours 0 minutes 26 seconds 282 msec
