
                                 *****************
                                 * O   R   C   A *
                                 *****************

           --- An Ab Initio, DFT and Semiempirical electronic structure package ---

                  #######################################################
                  #                        -***-                        #
                  #          Department of theory and spectroscopy      #
                  #               Directorship: Frank Neese             #
                  #        Max Planck Institute fuer Kohlenforschung    #
                  #                Kaiser Wilhelm Platz 1               #
                  #                 D-45470 Muelheim/Ruhr               #
                  #                      Germany                        #
                  #                                                     #
                  #                  All rights reserved                #
                  #                        -***-                        #
                  #######################################################


                         Program Version 4.2.0 -  RELEASE  -


 With contributions from (in alphabetic order):
   Daniel Aravena         : Magnetic Suceptibility
   Michael Atanasov       : Ab Initio Ligand Field Theory (pilot matlab implementation)
   Alexander A. Auer      : GIAO ZORA, VPT2
   Ute Becker             : Parallelization
   Giovanni Bistoni       : ED, misc. LED, open-shell LED, HFLED
   Martin Brehm           : Molecular dynamics
   Dmytro Bykov           : SCF Hessian
   Vijay G. Chilkuri      : MRCI spin determinant printing, contributions to CSF-ICE
   Dipayan Datta          : RHF DLPNO-CCSD density
   Achintya Kumar Dutta   : EOM-CC, STEOM-CC
   Dmitry Ganyushin       : Spin-Orbit,Spin-Spin,Magnetic field MRCI
   Miquel Garcia          : C-PCM Hessian, Gaussian charge scheme
   Yang Guo               : DLPNO-NEVPT2, CIM, IAO-localization
   Andreas Hansen         : Spin unrestricted coupled pair/coupled cluster methods
   Benjamin Helmich-Paris : CASSCF linear response (MC-RPA)
   Lee Huntington         : MR-EOM, pCC
   Robert Izsak           : Overlap fitted RIJCOSX, COSX-SCS-MP3, EOM
   Christian Kollmar      : KDIIS, OOCD, Brueckner-CCSD(T), CCSD density
   Simone Kossmann        : Meta GGA functionals, TD-DFT gradient, OOMP2, MP2 Hessian
   Martin Krupicka        : AUTO-CI
   Lucas Lang             : DCDCAS
   Dagmar Lenk            : GEPOL surface, SMD
   Dimitrios Liakos       : Extrapolation schemes; Compound Job, initial MDCI parallelization
   Dimitrios Manganas     : Further ROCIS development; embedding schemes
   Dimitrios Pantazis     : SARC Basis sets
   Taras Petrenko         : DFT Hessian,TD-DFT gradient, ASA, ECA, R-Raman, ABS, FL, XAS/XES, NRVS
   Peter Pinski           : DLPNO-MP2, DLPNO-MP2 Gradient
   Christoph Reimann      : Effective Core Potentials
   Marius Retegan         : Local ZFS, SOC
   Christoph Riplinger    : Optimizer, TS searches, QM/MM, DLPNO-CCSD(T), (RO)-DLPNO pert. Triples
   Tobias Risthaus        : Range-separated hybrids, TD-DFT gradient, RPA, STAB
   Michael Roemelt        : Original ROCIS implementation
   Masaaki Saitow         : Open-shell DLPNO-CCSD energy and density
   Barbara Sandhoefer     : DKH picture change effects
   Avijit Sen             : IP-ROCIS
   Kantharuban Sivalingam : CASSCF convergence, NEVPT2, FIC-MRCI
   Bernardo de Souza      : ESD, SOC TD-DFT
   Georgi Stoychev        : AutoAux, RI-MP2 NMR
   Willem Van den Heuvel  : Paramagnetic NMR
   Boris Wezisla          : Elementary symmetry handling
   Frank Wennmohs         : Technical directorship


 We gratefully acknowledge several colleagues who have allowed us to
 interface, adapt or use parts of their codes:
   Stefan Grimme, W. Hujo, H. Kruse,             : VdW corrections, initial TS optimization,
                  C. Bannwarth                     DFT functionals, gCP, sTDA/sTD-DF
   Ed Valeev, F. Pavosevic, A. Kumar             : LibInt (2-el integral package), F12 methods
   Garnet Chan, S. Sharma, J. Yang, R. Olivares  : DMRG
   Ulf Ekstrom                                   : XCFun DFT Library
   Mihaly Kallay                                 : mrcc  (arbitrary order and MRCC methods)
   Andreas Klamt, Michael Diedenhofen            : otool_cosmo (COSMO solvation model)
   Jiri Pittner, Ondrej Demel                    : Mk-CCSD
   Frank Weinhold                                : gennbo (NPA and NBO analysis)
   Christopher J. Cramer and Donald G. Truhlar   : smd solvation model
   Lars Goerigk                                  : TD-DFT with DH, B97 family of functionals
   V. Asgeirsson, H. Jonsson                     : NEB implementation
   FAccTs GmbH                                   : IRC, NEB, NEB-TS, Multilevel, MM, QM/MM, CI optimization
   S Lehtola, MJT Oliveira, MAL Marques          : LibXC Library


 Your calculation uses the libint2 library for the computation of 2-el integrals
 For citations please refer to: http://libint.valeyev.net

 Your ORCA version has been built with support for libXC version: 4.2.3
 For citations please refer to: https://tddft.org/programs/libxc/

 This ORCA versions uses:
   CBLAS   interface :  Fast vector & matrix operations
   LAPACKE interface :  Fast linear algebra routines
   SCALAPACK package :  Parallel linear algebra routines


----- Orbital basis set information -----
Your calculation utilizes the basis: def2-TZVP
   F. Weigend and R. Ahlrichs, Phys. Chem. Chem. Phys. 7, 3297 (2005).

================================================================================
                                        WARNINGS
                       Please study these warnings very carefully!
================================================================================


WARNING: The frozen-core approximation for MP2-gradient calculations is turned on by default.

INFO   : the flag for use of LIBINT has been found!

================================================================================
                                       INPUT FILE
================================================================================
NAME = 12h2o.su.etal.mol0,1,2,3,4,6,7,8-orca.engrad-mp2.def2tzvp.frozencore.inp
|  1> # 12h2o.su.etal.mol0,1,2,3,4,6,7,8
|  2> ! MP2 def2-TZVP EnGrad TightSCF
|  3> 
|  4> %pal
|  5>     nprocs 6
|  6> end
|  7> 
|  8> %maxcore 8000
|  9> 
| 10> %scf
| 11>     ConvForced true
| 12> end
| 13> 
| 14> *xyz 0 1
| 15> O   1.794470000   0.923410000   2.768350000
| 16> H   2.338250000   1.359750000   3.430940000
| 17> H   0.879480000   1.303000000   2.865760000
| 18> O  -1.794470000  -0.923410000   2.768350000
| 19> H  -2.338250000  -1.359750000   3.430940000
| 20> H  -0.879480000  -1.303000000   2.865760000
| 21> O   0.923410000  -1.794470000  -2.768350000
| 22> H   1.359750000  -2.338250000  -3.430940000
| 23> H   1.303000000  -0.879480000  -2.865760000
| 24> O  -1.752130000  -0.741530000  -2.896280000
| 25> H  -2.036450000  -0.920500000  -1.984040000
| 26> H  -0.921210000  -1.242140000  -2.984230000
| 27> O  -0.885520000   1.737840000   0.052730000
| 28> H  -1.032320000   2.090180000  -0.841890000
| 29> H  -1.284090000   0.839590000   0.017130000
| 30> O   1.737840000   0.885520000  -0.052730000
| 31> H   2.090180000   1.032320000   0.841890000
| 32> H   0.839590000   1.284090000  -0.017130000
| 33> O  -1.737840000  -0.885520000  -0.052730000
| 34> H  -2.090180000  -1.032320000   0.841890000
| 35> H  -0.839590000  -1.284090000  -0.017130000
| 36> O   1.752130000   0.741530000  -2.896280000
| 37> H   2.036450000   0.920500000  -1.984040000
| 38> H   0.921210000   1.242140000  -2.984230000
| 39> *
| 40> 
| 41>                          ****END OF INPUT****
================================================================================

                     *******************************
                     * Energy+Gradient Calculation *
                     *******************************

---------------------------------
CARTESIAN COORDINATES (ANGSTROEM)
---------------------------------
  O      1.794470    0.923410    2.768350
  H      2.338250    1.359750    3.430940
  H      0.879480    1.303000    2.865760
  O     -1.794470   -0.923410    2.768350
  H     -2.338250   -1.359750    3.430940
  H     -0.879480   -1.303000    2.865760
  O      0.923410   -1.794470   -2.768350
  H      1.359750   -2.338250   -3.430940
  H      1.303000   -0.879480   -2.865760
  O     -1.752130   -0.741530   -2.896280
  H     -2.036450   -0.920500   -1.984040
  H     -0.921210   -1.242140   -2.984230
  O     -0.885520    1.737840    0.052730
  H     -1.032320    2.090180   -0.841890
  H     -1.284090    0.839590    0.017130
  O      1.737840    0.885520   -0.052730
  H      2.090180    1.032320    0.841890
  H      0.839590    1.284090   -0.017130
  O     -1.737840   -0.885520   -0.052730
  H     -2.090180   -1.032320    0.841890
  H     -0.839590   -1.284090   -0.017130
  O      1.752130    0.741530   -2.896280
  H      2.036450    0.920500   -1.984040
  H      0.921210    1.242140   -2.984230

----------------------------
CARTESIAN COORDINATES (A.U.)
----------------------------
  NO LB      ZA    FRAG     MASS         X           Y           Z
   0 O     8.0000    0    15.999    3.391057    1.744992    5.231423
   1 H     1.0000    0     1.008    4.418652    2.569555    6.483537
   2 H     1.0000    0     1.008    1.661976    2.462313    5.415502
   3 O     8.0000    0    15.999   -3.391057   -1.744992    5.231423
   4 H     1.0000    0     1.008   -4.418652   -2.569555    6.483537
   5 H     1.0000    0     1.008   -1.661976   -2.462313    5.415502
   6 O     8.0000    0    15.999    1.744992   -3.391057   -5.231423
   7 H     1.0000    0     1.008    2.569555   -4.418652   -6.483537
   8 H     1.0000    0     1.008    2.462313   -1.661976   -5.415502
   9 O     8.0000    0    15.999   -3.311046   -1.401289   -5.473176
  10 H     1.0000    0     1.008   -3.848333   -1.739493   -3.749292
  11 H     1.0000    0     1.008   -1.740835   -2.347304   -5.639377
  12 O     8.0000    0    15.999   -1.673390    3.284042    0.099645
  13 H     1.0000    0     1.008   -1.950802    3.949868   -1.590942
  14 H     1.0000    0     1.008   -2.426578    1.586595    0.032371
  15 O     8.0000    0    15.999    3.284042    1.673390   -0.099645
  16 H     1.0000    0     1.008    3.949868    1.950802    1.590942
  17 H     1.0000    0     1.008    1.586595    2.426578   -0.032371
  18 O     8.0000    0    15.999   -3.284042   -1.673390   -0.099645
  19 H     1.0000    0     1.008   -3.949868   -1.950802    1.590942
  20 H     1.0000    0     1.008   -1.586595   -2.426578   -0.032371
  21 O     8.0000    0    15.999    3.311046    1.401289   -5.473176
  22 H     1.0000    0     1.008    3.848333    1.739493   -3.749292
  23 H     1.0000    0     1.008    1.740835    2.347304   -5.639377

--------------------------------
INTERNAL COORDINATES (ANGSTROEM)
--------------------------------
 O      0   0   0     0.000000000000     0.00000000     0.00000000
 H      1   0   0     0.961828878803     0.00000000     0.00000000
 H      1   2   0     0.995381322057   106.21731035     0.00000000
 O      3   1   2     3.480861789658   117.35405144   223.81249033
 H      4   3   1     0.961828878803   134.84484566    98.22461471
 H      4   3   1     0.995381322057    62.29205096    12.66575463
 O      6   4   3     5.935920367146   102.58474291   273.48279218
 H      7   6   4     0.961828878803   146.97742434   224.01286022
 H      7   6   4     0.995381322057    97.62005672    87.72090689
 O      7   6   4     2.878117964938    74.30903121   359.04191204
 H     10   7   6     0.972136791249    99.37069922   345.64431536
 H     10   7   6     0.974050112161    12.30570018   233.12878636
 O      3   1   2     3.349245975813   116.85538783   143.82107740
 H     13   3   1     0.972645187106   154.03893681   304.15813038
 H     13   3   1     0.983350632989    97.20424340    87.67157074
 O     13   3   1     2.760360281485    59.41411630   355.12427997
 H     16  13   3     0.972645187106   105.22009255   347.26752702
 H     16  13   3     0.983350632989     5.92595386   271.62167973
 O     15  13   3     1.785153773264   170.81379649   301.36914736
 H     19  15  13     0.972645187106   101.65007623   109.44492584
 H     19  15  13     0.983350632989    99.09581498     3.33484705
 O      9   7   6     1.682356278379   171.61043709   321.17145860
 H     22   9   7     0.972136791249   103.79460456    70.64587838
 H     22   9   7     0.974050112161   105.61118924   321.69395179

---------------------------
INTERNAL COORDINATES (A.U.)
---------------------------
 O      0   0   0     0.000000000000     0.00000000     0.00000000
 H      1   0   0     1.817593168635     0.00000000     0.00000000
 H      1   2   0     1.880998097508   106.21731035     0.00000000
 O      3   1   2     6.577875492484   117.35405144   223.81249033
 H      4   3   1     1.817593168635   134.84484566    98.22461471
 H      4   3   1     1.880998097508    62.29205096    12.66575463
 O      6   4   3    11.217263846671   102.58474291   273.48279218
 H      7   6   4     1.817593168635   146.97742434   224.01286022
 H      7   6   4     1.880998097508    97.62005672    87.72090689
 O      7   6   4     5.438854734852    74.30903121   359.04191204
 H     10   7   6     1.837072300170    99.37069922   345.64431536
 H     10   7   6     1.840687952699    12.30570018   233.12878636
 O      3   1   2     6.329157649425   116.85538783   143.82107740
 H     13   3   1     1.838033029106   154.03893681   304.15813038
 H     13   3   1     1.858263389967    97.20424340    87.67157074
 O     13   3   1     5.216324962960    59.41411630   355.12427997
 H     16  13   3     1.838033029106   105.22009255   347.26752702
 H     16  13   3     1.858263389967     5.92595386   271.62167973
 O     15  13   3     3.373451738406   170.81379649   301.36914736
 H     19  15  13     1.838033029106   101.65007623   109.44492584
 H     19  15  13     1.858263389967    99.09581498     3.33484705
 O      9   7   6     3.179192625819   171.61043709   321.17145860
 H     22   9   7     1.837072300170   103.79460456    70.64587838
 H     22   9   7     1.840687952699   105.61118924   321.69395179

---------------------
BASIS SET INFORMATION
---------------------
There are 2 groups of distinct atoms

 Group   1 Type O   : 11s6p2d1f contracted to 5s3p2d1f pattern {62111/411/11/1}
 Group   2 Type H   : 5s1p contracted to 3s1p pattern {311/1}

Atom   0O    basis set group =>   1
Atom   1H    basis set group =>   2
Atom   2H    basis set group =>   2
Atom   3O    basis set group =>   1
Atom   4H    basis set group =>   2
Atom   5H    basis set group =>   2
Atom   6O    basis set group =>   1
Atom   7H    basis set group =>   2
Atom   8H    basis set group =>   2
Atom   9O    basis set group =>   1
Atom  10H    basis set group =>   2
Atom  11H    basis set group =>   2
Atom  12O    basis set group =>   1
Atom  13H    basis set group =>   2
Atom  14H    basis set group =>   2
Atom  15O    basis set group =>   1
Atom  16H    basis set group =>   2
Atom  17H    basis set group =>   2
Atom  18O    basis set group =>   1
Atom  19H    basis set group =>   2
Atom  20H    basis set group =>   2
Atom  21O    basis set group =>   1
Atom  22H    basis set group =>   2
Atom  23H    basis set group =>   2


           ************************************************************
           *        Program running with 6 parallel MPI-processes     *
           *              working on a common directory               *
           ************************************************************
------------------------------------------------------------------------------
                           ORCA GTO INTEGRAL CALCULATION
------------------------------------------------------------------------------

                         BASIS SET STATISTICS AND STARTUP INFO

 # of primitive gaussian shells          ...  256
 # of primitive gaussian functions       ...  496
 # of contracted shells                  ...  152
 # of contracted basis functions         ...  344
 Highest angular momentum                ...    3
 Maximum contraction depth               ...    6
 Integral package used                   ... LIBINT
 Integral threshhold            Thresh   ...  2.500e-11
 Primitive cut-off              TCut     ...  2.500e-12


------------------------------ INTEGRAL EVALUATION ----------------------------


 * One electron integrals 
 Pre-screening matrix                    ... done
 Shell pair data                         ... done (   0.002 sec)



           ************************************************************
           *        Program running with 6 parallel MPI-processes     *
           *              working on a common directory               *
           ************************************************************
-------------------------------------------------------------------------------
                                 ORCA SCF
-------------------------------------------------------------------------------

------------
SCF SETTINGS
------------
Hamiltonian:
 Ab initio Hamiltonian  Method          .... Hartree-Fock(GTOs)


General Settings:
 Integral files         IntName         .... 12h2o.su.etal.mol0,1,2,3,4,6,7,8-orca.engrad-mp2.def2tzvp.frozencore
 Hartree-Fock type      HFTyp           .... RHF
 Total Charge           Charge          ....    0
 Multiplicity           Mult            ....    1
 Number of Electrons    NEL             ....   80
 Basis Dimension        Dim             ....  344
 Nuclear Repulsion      ENuc            ....    451.5978552702 Eh

Convergence Acceleration:
 DIIS                   CNVDIIS         .... on
   Start iteration      DIISMaxIt       ....    12
   Startup error        DIISStart       ....  0.200000
   # of expansion vecs  DIISMaxEq       ....     5
   Bias factor          DIISBfac        ....   1.050
   Max. coefficient     DIISMaxC        ....  10.000
 Newton-Raphson         CNVNR           .... off
 SOSCF                  CNVSOSCF        .... on
   Start iteration      SOSCFMaxIt      ....   150
   Startup grad/error   SOSCFStart      ....  0.003300
 Level Shifting         CNVShift        .... on
   Level shift para.    LevelShift      ....    0.2500
   Turn off err/grad.   ShiftErr        ....    0.0010
 Zerner damping         CNVZerner       .... off
 Static damping         CNVDamp         .... on
   Fraction old density DampFac         ....    0.7000
   Max. Damping (<1)    DampMax         ....    0.9800
   Min. Damping (>=0)   DampMin         ....    0.0000
   Turn off err/grad.   DampErr         ....    0.1000
 Fernandez-Rico         CNVRico         .... off

SCF Procedure:
 Maximum # iterations   MaxIter         ....   125
 SCF integral mode      SCFMode         .... Direct
   Integral package                     .... LIBINT
 Reset frequency        DirectResetFreq ....    20
 Integral Threshold     Thresh          ....  2.500e-11 Eh
 Primitive CutOff       TCut            ....  2.500e-12 Eh

Convergence Tolerance:
 Convergence Check Mode ConvCheckMode   .... Total+1el-Energy
 Convergence forced     ConvForced      .... 1
 Energy Change          TolE            ....  1.000e-08 Eh
 1-El. energy change                    ....  1.000e-05 Eh
 Orbital Gradient       TolG            ....  1.000e-05
 Orbital Rotation angle TolX            ....  1.000e-05
 DIIS Error             TolErr          ....  5.000e-07


Diagonalization of the overlap matrix:
Smallest eigenvalue                        ... 3.598e-03
Time for diagonalization                   ...    0.016 sec
Threshold for overlap eigenvalues          ... 1.000e-08
Number of eigenvalues below threshold      ... 0
Time for construction of square roots      ...    0.008 sec
Total time needed                          ...    0.025 sec

-------------------
DFT GRID GENERATION
-------------------

General Integration Accuracy     IntAcc      ...  4.340
Radial Grid Type                 RadialGrid  ... Gauss-Chebyshev
Angular Grid (max. acc.)         AngularGrid ... Lebedev-110
Angular grid pruning method      GridPruning ... 3 (G Style)
Weight generation scheme         WeightScheme... Becke
Basis function cutoff            BFCut       ...    1.0000e-11
Integration weight cutoff        WCut        ...    1.0000e-14
Grids for H and He will be reduced by one unit

# of grid points (after initial pruning)     ...  26432 (   0.0 sec)
# of grid points (after weights+screening)   ...  24673 (   0.0 sec)
nearest neighbour list constructed           ...    0.0 sec
Grid point re-assignment to atoms done       ...    0.0 sec
Grid point division into batches done        ...    0.0 sec
Reduced shell lists constructed in    0.1 sec

Total number of grid points                  ...    24673
Total number of batches                      ...      399
Average number of points per batch           ...       61
Average number of grid points per atom       ...     1028
Average number of shells per batch           ...    62.60 (41.19%)
Average number of basis functions per batch  ...   120.40 (35.00%)
Average number of large shells per batch     ...    40.04 (63.97%)
Average number of large basis fcns per batch ...    77.16 (64.09%)
Maximum spatial batch extension              ...  14.53, 20.10, 12.98 au
Average spatial batch extension              ...   0.56,  0.66,  0.53 au

Time for grid setup =    0.092 sec

------------------------------
INITIAL GUESS: MODEL POTENTIAL
------------------------------
Loading Hartree-Fock densities                     ... done
Calculating cut-offs                               ... done
Setting up the integral package                    ... done
Initializing the effective Hamiltonian             ... done
Starting the Coulomb interaction                   ... done (   0.0 sec)
Reading the grid                                   ... done
Mapping shells                                     ... done
Starting the XC term evaluation                    ... done (   0.0 sec)
Transforming the Hamiltonian                       ... done (   0.0 sec)
Diagonalizing the Hamiltonian                      ... done (   0.0 sec)
Back transforming the eigenvectors                 ... done (   0.0 sec)
Now organizing SCF variables                       ... done
                      ------------------
                      INITIAL GUESS DONE (   0.3 sec)
                      ------------------
--------------
SCF ITERATIONS
--------------
ITER       Energy         Delta-E        Max-DP      RMS-DP      [F,P]     Damp
               ***  Starting incremental Fock matrix formation  ***
  0   -607.8138151526   0.000000000000 0.04382124  0.00083197  0.3391469 0.7000
  1   -608.0859056282  -0.272090475582 0.02909162  0.00057598  0.2165439 0.7000
                               ***Turning on DIIS***
  2   -608.2302145383  -0.144308910161 0.01612722  0.00032198  0.1634592 0.7000
  3   -609.5646688142  -1.334454275851 0.00750487  0.00014756  0.1217118 0.7000
  4   -609.2956129664   0.269055847797 0.01685575  0.00034229  0.0861361 0.0000
  5   -608.5614347963   0.734178170065 0.00233295  0.00005558  0.0053009 0.0000
                      *** Initiating the SOSCF procedure ***
                           *** Shutting down DIIS ***
                      *** Re-Reading the Fockian *** 
                      *** Removing any level shift *** 
ITER      Energy       Delta-E        Grad      Rot      Max-DP    RMS-DP
  6   -608.52180773   0.0396270621  0.000899  0.000899  0.001585  0.000034
               *** Restarting incremental Fock matrix formation ***
  7   -608.50914320   0.0126645304  0.000344  0.000499  0.000742  0.000015
  8   -608.50915520  -0.0000119923  0.000124  0.000382  0.000605  0.000013
  9   -608.50915808  -0.0000028868  0.000067  0.000036  0.000100  0.000002
 10   -608.50915832  -0.0000002368  0.000014  0.000010  0.000018  0.000000
                  ***Gradient check signals convergence***
              ***Rediagonalizing the Fockian in SOSCF/NRSCF***

               *****************************************************
               *                     SUCCESS                       *
               *           SCF CONVERGED AFTER  11 CYCLES          *
               *****************************************************


----------------
TOTAL SCF ENERGY
----------------

Total Energy       :         -608.50915833 Eh          -16558.37601 eV

Components:
Nuclear Repulsion  :          451.59785527 Eh           12288.60238 eV
Electronic Energy  :        -1060.10701360 Eh          -28846.97839 eV
One Electron Energy:        -1741.11765042 Eh          -47378.21993 eV
Two Electron Energy:          681.01063682 Eh           18531.24154 eV

Virial components:
Potential Energy   :        -1216.18812945 Eh          -33094.16148 eV
Kinetic Energy     :          607.67897112 Eh           16535.78547 eV
Virial Ratio       :            2.00136616


---------------
SCF CONVERGENCE
---------------

  Last Energy change         ...   -6.7132e-09  Tolerance :   1.0000e-08
  Last MAX-Density change    ...    5.6515e-06  Tolerance :   1.0000e-07
  Last RMS-Density change    ...    1.1973e-07  Tolerance :   5.0000e-09
  Last Orbital Gradient      ...    2.0437e-06  Tolerance :   1.0000e-05
  Last Orbital Rotation      ...    2.4220e-06  Tolerance :   1.0000e-05

             **** THE GBW FILE WAS UPDATED (12h2o.su.etal.mol0,1,2,3,4,6,7,8-orca.engrad-mp2.def2tzvp.frozencore.gbw) ****
             **** DENSITY FILE WAS UPDATED (12h2o.su.etal.mol0,1,2,3,4,6,7,8-orca.engrad-mp2.def2tzvp.frozencore.scfp) ****
             **** ENERGY FILE WAS UPDATED (12h2o.su.etal.mol0,1,2,3,4,6,7,8-orca.engrad-mp2.def2tzvp.frozencore.en.tmp) ****
             **** THE GBW FILE WAS UPDATED (12h2o.su.etal.mol0,1,2,3,4,6,7,8-orca.engrad-mp2.def2tzvp.frozencore.gbw) ****
             **** DENSITY FILE WAS UPDATED (12h2o.su.etal.mol0,1,2,3,4,6,7,8-orca.engrad-mp2.def2tzvp.frozencore.scfp) ****
----------------
ORBITAL ENERGIES
----------------

  NO   OCC          E(Eh)            E(eV) 
   0   2.0000     -20.609133      -560.8030 
   1   2.0000     -20.593988      -560.3909 
   2   2.0000     -20.582655      -560.0825 
   3   2.0000     -20.559737      -559.4589 
   4   2.0000     -20.555452      -559.3423 
   5   2.0000     -20.526937      -558.5663 
   6   2.0000     -20.526374      -558.5510 
   7   2.0000     -20.500476      -557.8463 
   8   2.0000      -1.388082       -37.7716 
   9   2.0000      -1.371933       -37.3322 
  10   2.0000      -1.369048       -37.2537 
  11   2.0000      -1.346954       -36.6525 
  12   2.0000      -1.343758       -36.5655 
  13   2.0000      -1.311937       -35.6996 
  14   2.0000      -1.308955       -35.6185 
  15   2.0000      -1.285044       -34.9678 
  16   2.0000      -0.754283       -20.5251 
  17   2.0000      -0.738557       -20.0972 
  18   2.0000      -0.731169       -19.8961 
  19   2.0000      -0.713367       -19.4117 
  20   2.0000      -0.707326       -19.2473 
  21   2.0000      -0.693377       -18.8678 
  22   2.0000      -0.689596       -18.7649 
  23   2.0000      -0.664022       -18.0690 
  24   2.0000      -0.631092       -17.1729 
  25   2.0000      -0.617398       -16.8003 
  26   2.0000      -0.607187       -16.5224 
  27   2.0000      -0.594072       -16.1655 
  28   2.0000      -0.589364       -16.0374 
  29   2.0000      -0.565100       -15.3772 
  30   2.0000      -0.554196       -15.0804 
  31   2.0000      -0.548443       -14.9239 
  32   2.0000      -0.530983       -14.4488 
  33   2.0000      -0.525438       -14.2979 
  34   2.0000      -0.515976       -14.0404 
  35   2.0000      -0.500195       -13.6110 
  36   2.0000      -0.493384       -13.4257 
  37   2.0000      -0.478851       -13.0302 
  38   2.0000      -0.473900       -12.8955 
  39   2.0000      -0.450608       -12.2617 
  40   0.0000       0.083453         2.2709 
  41   0.0000       0.119547         3.2530 
  42   0.0000       0.127536         3.4704 
  43   0.0000       0.159696         4.3456 
  44   0.0000       0.170433         4.6377 
  45   0.0000       0.189933         5.1683 
  46   0.0000       0.192971         5.2510 
  47   0.0000       0.218455         5.9445 
  48   0.0000       0.233709         6.3596 
  49   0.0000       0.253820         6.9068 
  50   0.0000       0.269262         7.3270 
  51   0.0000       0.300550         8.1784 
  52   0.0000       0.322929         8.7874 
  53   0.0000       0.337906         9.1949 
  54   0.0000       0.347839         9.4652 
  55   0.0000       0.365249         9.9389 
  56   0.0000       0.434763        11.8305 
  57   0.0000       0.459216        12.4959 
  58   0.0000       0.484440        13.1823 
  59   0.0000       0.495141        13.4735 
  60   0.0000       0.515079        14.0160 
  61   0.0000       0.527436        14.3523 
  62   0.0000       0.529755        14.4154 
  63   0.0000       0.540513        14.7081 
  64   0.0000       0.552289        15.0286 
  65   0.0000       0.553116        15.0510 
  66   0.0000       0.559045        15.2124 
  67   0.0000       0.564301        15.3554 
  68   0.0000       0.576226        15.6799 
  69   0.0000       0.582644        15.8546 
  70   0.0000       0.593681        16.1549 
  71   0.0000       0.616714        16.7816 
  72   0.0000       0.618634        16.8339 
  73   0.0000       0.626548        17.0492 
  74   0.0000       0.641049        17.4438 
  75   0.0000       0.642908        17.4944 
  76   0.0000       0.649110        17.6632 
  77   0.0000       0.673661        18.3312 
  78   0.0000       0.691721        18.8227 
  79   0.0000       0.698563        19.0089 
  80   0.0000       0.706412        19.2224 
  81   0.0000       0.731540        19.9062 
  82   0.0000       0.744678        20.2637 
  83   0.0000       0.752173        20.4677 
  84   0.0000       0.765112        20.8198 
  85   0.0000       0.778490        21.1838 
  86   0.0000       0.789152        21.4739 
  87   0.0000       0.794023        21.6065 
  88   0.0000       0.808846        22.0098 
  89   0.0000       0.811768        22.0893 
  90   0.0000       0.824700        22.4412 
  91   0.0000       0.839409        22.8415 
  92   0.0000       0.870360        23.6837 
  93   0.0000       0.879532        23.9333 
  94   0.0000       0.910491        24.7757 
  95   0.0000       0.921714        25.0811 
  96   0.0000       0.962337        26.1865 
  97   0.0000       0.976498        26.5719 
  98   0.0000       0.999217        27.1901 
  99   0.0000       1.019727        27.7482 
 100   0.0000       1.064932        28.9783 
 101   0.0000       1.074723        29.2447 
 102   0.0000       1.088168        29.6106 
 103   0.0000       1.116042        30.3690 
 104   0.0000       1.360094        37.0100 
 105   0.0000       1.371229        37.3130 
 106   0.0000       1.381060        37.5806 
 107   0.0000       1.393813        37.9276 
 108   0.0000       1.403638        38.1949 
 109   0.0000       1.408339        38.3229 
 110   0.0000       1.415161        38.5085 
 111   0.0000       1.429450        38.8973 
 112   0.0000       1.445785        39.3418 
 113   0.0000       1.457693        39.6659 
 114   0.0000       1.464328        39.8464 
 115   0.0000       1.473920        40.1074 
 116   0.0000       1.491676        40.5906 
 117   0.0000       1.514831        41.2207 
 118   0.0000       1.522339        41.4249 
 119   0.0000       1.541454        41.9451 
 120   0.0000       1.556579        42.3567 
 121   0.0000       1.574314        42.8393 
 122   0.0000       1.579175        42.9715 
 123   0.0000       1.606638        43.7188 
 124   0.0000       1.618594        44.0442 
 125   0.0000       1.634230        44.4696 
 126   0.0000       1.663072        45.2545 
 127   0.0000       1.668709        45.4079 
 128   0.0000       1.786751        48.6200 
 129   0.0000       1.826762        49.7087 
 130   0.0000       1.844578        50.1935 
 131   0.0000       1.851043        50.3694 
 132   0.0000       1.856149        50.5084 
 133   0.0000       1.866269        50.7838 
 134   0.0000       1.876784        51.0699 
 135   0.0000       1.887642        51.3654 
 136   0.0000       1.946265        52.9606 
 137   0.0000       1.950392        53.0729 
 138   0.0000       1.956378        53.2357 
 139   0.0000       1.977772        53.8179 
 140   0.0000       1.983634        53.9774 
 141   0.0000       2.001921        54.4750 
 142   0.0000       2.033088        55.3231 
 143   0.0000       2.044489        55.6334 
 144   0.0000       2.050519        55.7974 
 145   0.0000       2.056351        55.9562 
 146   0.0000       2.082983        56.6808 
 147   0.0000       2.103928        57.2508 
 148   0.0000       2.144528        58.3556 
 149   0.0000       2.155301        58.6487 
 150   0.0000       2.201791        59.9138 
 151   0.0000       2.216394        60.3112 
 152   0.0000       2.258534        61.4578 
 153   0.0000       2.274257        61.8857 
 154   0.0000       2.285792        62.1996 
 155   0.0000       2.295892        62.4744 
 156   0.0000       2.310853        62.8815 
 157   0.0000       2.315855        63.0176 
 158   0.0000       2.327079        63.3230 
 159   0.0000       2.330318        63.4112 
 160   0.0000       2.338598        63.6365 
 161   0.0000       2.346283        63.8456 
 162   0.0000       2.351411        63.9852 
 163   0.0000       2.361229        64.2523 
 164   0.0000       2.376367        64.6642 
 165   0.0000       2.400512        65.3213 
 166   0.0000       2.417909        65.7946 
 167   0.0000       2.436160        66.2913 
 168   0.0000       2.459474        66.9257 
 169   0.0000       2.476734        67.3954 
 170   0.0000       2.499527        68.0156 
 171   0.0000       2.506077        68.1938 
 172   0.0000       2.523088        68.6567 
 173   0.0000       2.553435        69.4825 
 174   0.0000       2.574679        70.0606 
 175   0.0000       2.592785        70.5533 
 176   0.0000       2.602892        70.8283 
 177   0.0000       2.616184        71.1900 
 178   0.0000       2.624368        71.4127 
 179   0.0000       2.633030        71.6484 
 180   0.0000       2.653852        72.2150 
 181   0.0000       2.660248        72.3890 
 182   0.0000       2.678147        72.8761 
 183   0.0000       2.682141        72.9848 
 184   0.0000       2.690143        73.2025 
 185   0.0000       2.699367        73.4535 
 186   0.0000       2.711455        73.7824 
 187   0.0000       2.732433        74.3533 
 188   0.0000       2.754437        74.9520 
 189   0.0000       2.762320        75.1665 
 190   0.0000       2.797311        76.1187 
 191   0.0000       2.853898        77.6585 
 192   0.0000       2.865351        77.9702 
 193   0.0000       2.901568        78.9557 
 194   0.0000       2.923641        79.5563 
 195   0.0000       2.939925        79.9994 
 196   0.0000       2.952473        80.3409 
 197   0.0000       2.963325        80.6362 
 198   0.0000       2.983968        81.1979 
 199   0.0000       2.997466        81.5652 
 200   0.0000       3.004710        81.7623 
 201   0.0000       3.024644        82.3047 
 202   0.0000       3.036703        82.6329 
 203   0.0000       3.041789        82.7713 
 204   0.0000       3.045395        82.8694 
 205   0.0000       3.057657        83.2031 
 206   0.0000       3.075382        83.6854 
 207   0.0000       3.085811        83.9692 
 208   0.0000       3.119075        84.8744 
 209   0.0000       3.140009        85.4440 
 210   0.0000       3.160586        86.0039 
 211   0.0000       3.177812        86.4727 
 212   0.0000       3.220494        87.6341 
 213   0.0000       3.233818        87.9966 
 214   0.0000       3.251451        88.4765 
 215   0.0000       3.259876        88.7057 
 216   0.0000       3.287744        89.4641 
 217   0.0000       3.292015        89.5803 
 218   0.0000       3.316986        90.2598 
 219   0.0000       3.375416        91.8497 
 220   0.0000       3.381363        92.0116 
 221   0.0000       3.439061        93.5816 
 222   0.0000       3.494979        95.1032 
 223   0.0000       3.535343        96.2016 
 224   0.0000       3.955323       107.6298 
 225   0.0000       3.973095       108.1134 
 226   0.0000       4.052863       110.2840 
 227   0.0000       4.060816       110.5004 
 228   0.0000       4.090699       111.3136 
 229   0.0000       4.125843       112.2699 
 230   0.0000       4.132704       112.4566 
 231   0.0000       4.150628       112.9443 
 232   0.0000       4.267167       116.1155 
 233   0.0000       4.283490       116.5597 
 234   0.0000       4.297348       116.9368 
 235   0.0000       4.323599       117.6511 
 236   0.0000       4.349336       118.3515 
 237   0.0000       4.374027       119.0233 
 238   0.0000       4.386254       119.3560 
 239   0.0000       4.415467       120.1510 
 240   0.0000       5.507160       149.8574 
 241   0.0000       5.522870       150.2849 
 242   0.0000       5.523586       150.3044 
 243   0.0000       5.541102       150.7811 
 244   0.0000       5.548686       150.9874 
 245   0.0000       5.576606       151.7472 
 246   0.0000       5.576659       151.7486 
 247   0.0000       5.592961       152.1922 
 248   0.0000       5.602690       152.4569 
 249   0.0000       5.609397       152.6394 
 250   0.0000       5.655670       153.8986 
 251   0.0000       5.671772       154.3368 
 252   0.0000       5.674076       154.3995 
 253   0.0000       5.687095       154.7537 
 254   0.0000       5.698334       155.0595 
 255   0.0000       5.709658       155.3677 
 256   0.0000       5.768547       156.9702 
 257   0.0000       5.784113       157.3937 
 258   0.0000       5.794899       157.6872 
 259   0.0000       5.803952       157.9336 
 260   0.0000       5.820905       158.3949 
 261   0.0000       5.827309       158.5692 
 262   0.0000       5.828359       158.5977 
 263   0.0000       5.843244       159.0028 
 264   0.0000       5.845868       159.0742 
 265   0.0000       5.851182       159.2188 
 266   0.0000       5.864761       159.5883 
 267   0.0000       5.867689       159.6679 
 268   0.0000       5.872720       159.8048 
 269   0.0000       5.874388       159.8502 
 270   0.0000       5.883590       160.1006 
 271   0.0000       5.887151       160.1975 
 272   0.0000       5.893761       160.3774 
 273   0.0000       5.894985       160.4107 
 274   0.0000       5.904459       160.6685 
 275   0.0000       5.921493       161.1320 
 276   0.0000       5.929158       161.3406 
 277   0.0000       5.937450       161.5662 
 278   0.0000       5.959117       162.1558 
 279   0.0000       5.963274       162.2689 
 280   0.0000       6.386157       173.7762 
 281   0.0000       6.402321       174.2160 
 282   0.0000       6.448181       175.4639 
 283   0.0000       6.473932       176.1647 
 284   0.0000       6.489307       176.5830 
 285   0.0000       6.501167       176.9058 
 286   0.0000       6.516824       177.3318 
 287   0.0000       6.549343       178.2167 
 288   0.0000       6.645852       180.8428 
 289   0.0000       6.660892       181.2521 
 290   0.0000       6.681008       181.7995 
 291   0.0000       6.699313       182.2976 
 292   0.0000       6.718316       182.8147 
 293   0.0000       6.739406       183.3886 
 294   0.0000       6.765806       184.1069 
 295   0.0000       6.773760       184.3234 
 296   0.0000       6.837319       186.0529 
 297   0.0000       6.849559       186.3860 
 298   0.0000       6.854808       186.5288 
 299   0.0000       6.861565       186.7127 
 300   0.0000       6.862538       186.7391 
 301   0.0000       6.872774       187.0177 
 302   0.0000       6.881470       187.2543 
 303   0.0000       6.883851       187.3191 
 304   0.0000       6.892646       187.5584 
 305   0.0000       6.897511       187.6908 
 306   0.0000       6.898989       187.7310 
 307   0.0000       6.913315       188.1209 
 308   0.0000       6.927346       188.5027 
 309   0.0000       6.935489       188.7242 
 310   0.0000       6.937695       188.7843 
 311   0.0000       6.951748       189.1667 
 312   0.0000       6.963278       189.4804 
 313   0.0000       6.983203       190.0226 
 314   0.0000       7.011363       190.7889 
 315   0.0000       7.017502       190.9559 
 316   0.0000       7.018166       190.9740 
 317   0.0000       7.035763       191.4528 
 318   0.0000       7.073697       192.4851 
 319   0.0000       7.110643       193.4904 
 320   0.0000       7.338523       199.6914 
 321   0.0000       7.354287       200.1203 
 322   0.0000       7.378079       200.7677 
 323   0.0000       7.413491       201.7313 
 324   0.0000       7.429254       202.1603 
 325   0.0000       7.453173       202.8111 
 326   0.0000       7.462118       203.0546 
 327   0.0000       7.475537       203.4197 
 328   0.0000       7.500575       204.1010 
 329   0.0000       7.521708       204.6761 
 330   0.0000       7.553079       205.5297 
 331   0.0000       7.573521       206.0860 
 332   0.0000       7.582718       206.3363 
 333   0.0000       7.590739       206.5545 
 334   0.0000       7.640276       207.9025 
 335   0.0000       7.651879       208.2182 
 336   0.0000      44.818411      1219.5710 
 337   0.0000      44.860906      1220.7273 
 338   0.0000      44.996131      1224.4070 
 339   0.0000      45.001143      1224.5434 
 340   0.0000      45.012671      1224.8570 
 341   0.0000      45.026223      1225.2258 
 342   0.0000      45.063458      1226.2390 
 343   0.0000      45.076981      1226.6070 

                    ********************************
                    * MULLIKEN POPULATION ANALYSIS *
                    ********************************

-----------------------
MULLIKEN ATOMIC CHARGES
-----------------------
   0 O :   -0.726866
   1 H :    0.360218
   2 H :    0.375138
   3 O :   -0.727643
   4 H :    0.367738
   5 H :    0.371939
   6 O :   -0.774877
   7 H :    0.342448
   8 H :    0.413425
   9 O :   -0.767339
  10 H :    0.375787
  11 H :    0.374028
  12 O :   -0.754273
  13 H :    0.356548
  14 H :    0.406739
  15 O :   -0.786300
  16 H :    0.386292
  17 H :    0.369197
  18 O :   -0.767119
  19 H :    0.403842
  20 H :    0.376828
  21 O :   -0.738301
  22 H :    0.409894
  23 H :    0.352658
Sum of atomic charges:   -0.0000000

--------------------------------
MULLIKEN REDUCED ORBITAL CHARGES
--------------------------------
  0 O s       :     3.811572  s :     3.811572
      pz      :     1.719657  p :     4.889137
      px      :     1.367080
      py      :     1.802400
      dz2     :     0.004086  d :     0.024645
      dxz     :     0.004428
      dyz     :     0.005723
      dx2y2   :     0.002511
      dxy     :     0.007897
      f0      :     0.000083  f :     0.001512
      f+1     :     0.000330
      f-1     :     0.000186
      f+2     :     0.000070
      f-2     :     0.000350
      f+3     :     0.000099
      f-3     :     0.000393
  1 H s       :     0.594347  s :     0.594347
      pz      :     0.017078  p :     0.045435
      px      :     0.013473
      py      :     0.014884
  2 H s       :     0.583418  s :     0.583418
      pz      :     0.010604  p :     0.041444
      px      :     0.017827
      py      :     0.013013
  3 O s       :     3.810610  s :     3.810610
      pz      :     1.721097  p :     4.891042
      px      :     1.365622
      py      :     1.804322
      dz2     :     0.003931  d :     0.024478
      dxz     :     0.004266
      dyz     :     0.005709
      dx2y2   :     0.002515
      dxy     :     0.008058
      f0      :     0.000083  f :     0.001513
      f+1     :     0.000329
      f-1     :     0.000185
      f+2     :     0.000071
      f-2     :     0.000350
      f+3     :     0.000100
      f-3     :     0.000396
  4 H s       :     0.586946  s :     0.586946
      pz      :     0.017032  p :     0.045316
      px      :     0.013452
      py      :     0.014832
  5 H s       :     0.586536  s :     0.586536
      pz      :     0.010629  p :     0.041526
      px      :     0.017821
      py      :     0.013075
  6 O s       :     3.806932  s :     3.806932
      pz      :     1.727742  p :     4.943732
      px      :     1.783231
      py      :     1.432759
      dz2     :     0.003995  d :     0.022786
      dxz     :     0.005188
      dyz     :     0.004843
      dx2y2   :     0.002266
      dxy     :     0.006494
      f0      :     0.000089  f :     0.001427
      f+1     :     0.000178
      f-1     :     0.000331
      f+2     :     0.000061
      f-2     :     0.000356
      f+3     :     0.000330
      f-3     :     0.000082
  7 H s       :     0.611707  s :     0.611707
      pz      :     0.017100  p :     0.045846
      px      :     0.015017
      py      :     0.013728
  8 H s       :     0.530508  s :     0.530508
      pz      :     0.010408  p :     0.056067
      px      :     0.013105
      py      :     0.032553
  9 O s       :     3.805704  s :     3.805704
      pz      :     1.541837  p :     4.935773
      px      :     1.571541
      py      :     1.822394
      dz2     :     0.011434  d :     0.024431
      dxz     :     0.001256
      dyz     :     0.002830
      dx2y2   :     0.001945
      dxy     :     0.006965
      f0      :     0.000254  f :     0.001432
      f+1     :     0.000371
      f-1     :     0.000159
      f+2     :     0.000055
      f-2     :     0.000054
      f+3     :     0.000062
      f-3     :     0.000477
 10 H s       :     0.575622  s :     0.575622
      pz      :     0.023729  p :     0.048591
      px      :     0.011662
      py      :     0.013201
 11 H s       :     0.575492  s :     0.575492
      pz      :     0.010012  p :     0.050480
      px      :     0.024029
      py      :     0.016440
 12 O s       :     3.801590  s :     3.801590
      pz      :     1.549794  p :     4.926814
      px      :     1.844602
      py      :     1.532418
      dz2     :     0.011675  d :     0.024501
      dxz     :     0.002146
      dyz     :     0.002924
      dx2y2   :     0.003263
      dxy     :     0.004493
      f0      :     0.000171  f :     0.001367
      f+1     :     0.000113
      f-1     :     0.000464
      f+2     :     0.000068
      f-2     :     0.000041
      f+3     :     0.000414
      f-3     :     0.000097
 13 H s       :     0.599439  s :     0.599439
      pz      :     0.018774  p :     0.044013
      px      :     0.013556
      py      :     0.011682
 14 H s       :     0.540547  s :     0.540547
      pz      :     0.009084  p :     0.052714
      px      :     0.014445
      py      :     0.029185
 15 O s       :     3.804932  s :     3.804932
      pz      :     1.582998  p :     4.957978
      px      :     1.496554
      py      :     1.878425
      dz2     :     0.009510  d :     0.021990
      dxz     :     0.002386
      dyz     :     0.002236
      dx2y2   :     0.002799
      dxy     :     0.005060
      f0      :     0.000188  f :     0.001400
      f+1     :     0.000421
      f-1     :     0.000118
      f+2     :     0.000078
      f-2     :     0.000035
      f+3     :     0.000116
      f-3     :     0.000445
 16 H s       :     0.564481  s :     0.564481
      pz      :     0.024249  p :     0.049228
      px      :     0.011634
      py      :     0.013345
 17 H s       :     0.576726  s :     0.576726
      pz      :     0.009278  p :     0.054076
      px      :     0.028864
      py      :     0.015934
 18 O s       :     3.804532  s :     3.804532
      pz      :     1.610377  p :     4.937291
      px      :     1.476983
      py      :     1.849932
      dz2     :     0.010700  d :     0.023922
      dxz     :     0.002614
      dyz     :     0.002109
      dx2y2   :     0.003484
      dxy     :     0.005015
      f0      :     0.000164  f :     0.001373
      f+1     :     0.000440
      f-1     :     0.000111
      f+2     :     0.000068
      f-2     :     0.000036
      f+3     :     0.000106
      f-3     :     0.000449
 19 H s       :     0.547852  s :     0.547852
      pz      :     0.025104  p :     0.048306
      px      :     0.010788
      py      :     0.012414
 20 H s       :     0.581369  s :     0.581369
      pz      :     0.009257  p :     0.041803
      px      :     0.018732
      py      :     0.013815
 21 O s       :     3.796549  s :     3.796549
      pz      :     1.585277  p :     4.915675
      px      :     1.545351
      py      :     1.785047
      dz2     :     0.011718  d :     0.024685
      dxz     :     0.001152
      dyz     :     0.002322
      dx2y2   :     0.002419
      dxy     :     0.007074
      f0      :     0.000222  f :     0.001391
      f+1     :     0.000382
      f-1     :     0.000154
      f+2     :     0.000051
      f-2     :     0.000055
      f+3     :     0.000052
      f-3     :     0.000475
 22 H s       :     0.542305  s :     0.542305
      pz      :     0.025524  p :     0.047801
      px      :     0.010801
      py      :     0.011476
 23 H s       :     0.603566  s :     0.603566
      pz      :     0.010636  p :     0.043776
      px      :     0.018276
      py      :     0.014864


                     *******************************
                     * LOEWDIN POPULATION ANALYSIS *
                     *******************************

----------------------
LOEWDIN ATOMIC CHARGES
----------------------
   0 O :   -0.318632
   1 H :    0.162667
   2 H :    0.188831
   3 O :   -0.316967
   4 H :    0.166200
   5 H :    0.188428
   6 O :   -0.349446
   7 H :    0.151614
   8 H :    0.156854
   9 O :   -0.363529
  10 H :    0.149745
  11 H :    0.149980
  12 O :   -0.321337
  13 H :    0.165419
  14 H :    0.156969
  15 O :   -0.358175
  16 H :    0.154469
  17 H :    0.145717
  18 O :   -0.295235
  19 H :    0.161810
  20 H :    0.181284
  21 O :   -0.289736
  22 H :    0.166149
  23 H :    0.166922

-------------------------------
LOEWDIN REDUCED ORBITAL CHARGES
-------------------------------
  0 O s       :     3.468022  s :     3.468022
      pz      :     1.682695  p :     4.816580
      px      :     1.357982
      py      :     1.775903
      dz2     :     0.005349  d :     0.031936
      dxz     :     0.006879
      dyz     :     0.005745
      dx2y2   :     0.003827
      dxy     :     0.010136
      f0      :     0.000090  f :     0.002094
      f+1     :     0.000446
      f-1     :     0.000271
      f+2     :     0.000035
      f-2     :     0.000610
      f+3     :     0.000093
      f-3     :     0.000548
  1 H s       :     0.673875  s :     0.673875
      pz      :     0.066468  p :     0.163458
      px      :     0.044231
      py      :     0.052759
  2 H s       :     0.662519  s :     0.662519
      pz      :     0.033329  p :     0.148649
      px      :     0.071715
      py      :     0.043606
  3 O s       :     3.467359  s :     3.467359
      pz      :     1.682662  p :     4.815871
      px      :     1.357783
      py      :     1.775426
      dz2     :     0.005249  d :     0.031653
      dxz     :     0.006633
      dyz     :     0.005645
      dx2y2   :     0.003845
      dxy     :     0.010280
      f0      :     0.000086  f :     0.002084
      f+1     :     0.000444
      f-1     :     0.000270
      f+2     :     0.000035
      f-2     :     0.000603
      f+3     :     0.000092
      f-3     :     0.000553
  4 H s       :     0.670371  s :     0.670371
      pz      :     0.066387  p :     0.163429
      px      :     0.044328
      py      :     0.052714
  5 H s       :     0.663103  s :     0.663103
      pz      :     0.033319  p :     0.148470
      px      :     0.071501
      py      :     0.043650
  6 O s       :     3.461004  s :     3.461004
      pz      :     1.708445  p :     4.857538
      px      :     1.746880
      py      :     1.402213
      dz2     :     0.004313  d :     0.028930
      dxz     :     0.005387
      dyz     :     0.007142
      dx2y2   :     0.003629
      dxy     :     0.008460
      f0      :     0.000075  f :     0.001974
      f+1     :     0.000265
      f-1     :     0.000437
      f+2     :     0.000032
      f-2     :     0.000626
      f+3     :     0.000457
      f-3     :     0.000082
  7 H s       :     0.683523  s :     0.683523
      pz      :     0.065767  p :     0.164863
      px      :     0.053181
      py      :     0.045915
  8 H s       :     0.646794  s :     0.646794
      pz      :     0.033208  p :     0.196352
      px      :     0.047396
      py      :     0.115748
  9 O s       :     3.460191  s :     3.460191
      pz      :     1.529296  p :     4.871633
      px      :     1.549261
      py      :     1.793076
      dz2     :     0.014929  d :     0.029691
      dxz     :     0.002022
      dyz     :     0.002208
      dx2y2   :     0.002006
      dxy     :     0.008527
      f0      :     0.000457  f :     0.002014
      f+1     :     0.000544
      f-1     :     0.000302
      f+2     :     0.000022
      f-2     :     0.000048
      f+3     :     0.000002
      f-3     :     0.000638
 10 H s       :     0.679665  s :     0.679665
      pz      :     0.090919  p :     0.170590
      px      :     0.037117
      py      :     0.042554
 11 H s       :     0.674724  s :     0.674724
      pz      :     0.030818  p :     0.175296
      px      :     0.086482
      py      :     0.057996
 12 O s       :     3.461123  s :     3.461123
      pz      :     1.546252  p :     4.827926
      px      :     1.788275
      py      :     1.493399
      dz2     :     0.014708  d :     0.030293
      dxz     :     0.001328
      dyz     :     0.004183
      dx2y2   :     0.004644
      dxy     :     0.005431
      f0      :     0.000373  f :     0.001994
      f+1     :     0.000199
      f-1     :     0.000744
      f+2     :     0.000041
      f-2     :     0.000046
      f+3     :     0.000527
      f-3     :     0.000065
 13 H s       :     0.674792  s :     0.674792
      pz      :     0.079333  p :     0.159789
      px      :     0.043373
      py      :     0.037084
 14 H s       :     0.656669  s :     0.656669
      pz      :     0.028908  p :     0.186362
      px      :     0.052515
      py      :     0.104939
 15 O s       :     3.456058  s :     3.456058
      pz      :     1.550420  p :     4.872202
      px      :     1.482734
      py      :     1.839047
      dz2     :     0.013052  d :     0.027990
      dxz     :     0.003700
      dyz     :     0.001484
      dx2y2   :     0.003696
      dxy     :     0.006059
      f0      :     0.000364  f :     0.001925
      f+1     :     0.000682
      f-1     :     0.000180
      f+2     :     0.000041
      f-2     :     0.000042
      f+3     :     0.000065
      f-3     :     0.000550
 16 H s       :     0.673196  s :     0.673196
      pz      :     0.092310  p :     0.172335
      px      :     0.037053
      py      :     0.042972
 17 H s       :     0.666935  s :     0.666935
      pz      :     0.030409  p :     0.187348
      px      :     0.104095
      py      :     0.052844
 18 O s       :     3.456621  s :     3.456621
      pz      :     1.562694  p :     4.805616
      px      :     1.457762
      py      :     1.785161
      dz2     :     0.014522  d :     0.031008
      dxz     :     0.003676
      dyz     :     0.001281
      dx2y2   :     0.005169
      dxy     :     0.006360
      f0      :     0.000333  f :     0.001990
      f+1     :     0.000700
      f-1     :     0.000200
      f+2     :     0.000036
      f-2     :     0.000043
      f+3     :     0.000072
      f-3     :     0.000606
 19 H s       :     0.665217  s :     0.665217
      pz      :     0.094698  p :     0.172973
      px      :     0.035929
      py      :     0.042346
 20 H s       :     0.663332  s :     0.663332
      pz      :     0.030431  p :     0.155384
      px      :     0.075783
      py      :     0.049170
 21 O s       :     3.451986  s :     3.451986
      pz      :     1.551300  p :     4.804303
      px      :     1.528704
      py      :     1.724299
      dz2     :     0.014909  d :     0.031352
      dxz     :     0.001668
      dyz     :     0.001750
      dx2y2   :     0.003690
      dxy     :     0.009335
      f0      :     0.000391  f :     0.002094
      f+1     :     0.000557
      f-1     :     0.000331
      f+2     :     0.000020
      f-2     :     0.000046
      f+3     :     0.000026
      f-3     :     0.000723
 22 H s       :     0.660519  s :     0.660519
      pz      :     0.096690  p :     0.173332
      px      :     0.035691
      py      :     0.040950
 23 H s       :     0.674743  s :     0.674743
      pz      :     0.031478  p :     0.158335
      px      :     0.072019
      py      :     0.054838


                      *****************************
                      * MAYER POPULATION ANALYSIS *
                      *****************************

  NA   - Mulliken gross atomic population
  ZA   - Total nuclear charge
  QA   - Mulliken gross atomic charge
  VA   - Mayer's total valence
  BVA  - Mayer's bonded valence
  FA   - Mayer's free valence

  ATOM       NA         ZA         QA         VA         BVA        FA
  0 O      8.7269     8.0000    -0.7269     1.7608     1.7608    -0.0000
  1 H      0.6398     1.0000     0.3602     0.8855     0.8855    -0.0000
  2 H      0.6249     1.0000     0.3751     0.8738     0.8738    -0.0000
  3 O      8.7276     8.0000    -0.7276     1.7634     1.7634    -0.0000
  4 H      0.6323     1.0000     0.3677     0.8803     0.8803     0.0000
  5 H      0.6281     1.0000     0.3719     0.8764     0.8764    -0.0000
  6 O      8.7749     8.0000    -0.7749     1.6912     1.6912     0.0000
  7 H      0.6576     1.0000     0.3424     0.8995     0.8995    -0.0000
  8 H      0.5866     1.0000     0.4134     0.8626     0.8626     0.0000
  9 O      8.7673     8.0000    -0.7673     1.7161     1.7161     0.0000
 10 H      0.6242     1.0000     0.3758     0.8795     0.8795    -0.0000
 11 H      0.6260     1.0000     0.3740     0.8987     0.8987     0.0000
 12 O      8.7543     8.0000    -0.7543     1.7221     1.7221     0.0000
 13 H      0.6435     1.0000     0.3565     0.8898     0.8898     0.0000
 14 H      0.5933     1.0000     0.4067     0.8687     0.8687     0.0000
 15 O      8.7863     8.0000    -0.7863     1.6745     1.6745    -0.0000
 16 H      0.6137     1.0000     0.3863     0.8802     0.8802     0.0000
 17 H      0.6308     1.0000     0.3692     0.9072     0.9072    -0.0000
 18 O      8.7671     8.0000    -0.7671     1.7299     1.7299     0.0000
 19 H      0.5962     1.0000     0.4038     0.8663     0.8663     0.0000
 20 H      0.6232     1.0000     0.3768     0.8782     0.8782    -0.0000
 21 O      8.7383     8.0000    -0.7383     1.7441     1.7441    -0.0000
 22 H      0.5901     1.0000     0.4099     0.8627     0.8627    -0.0000
 23 H      0.6473     1.0000     0.3527     0.8954     0.8954    -0.0000

  Mayer bond orders larger than 0.100000
B(  0-O ,  1-H ) :   0.8778 B(  0-O ,  2-H ) :   0.8628 B(  3-O ,  4-H ) :   0.8729 
B(  3-O ,  5-H ) :   0.8651 B(  6-O ,  7-H ) :   0.8907 B(  6-O ,  8-H ) :   0.7878 
B(  9-O , 10-H ) :   0.8655 B(  9-O , 11-H ) :   0.8461 B( 12-O , 13-H ) :   0.8806 
B( 12-O , 14-H ) :   0.8072 B( 15-O , 16-H ) :   0.8502 B( 15-O , 17-H ) :   0.8201 
B( 18-O , 19-H ) :   0.8272 B( 18-O , 20-H ) :   0.8589 B( 21-O , 22-H ) :   0.8195 
B( 21-O , 23-H ) :   0.8809 

-------
TIMINGS
-------

Total SCF time: 0 days 0 hours 0 min 25 sec 

Total time                  ....      25.355 sec
Sum of individual times     ....      25.061 sec  ( 98.8%)

Fock matrix formation       ....      24.496 sec  ( 96.6%)
Diagonalization             ....       0.139 sec  (  0.5%)
Density matrix formation    ....       0.015 sec  (  0.1%)
Population analysis         ....       0.015 sec  (  0.1%)
Initial guess               ....       0.187 sec  (  0.7%)
Orbital Transformation      ....       0.000 sec  (  0.0%)
Orbital Orthonormalization  ....       0.000 sec  (  0.0%)
DIIS solution               ....       0.056 sec  (  0.2%)
SOSCF solution              ....       0.060 sec  (  0.2%)


           ************************************************************
           *        Program running with 6 parallel MPI-processes     *
           *              working on a common directory               *
           ************************************************************

------------------------------------------------------------------------------
                                ORCA  MP2 
------------------------------------------------------------------------------

Freezing NCore=16 chemical core electrons
MP2 will be done in the AO integral direct mode
The Q1-step will be done using symmetric double matrices
Dimension of the basis                    ...  344
Memory devoted for MP2                    ... 8000 MB   
Memory needed for all in one shot         ...  935 MB
Number of MOs that can be treated together...   50      
MP2 density construction                  ... relaxed
The MP2 gradient is requested => amplitudes will be stored on disk
Total number of MOs              ...   32
Number of MOs treated per batch  ...    6 
Number of batches necessary      ...    1 
OPERATORS   0/  0 PASS   0
-----------------------------------------------
 MP2 CORRELATION ENERGY   :     -2.070138495 Eh
-----------------------------------------------


---------------------
MP2 DENSITY FORMATION
---------------------

Completing the external part of the density      ... done
Storing the unrelaxed density                    ... done

Calculating G(D)                                 ... done
Completing the Lagrangian                        ... done
Solving the Z-vector equations                   ... 

------------------------------------------------------------------------------
                           ORCA CP-SCF CALCULATION
------------------------------------------------------------------------------

Input orbitals are from        ... 12h2o.su.etal.mol0,1,2,3,4,6,7,8-orca.engrad-mp2.def2tzvp.frozencore.gbw
Input Perturbation             ... 12h2o.su.etal.mol0,1,2,3,4,6,7,8-orca.engrad-mp2.def2tzvp.frozencore.pin.tmp
Wavefunction output            ... 12h2o.su.etal.mol0,1,2,3,4,6,7,8-orca.engrad-mp2.def2tzvp.frozencore.pout.tmp
Perturbation mode              ... Real perturbation (singlet)
Solver                         ... POPLE
Max. number of iterations      ... 128
Convergence tolerance          ... 1.000e-08
Integral handling              ... Direct
Number of perturbations        ... 1
Number of operators            ... 1
Orbital ranges used for CP-SCF:
 Operator 0:  Orbitals   0... 39  to  40...343
Variables per vector in CP-SCF ... 12160
Number of vectors sought       ... 1
     CP-SCF ITERATION   0: 
     CP-SCF ITERATION   1:      0.001042112765
     CP-SCF ITERATION   2:      0.000027584288
     CP-SCF ITERATION   3:      0.000001262507
     CP-SCF ITERATION   4:      0.000000126982
     CP-SCF ITERATION   5:      0.000000011809
     CP-SCF ITERATION   6:      0.000000000634
                                                 ... done
Finalizing the relaxed density                   ... done
Transforming P to the AO basis                   ... done
Storing the relaxed density                      ... done

------------------------------------
ENERGY WEIGHTED DENSITY FINALIZATION
------------------------------------

Gathering the parts of the W-matrix              ...                                                      done
Forming the Z-density                            ... done
Transforming Z to the AO basis                   ... done
Calculating G(Z)                                 ... done
Finalizing the W-matrix                          ...                                                      done
Transforming W to the AO basis and storing       ... done

                *********************************************
                * UNRELAXED MP2 DENSITY POPULATION ANALYSIS *
                *********************************************

------------------------------------------------------------------------------
                           ORCA POPULATION ANALYSIS
------------------------------------------------------------------------------
Input electron density              ... 12h2o.su.etal.mol0,1,2,3,4,6,7,8-orca.engrad-mp2.def2tzvp.frozencore.pmp2ur
BaseName (.gbw .S,...)              ... 12h2o.su.etal.mol0,1,2,3,4,6,7,8-orca.engrad-mp2.def2tzvp.frozencore

                    ********************************
                    * MULLIKEN POPULATION ANALYSIS *
                    ********************************

-----------------------
MULLIKEN ATOMIC CHARGES
-----------------------
   0 O :   -0.721546
   1 H :    0.358018
   2 H :    0.372311
   3 O :   -0.722252
   4 H :    0.365579
   5 H :    0.369122
   6 O :   -0.768689
   7 H :    0.340132
   8 H :    0.408826
   9 O :   -0.761379
  10 H :    0.372902
  11 H :    0.370389
  12 O :   -0.747238
  13 H :    0.353979
  14 H :    0.402425
  15 O :   -0.779761
  16 H :    0.383414
  17 H :    0.364375
  18 O :   -0.760519
  19 H :    0.400893
  20 H :    0.373874
  21 O :   -0.731570
  22 H :    0.406751
  23 H :    0.349960
Sum of atomic charges:   -0.0000000

--------------------------------
MULLIKEN REDUCED ORBITAL CHARGES
--------------------------------
  0 O s       :     3.806777  s :     3.806777
      pz      :     1.708757  p :     4.859217
      px      :     1.359394
      py      :     1.791065
      dz2     :     0.009610  d :     0.051487
      dxz     :     0.009796
      dyz     :     0.011108
      dx2y2   :     0.007859
      dxy     :     0.013114
      f0      :     0.000454  f :     0.004065
      f+1     :     0.000691
      f-1     :     0.000551
      f+2     :     0.000437
      f-2     :     0.000713
      f+3     :     0.000467
      f-3     :     0.000751
  1 H s       :     0.594981  s :     0.594981
      pz      :     0.017552  p :     0.047000
      px      :     0.013861
      py      :     0.015587
  2 H s       :     0.584720  s :     0.584720
      pz      :     0.011433  p :     0.042969
      px      :     0.017758
      py      :     0.013778
  3 O s       :     3.805824  s :     3.805824
      pz      :     1.710136  p :     4.861018
      px      :     1.357911
      py      :     1.792971
      dz2     :     0.009461  d :     0.051343
      dxz     :     0.009637
      dyz     :     0.011112
      dx2y2   :     0.007864
      dxy     :     0.013269
      f0      :     0.000454  f :     0.004067
      f+1     :     0.000690
      f-1     :     0.000551
      f+2     :     0.000437
      f-2     :     0.000714
      f+3     :     0.000468
      f-3     :     0.000753
  4 H s       :     0.587564  s :     0.587564
      pz      :     0.017491  p :     0.046856
      px      :     0.013831
      py      :     0.015534
  5 H s       :     0.587823  s :     0.587823
      pz      :     0.011455  p :     0.043055
      px      :     0.017752
      py      :     0.013848
  6 O s       :     3.801960  s :     3.801960
      pz      :     1.717122  p :     4.912425
      px      :     1.771248
      py      :     1.424055
      dz2     :     0.009515  d :     0.050294
      dxz     :     0.010640
      dyz     :     0.010253
      dx2y2   :     0.007908
      dxy     :     0.011979
      f0      :     0.000459  f :     0.004009
      f+1     :     0.000543
      f-1     :     0.000697
      f+2     :     0.000432
      f-2     :     0.000722
      f+3     :     0.000698
      f-3     :     0.000458
  7 H s       :     0.612346  s :     0.612346
      pz      :     0.017596  p :     0.047522
      px      :     0.015739
      py      :     0.014187
  8 H s       :     0.533482  s :     0.533482
      pz      :     0.011223  p :     0.057692
      px      :     0.013806
      py      :     0.032664
  9 O s       :     3.800898  s :     3.800898
      pz      :     1.532429  p :     4.904983
      px      :     1.561880
      py      :     1.810674
      dz2     :     0.016613  d :     0.051489
      dxz     :     0.006721
      dyz     :     0.008346
      dx2y2   :     0.007526
      dxy     :     0.012284
      f0      :     0.000634  f :     0.004008
      f+1     :     0.000740
      f-1     :     0.000532
      f+2     :     0.000416
      f-2     :     0.000421
      f+3     :     0.000432
      f-3     :     0.000834
 10 H s       :     0.576881  s :     0.576881
      pz      :     0.023808  p :     0.050217
      px      :     0.012352
      py      :     0.014057
 11 H s       :     0.577549  s :     0.577549
      pz      :     0.010803  p :     0.052061
      px      :     0.024207
      py      :     0.017051
 12 O s       :     3.796288  s :     3.796288
      pz      :     1.540391  p :     4.894997
      px      :     1.831591
      py      :     1.523015
      dz2     :     0.016848  d :     0.051992
      dxz     :     0.007787
      dyz     :     0.008335
      dx2y2   :     0.008949
      dxy     :     0.010072
      f0      :     0.000554  f :     0.003960
      f+1     :     0.000487
      f-1     :     0.000830
      f+2     :     0.000434
      f-2     :     0.000409
      f+3     :     0.000777
      f-3     :     0.000470
 13 H s       :     0.600366  s :     0.600366
      pz      :     0.018914  p :     0.045654
      px      :     0.014413
      py      :     0.012328
 14 H s       :     0.543247  s :     0.543247
      pz      :     0.009877  p :     0.054328
      px      :     0.015110
      py      :     0.029341
 15 O s       :     3.799931  s :     3.799931
      pz      :     1.572954  p :     4.926115
      px      :     1.486941
      py      :     1.866219
      dz2     :     0.015006  d :     0.049724
      dxz     :     0.007908
      dyz     :     0.007917
      dx2y2   :     0.008367
      dxy     :     0.010527
      f0      :     0.000575  f :     0.003991
      f+1     :     0.000793
      f-1     :     0.000492
      f+2     :     0.000443
      f-2     :     0.000404
      f+3     :     0.000482
      f-3     :     0.000801
 16 H s       :     0.565827  s :     0.565827
      pz      :     0.024351  p :     0.050759
      px      :     0.012226
      py      :     0.014182
 17 H s       :     0.579863  s :     0.579863
      pz      :     0.010096  p :     0.055762
      px      :     0.028998
      py      :     0.016668
 18 O s       :     3.799509  s :     3.799509
      pz      :     1.600300  p :     4.905386
      px      :     1.467998
      py      :     1.837088
      dz2     :     0.016148  d :     0.051653
      dxz     :     0.008065
      dyz     :     0.007842
      dx2y2   :     0.009067
      dxy     :     0.010531
      f0      :     0.000553  f :     0.003970
      f+1     :     0.000811
      f-1     :     0.000490
      f+2     :     0.000434
      f-2     :     0.000404
      f+3     :     0.000475
      f-3     :     0.000804
 19 H s       :     0.549348  s :     0.549348
      pz      :     0.025209  p :     0.049758
      px      :     0.011335
      py      :     0.013214
 20 H s       :     0.582807  s :     0.582807
      pz      :     0.010057  p :     0.043319
      px      :     0.018736
      py      :     0.014525
 21 O s       :     3.791383  s :     3.791383
      pz      :     1.575472  p :     4.884131
      px      :     1.535983
      py      :     1.772677
      dz2     :     0.016962  d :     0.052067
      dxz     :     0.006615
      dyz     :     0.007948
      dx2y2   :     0.008065
      dxy     :     0.012476
      f0      :     0.000607  f :     0.003989
      f+1     :     0.000751
      f-1     :     0.000533
      f+2     :     0.000414
      f-2     :     0.000423
      f+3     :     0.000426
      f-3     :     0.000834
 22 H s       :     0.544047  s :     0.544047
      pz      :     0.025542  p :     0.049201
      px      :     0.011415
      py      :     0.012244
 23 H s       :     0.604658  s :     0.604658
      pz      :     0.011436  p :     0.045381
      px      :     0.018443
      py      :     0.015502


                     *******************************
                     * LOEWDIN POPULATION ANALYSIS *
                     *******************************

----------------------
LOEWDIN ATOMIC CHARGES
----------------------
   0 O :   -0.315031
   1 H :    0.161520
   2 H :    0.187042
   3 O :   -0.313257
   4 H :    0.165109
   5 H :    0.186667
   6 O :   -0.346060
   7 H :    0.150278
   8 H :    0.154262
   9 O :   -0.360592
  10 H :    0.147773
  11 H :    0.147709
  12 O :   -0.317185
  13 H :    0.163843
  14 H :    0.154374
  15 O :   -0.354709
  16 H :    0.152491
  17 H :    0.142962
  18 O :   -0.290394
  19 H :    0.159838
  20 H :    0.179424
  21 O :   -0.285478
  22 H :    0.164181
  23 H :    0.165234

-------------------------------
LOEWDIN REDUCED ORBITAL CHARGES
-------------------------------
  0 O s       :     3.464268  s :     3.464268
      pz      :     1.671360  p :     4.786059
      px      :     1.349876
      py      :     1.764823
      dz2     :     0.010968  d :     0.059864
      dxz     :     0.012453
      dyz     :     0.011426
      dx2y2   :     0.009301
      dxy     :     0.015716
      f0      :     0.000472  f :     0.004840
      f+1     :     0.000855
      f-1     :     0.000655
      f+2     :     0.000409
      f-2     :     0.001017
      f+3     :     0.000474
      f-3     :     0.000958
  1 H s       :     0.672007  s :     0.672007
      pz      :     0.067683  p :     0.166473
      px      :     0.045052
      py      :     0.053738
  2 H s       :     0.661280  s :     0.661280
      pz      :     0.034166  p :     0.151678
      px      :     0.072938
      py      :     0.044574
  3 O s       :     3.463601  s :     3.463601
      pz      :     1.671275  p :     4.785240
      px      :     1.349663
      py      :     1.764302
      dz2     :     0.010871  d :     0.059586
      dxz     :     0.012210
      dyz     :     0.011330
      dx2y2   :     0.009320
      dxy     :     0.015855
      f0      :     0.000468  f :     0.004830
      f+1     :     0.000852
      f-1     :     0.000654
      f+2     :     0.000409
      f-2     :     0.001010
      f+3     :     0.000474
      f-3     :     0.000963
  4 H s       :     0.668525  s :     0.668525
      pz      :     0.067555  p :     0.166365
      px      :     0.045130
      py      :     0.053681
  5 H s       :     0.661817  s :     0.661817
      pz      :     0.034149  p :     0.151516
      px      :     0.072733
      py      :     0.044634
  6 O s       :     3.457349  s :     3.457349
      pz      :     1.697826  p :     4.826429
      px      :     1.734795
      py      :     1.393809
      dz2     :     0.009951  d :     0.057529
      dxz     :     0.011163
      dyz     :     0.012779
      dx2y2   :     0.009353
      dxy     :     0.014284
      f0      :     0.000454  f :     0.004753
      f+1     :     0.000650
      f-1     :     0.000851
      f+2     :     0.000410
      f-2     :     0.001036
      f+3     :     0.000879
      f-3     :     0.000473
  7 H s       :     0.681599  s :     0.681599
      pz      :     0.067049  p :     0.168122
      px      :     0.054190
      py      :     0.046883
  8 H s       :     0.647034  s :     0.647034
      pz      :     0.034031  p :     0.198704
      px      :     0.048239
      py      :     0.116433
  9 O s       :     3.456574  s :     3.456574
      pz      :     1.519744  p :     4.841339
      px      :     1.539728
      py      :     1.781867
      dz2     :     0.020803  d :     0.057894
      dxz     :     0.007447
      dyz     :     0.007670
      dx2y2   :     0.007568
      dxy     :     0.014404
      f0      :     0.000879  f :     0.004786
      f+1     :     0.000969
      f-1     :     0.000699
      f+2     :     0.000388
      f-2     :     0.000422
      f+3     :     0.000377
      f-3     :     0.001054
 10 H s       :     0.678569  s :     0.678569
      pz      :     0.092364  p :     0.173658
      px      :     0.037917
      py      :     0.043377
 11 H s       :     0.674106  s :     0.674106
      pz      :     0.031587  p :     0.178185
      px      :     0.087668
      py      :     0.058930
 12 O s       :     3.457340  s :     3.457340
      pz      :     1.536519  p :     4.796201
      px      :     1.775427
      py      :     1.484255
      dz2     :     0.020542  d :     0.058858
      dxz     :     0.006890
      dyz     :     0.009614
      dx2y2   :     0.010485
      dxy     :     0.011326
      f0      :     0.000787  f :     0.004785
      f+1     :     0.000588
      f-1     :     0.001181
      f+2     :     0.000414
      f-2     :     0.000420
      f+3     :     0.000946
      f-3     :     0.000449
 13 H s       :     0.673162  s :     0.673162
      pz      :     0.080930  p :     0.162995
      px      :     0.044160
      py      :     0.037905
 14 H s       :     0.656625  s :     0.656625
      pz      :     0.029710  p :     0.189002
      px      :     0.053335
      py      :     0.105958
 15 O s       :     3.452420  s :     3.452420
      pz      :     1.539865  p :     4.840701
      px      :     1.473388
      py      :     1.827448
      dz2     :     0.019126  d :     0.056873
      dxz     :     0.009273
      dyz     :     0.007102
      dx2y2   :     0.009477
      dxy     :     0.011895
      f0      :     0.000783  f :     0.004714
      f+1     :     0.001124
      f-1     :     0.000571
      f+2     :     0.000414
      f-2     :     0.000417
      f+3     :     0.000443
      f-3     :     0.000962
 16 H s       :     0.672292  s :     0.672292
      pz      :     0.093624  p :     0.175217
      px      :     0.037846
      py      :     0.043747
 17 H s       :     0.666855  s :     0.666855
      pz      :     0.031257  p :     0.190184
      px      :     0.105199
      py      :     0.053727
 18 O s       :     3.452832  s :     3.452832
      pz      :     1.552161  p :     4.772970
      px      :     1.448519
      py      :     1.772290
      dz2     :     0.020558  d :     0.059806
      dxz     :     0.009185
      dyz     :     0.006938
      dx2y2   :     0.010944
      dxy     :     0.012181
      f0      :     0.000755  f :     0.004786
      f+1     :     0.001139
      f-1     :     0.000595
      f+2     :     0.000410
      f-2     :     0.000417
      f+3     :     0.000451
      f-3     :     0.001018
 19 H s       :     0.664471  s :     0.664471
      pz      :     0.095939  p :     0.175691
      px      :     0.036649
      py      :     0.043103
 20 H s       :     0.662142  s :     0.662142
      pz      :     0.031266  p :     0.158435
      px      :     0.077083
      py      :     0.050085
 21 O s       :     3.448202  s :     3.448202
      pz      :     1.541633  p :     4.772618
      px      :     1.519136
      py      :     1.711850
      dz2     :     0.020814  d :     0.059768
      dxz     :     0.007082
      dyz     :     0.007304
      dx2y2   :     0.009320
      dxy     :     0.015248
      f0      :     0.000817  f :     0.004889
      f+1     :     0.000980
      f-1     :     0.000733
      f+2     :     0.000389
      f-2     :     0.000421
      f+3     :     0.000406
      f-3     :     0.001143
 22 H s       :     0.659872  s :     0.659872
      pz      :     0.097840  p :     0.175947
      px      :     0.036393
      py      :     0.041714
 23 H s       :     0.673246  s :     0.673246
      pz      :     0.032254  p :     0.161519
      px      :     0.073379
      py      :     0.055886


                      *****************************
                      * MAYER POPULATION ANALYSIS *
                      *****************************

  NA   - Mulliken gross atomic population
  ZA   - Total nuclear charge
[...]
      f+1     :     0.000781
      f-1     :     0.000484
      f+2     :     0.000434
      f-2     :     0.000402
      f+3     :     0.000472
      f-3     :     0.000782
 19 H s       :     0.564391  s :     0.564391
      pz      :     0.024560  p :     0.050292
      px      :     0.011674
      py      :     0.014058
 20 H s       :     0.591248  s :     0.591248
      pz      :     0.010822  p :     0.043990
      px      :     0.017908
      py      :     0.015261
 21 O s       :     3.790464  s :     3.790464
      pz      :     1.572862  p :     4.858811
      px      :     1.529416
      py      :     1.756534
      dz2     :     0.015812  d :     0.050113
      dxz     :     0.006585
      dyz     :     0.007934
      dx2y2   :     0.008000
      dxy     :     0.011781
      f0      :     0.000591  f :     0.003915
      f+1     :     0.000730
      f-1     :     0.000524
      f+2     :     0.000414
      f-2     :     0.000421
      f+3     :     0.000426
      f-3     :     0.000809
 22 H s       :     0.559331  s :     0.559331
      pz      :     0.024755  p :     0.049525
      px      :     0.011820
      py      :     0.012950
 23 H s       :     0.611647  s :     0.611647
      pz      :     0.012173  p :     0.046089
      px      :     0.017849
      py      :     0.016068


                     *******************************
                     * LOEWDIN POPULATION ANALYSIS *
                     *******************************

----------------------
LOEWDIN ATOMIC CHARGES
----------------------
   0 O :   -0.313748
   1 H :    0.163272
   2 H :    0.187843
   3 O :   -0.311459
   4 H :    0.166934
   5 H :    0.187859
   6 O :   -0.342936
   7 H :    0.152238
   8 H :    0.146631
   9 O :   -0.359726
  10 H :    0.144765
  11 H :    0.142706
  12 O :   -0.311296
  13 H :    0.165301
  14 H :    0.147146
  15 O :   -0.351237
  16 H :    0.148808
  17 H :    0.135864
  18 O :   -0.281597
  19 H :    0.155829
  20 H :    0.179785
  21 O :   -0.278958
  22 H :    0.159832
  23 H :    0.166144

-------------------------------
LOEWDIN REDUCED ORBITAL CHARGES
-------------------------------
  0 O s       :     3.466193  s :     3.466193
      pz      :     1.666280  p :     4.784032
      px      :     1.354683
      py      :     1.763070
      dz2     :     0.010883  d :     0.058662
      dxz     :     0.012077
      dyz     :     0.011397
      dx2y2   :     0.009069
      dxy     :     0.015235
      f0      :     0.000475  f :     0.004861
      f+1     :     0.000861
      f-1     :     0.000655
      f+2     :     0.000410
      f-2     :     0.001017
      f+3     :     0.000477
      f-3     :     0.000965
  1 H s       :     0.670388  s :     0.670388
      pz      :     0.067766  p :     0.166340
      px      :     0.044251
      py      :     0.054324
  2 H s       :     0.660513  s :     0.660513
      pz      :     0.034872  p :     0.151644
      px      :     0.071463
      py      :     0.045308
  3 O s       :     3.465360  s :     3.465360
      pz      :     1.665915  p :     4.782882
      px      :     1.354598
      py      :     1.762370
      dz2     :     0.010775  d :     0.058367
      dxz     :     0.011843
      dyz     :     0.011297
      dx2y2   :     0.009086
      dxy     :     0.015366
      f0      :     0.000472  f :     0.004849
      f+1     :     0.000859
      f-1     :     0.000655
      f+2     :     0.000409
      f-2     :     0.001010
      f+3     :     0.000476
      f-3     :     0.000969
  4 H s       :     0.666958  s :     0.666958
      pz      :     0.067513  p :     0.166108
      px      :     0.044327
      py      :     0.054268
  5 H s       :     0.660644  s :     0.660644
      pz      :     0.034814  p :     0.151497
      px      :     0.071285
      py      :     0.045397
  6 O s       :     3.458798  s :     3.458798
      pz      :     1.697454  p :     4.822429
      px      :     1.727249
      py      :     1.397726
      dz2     :     0.009933  d :     0.056918
      dxz     :     0.011092
      dyz     :     0.012415
      dx2y2   :     0.009390
      dxy     :     0.014088
      f0      :     0.000457  f :     0.004791
      f+1     :     0.000651
      f-1     :     0.000862
      f+2     :     0.000410
      f-2     :     0.001038
      f+3     :     0.000894
      f-3     :     0.000478
  7 H s       :     0.679504  s :     0.679504
      pz      :     0.067099  p :     0.168258
      px      :     0.054615
      py      :     0.046543
  8 H s       :     0.654540  s :     0.654540
      pz      :     0.034667  p :     0.198829
      px      :     0.048640
      py      :     0.115522
  9 O s       :     3.457327  s :     3.457327
      pz      :     1.520695  p :     4.840603
      px      :     1.541010
      py      :     1.778898
      dz2     :     0.020259  d :     0.056986
      dxz     :     0.007330
      dyz     :     0.007701
      dx2y2   :     0.007535
      dxy     :     0.014162
      f0      :     0.000883  f :     0.004810
      f+1     :     0.000977
      f-1     :     0.000698
      f+2     :     0.000390
      f-2     :     0.000422
      f+3     :     0.000377
      f-3     :     0.001064
 10 H s       :     0.681132  s :     0.681132
      pz      :     0.091513  p :     0.174104
      px      :     0.038393
      py      :     0.044199
 11 H s       :     0.678432  s :     0.678432
      pz      :     0.032033  p :     0.178863
      px      :     0.087377
      py      :     0.059453
 12 O s       :     3.458552  s :     3.458552
      pz      :     1.538439  p :     4.789762
      px      :     1.764092
      py      :     1.487230
      dz2     :     0.019983  d :     0.058168
      dxz     :     0.006958
      dyz     :     0.009382
      dx2y2   :     0.010535
      dxy     :     0.011310
      f0      :     0.000783  f :     0.004814
      f+1     :     0.000590
      f-1     :     0.001193
      f+2     :     0.000416
      f-2     :     0.000419
      f+3     :     0.000961
      f-3     :     0.000453
 13 H s       :     0.671544  s :     0.671544
      pz      :     0.080252  p :     0.163155
      px      :     0.044860
      py      :     0.038044
 14 H s       :     0.663345  s :     0.663345
      pz      :     0.030127  p :     0.189508
      px      :     0.053833
      py      :     0.105547
 15 O s       :     3.453023  s :     3.453023
      pz      :     1.537430  p :     4.837171
      px      :     1.475333
      py      :     1.824407
      dz2     :     0.018837  d :     0.056292
      dxz     :     0.009095
      dyz     :     0.007156
      dx2y2   :     0.009429
      dxy     :     0.011775
      f0      :     0.000788  f :     0.004751
      f+1     :     0.001137
      f-1     :     0.000572
      f+2     :     0.000416
      f-2     :     0.000416
      f+3     :     0.000446
      f-3     :     0.000976
 16 H s       :     0.675636  s :     0.675636
      pz      :     0.092959  p :     0.175556
      px      :     0.037998
      py      :     0.044599
 17 H s       :     0.672977  s :     0.672977
      pz      :     0.031684  p :     0.191158
      px      :     0.104996
      py      :     0.054478
 18 O s       :     3.453997  s :     3.453997
      pz      :     1.550892  p :     4.763699
      px      :     1.450940
      py      :     1.761866
      dz2     :     0.020277  d :     0.059093
      dxz     :     0.009011
      dyz     :     0.007029
      dx2y2   :     0.010807
      dxy     :     0.011969
      f0      :     0.000758  f :     0.004808
      f+1     :     0.001147
      f-1     :     0.000596
      f+2     :     0.000412
      f-2     :     0.000416
      f+3     :     0.000454
      f-3     :     0.001024
 19 H s       :     0.668309  s :     0.668309
      pz      :     0.095438  p :     0.175862
      px      :     0.036623
      py      :     0.043800
 20 H s       :     0.661799  s :     0.661799
      pz      :     0.031809  p :     0.158416
      px      :     0.076024
      py      :     0.050583
 21 O s       :     3.448869  s :     3.448869
      pz      :     1.543505  p :     4.766248
      px      :     1.520809
      py      :     1.701935
      dz2     :     0.020324  d :     0.058931
      dxz     :     0.006979
      dyz     :     0.007348
      dx2y2   :     0.009362
      dxy     :     0.014919
      f0      :     0.000820  f :     0.004909
      f+1     :     0.000986
      f-1     :     0.000734
      f+2     :     0.000390
      f-2     :     0.000421
      f+3     :     0.000408
      f-3     :     0.001149
 22 H s       :     0.664144  s :     0.664144
      pz      :     0.097065  p :     0.176024
      px      :     0.036685
      py      :     0.042275
 23 H s       :     0.672160  s :     0.672160
      pz      :     0.032753  p :     0.161696
      px      :     0.072662
      py      :     0.056281


                      *****************************
                      * MAYER POPULATION ANALYSIS *
                      *****************************

  NA   - Mulliken gross atomic population
  ZA   - Total nuclear charge
  QA   - Mulliken gross atomic charge
  VA   - Mayer's total valence
  BVA  - Mayer's bonded valence
  FA   - Mayer's free valence

  ATOM       NA         ZA         QA         VA         BVA        FA
  0 O      8.7038     8.0000    -0.7038     2.0915     1.7071     0.3844
  1 H      0.6486     1.0000     0.3514     0.8962     0.8506     0.0455
  2 H      0.6355     1.0000     0.3645     0.8874     0.8401     0.0473
  3 O      8.7035     8.0000    -0.7035     2.0956     1.7112     0.3843
  4 H      0.6411     1.0000     0.3589     0.8909     0.8461     0.0448
  5 H      0.6379     1.0000     0.3621     0.8894     0.8418     0.0475
  6 O      8.7427     8.0000    -0.7427     2.0345     1.6458     0.3887
  7 H      0.6663     1.0000     0.3337     0.9097     0.8622     0.0475
  8 H      0.6139     1.0000     0.3861     0.8976     0.8536     0.0440
  9 O      8.7376     8.0000    -0.7376     2.0499     1.6634     0.3865
 10 H      0.6392     1.0000     0.3608     0.9010     0.8557     0.0453
 11 H      0.6486     1.0000     0.3514     0.9325     0.8870     0.0455
 12 O      8.7177     8.0000    -0.7177     2.0693     1.6830     0.3863
 13 H      0.6522     1.0000     0.3478     0.9012     0.8538     0.0474
 14 H      0.6194     1.0000     0.3806     0.9060     0.8621     0.0439
 15 O      8.7495     8.0000    -0.7495     2.0201     1.6300     0.3901
 16 H      0.6319     1.0000     0.3681     0.9051     0.8611     0.0441
 17 H      0.6604     1.0000     0.3396     0.9476     0.9001     0.0475
 18 O      8.7304     8.0000    -0.7304     2.0962     1.7085     0.3877
 19 H      0.6147     1.0000     0.3853     0.8927     0.8500     0.0426
 20 H      0.6352     1.0000     0.3648     0.8954     0.8485     0.0468
 21 O      8.7033     8.0000    -0.7033     2.0912     1.7083     0.3828
 22 H      0.6089     1.0000     0.3911     0.8903     0.8481     0.0422
 23 H      0.6577     1.0000     0.3423     0.9102     0.8627     0.0475

  Mayer bond orders larger than 0.100000
B(  0-O ,  1-H ) :   0.8420 B(  0-O ,  2-H ) :   0.8259 B(  3-O ,  4-H ) :   0.8380 
B(  3-O ,  5-H ) :   0.8275 B(  6-O ,  7-H ) :   0.8524 B(  6-O ,  8-H ) :   0.7525 
B(  9-O , 10-H ) :   0.8318 B(  9-O , 11-H ) :   0.8112 B( 12-O , 13-H ) :   0.8425 
B( 12-O , 14-H ) :   0.7715 B( 12-O , 17-H ) :   0.1031 B( 15-O , 16-H ) :   0.8178 
B( 15-O , 17-H ) :   0.7786 B( 18-O , 19-H ) :   0.7948 B( 18-O , 20-H ) :   0.8214 
B( 21-O , 22-H ) :   0.7882 B( 21-O , 23-H ) :   0.8428 


----------------------------------
MP2 DERIVATIVE INTEGRAL GENERATION
----------------------------------


Input Wavefunction Amplitudes       ... 12h2o.su.etal.mol0,1,2,3,4,6,7,8-orca.engrad-mp2.def2tzvp.frozencore.mp2tsaa.tmp
Input Correlated Electron Density   ... 12h2o.su.etal.mol0,1,2,3,4,6,7,8-orca.engrad-mp2.def2tzvp.frozencore.pmp2re
Input Energy Weighted Density       ... 12h2o.su.etal.mol0,1,2,3,4,6,7,8-orca.engrad-mp2.def2tzvp.frozencore.wmp2.tmp
Input SCF Electron Density          ... 12h2o.su.etal.mol0,1,2,3,4,6,7,8-orca.engrad-mp2.def2tzvp.frozencore.scfp

One-Electron Terms    ...
                        ... One-Electron Terms done
Prescreening matrices              ... done

Batch handling in the gradient evaluation:
Memory available                      ... 8000.0 MB
Memory per occupied orbital in Q2     ...   28.9 MB
Memory per occupied orbital in Q3     ...    0.1 MB
Total memory requirement per |i>      ...   29.0 MB
Max. Number of orbitals possible      ...    275
Number of orbitals treated per batch  ...     32
Number of batches to be done          ...      1
Batch   0: i=    8 ...    39

---------------------------------------
MP2 TOTAL ENERGY:     -610.579296821 Eh
---------------------------------------

The final MP2 gradient
  0:   0.02595571  -0.00761227  -0.00134412
  1:   0.00146868  -0.00205211  -0.00224510
  2:  -0.02648234   0.00852317   0.00131780
  3:  -0.02621768   0.00920588   0.00221331
  4:  -0.00098118   0.00187430  -0.00245090
  5:   0.02641182  -0.01001672  -0.00103837
  6:   0.00032555  -0.00555227   0.00052711
  7:  -0.00043094  -0.00091088  -0.00013297
  8:   0.00199716   0.01071448  -0.00066651
  9:  -0.00018343  -0.00018988  -0.00398617
 10:  -0.00170094  -0.00104113   0.00732839
 11:   0.00120941  -0.00058328  -0.00109998
 12:   0.00064484  -0.00104959   0.00988657
 13:   0.00203427   0.00186634  -0.00839829
 14:   0.00044442  -0.00333006   0.00118872
 15:   0.00212068  -0.00509868   0.00102601
 16:   0.00173285   0.00329259   0.00481634
 17:  -0.00495044   0.00304334  -0.00233741
 18:  -0.01563477   0.00693368  -0.00511075
 19:  -0.00039173  -0.00068756  -0.00117892
 20:   0.01327624  -0.00513643   0.00411516
 21:   0.00808503  -0.00904526   0.00254041
 22:  -0.00056427   0.00133608  -0.00602126
 23:  -0.00816894   0.00551626   0.00105092

-----------------------------------
NORM OF THE MP2 GRADIENT:  0.066810
-----------------------------------

-------------------------   --------------------
FINAL SINGLE POINT ENERGY      -610.579296821468
-------------------------   --------------------


                            ***************************************
                            *     ORCA property calculations      *
                            ***************************************

                                    ---------------------
                                    Active property flags
                                    ---------------------
   (+) Dipole Moment


------------------------------------------------------------------------------
                       ORCA ELECTRIC PROPERTIES CALCULATION
------------------------------------------------------------------------------

Dipole Moment Calculation                       ... on
Quadrupole Moment Calculation                   ... off
Polarizability Calculation                      ... off
GBWName                                         ... 12h2o.su.etal.mol0,1,2,3,4,6,7,8-orca.engrad-mp2.def2tzvp.frozencore.gbw
Electron density file                           ... 12h2o.su.etal.mol0,1,2,3,4,6,7,8-orca.engrad-mp2.def2tzvp.frozencore.scfp
The origin for moment calculation is the CENTER OF MASS  = ( 0.012526, -0.015686 -0.682693)

-------------
DIPOLE MOMENT
-------------
                                X             Y             Z
Electronic contribution:     -0.07471       0.06451       0.34542
Nuclear contribution   :      0.22520      -0.14541       2.77909
                        -----------------------------------------
Total Dipole Moment    :      0.15050      -0.08090       3.12451
                        -----------------------------------------
Magnitude (a.u.)       :      3.12918
Magnitude (Debye)      :      7.95374



--------------------
Rotational spectrum 
--------------------
 
Rotational constants in cm-1:     0.030993     0.019774     0.014794 
Rotational constants in MHz :   929.140207   592.805036   443.515136 

 Dipole components along the rotational axes: 
x,y,z [a.u.] :     3.051228    -0.141778     0.679452 
x,y,z [Debye]:     7.755605    -0.360371     1.727031 

 

                         *** MP2 UNRELAXED DENSITY ***

------------------------------------------------------------------------------
                       ORCA ELECTRIC PROPERTIES CALCULATION
------------------------------------------------------------------------------

Dipole Moment Calculation                       ... on
Quadrupole Moment Calculation                   ... off
Polarizability Calculation                      ... off
GBWName                                         ... 12h2o.su.etal.mol0,1,2,3,4,6,7,8-orca.engrad-mp2.def2tzvp.frozencore.gbw
Electron density file                           ... 12h2o.su.etal.mol0,1,2,3,4,6,7,8-orca.engrad-mp2.def2tzvp.frozencore.pmp2ur
The origin for moment calculation is the CENTER OF MASS  = ( 0.012526, -0.015686 -0.682693)

-------------
DIPOLE MOMENT
-------------
                                X             Y             Z
Electronic contribution:     -0.07807       0.06553       0.32523
Nuclear contribution   :      0.22520      -0.14541       2.77909
                        -----------------------------------------
Total Dipole Moment    :      0.14713      -0.07988       3.10432
                        -----------------------------------------
Magnitude (a.u.)       :      3.10883
Magnitude (Debye)      :      7.90201



--------------------
Rotational spectrum 
--------------------
 
Rotational constants in cm-1:     0.030993     0.019774     0.014794 
Rotational constants in MHz :   929.140207   592.805036   443.515136 

 Dipole components along the rotational axes: 
x,y,z [a.u.] :     3.031798    -0.138941     0.673579 
x,y,z [Debye]:     7.706219    -0.353161     1.712103 

 

                           *** MP2 RELAXED DENSITY ***

------------------------------------------------------------------------------
                       ORCA ELECTRIC PROPERTIES CALCULATION
------------------------------------------------------------------------------

Dipole Moment Calculation                       ... on
Quadrupole Moment Calculation                   ... off
Polarizability Calculation                      ... off
GBWName                                         ... 12h2o.su.etal.mol0,1,2,3,4,6,7,8-orca.engrad-mp2.def2tzvp.frozencore.gbw
Electron density file                           ... 12h2o.su.etal.mol0,1,2,3,4,6,7,8-orca.engrad-mp2.def2tzvp.frozencore.pmp2re
The origin for moment calculation is the CENTER OF MASS  = ( 0.012526, -0.015686 -0.682693)

-------------
DIPOLE MOMENT
-------------
                                X             Y             Z
Electronic contribution:     -0.08714       0.06363       0.32053
Nuclear contribution   :      0.22520      -0.14541       2.77909
                        -----------------------------------------
Total Dipole Moment    :      0.13806      -0.08178       3.09962
                        -----------------------------------------
Magnitude (a.u.)       :      3.10377
Magnitude (Debye)      :      7.88915



--------------------
Rotational spectrum 
--------------------
 
Rotational constants in cm-1:     0.030993     0.019774     0.014794 
Rotational constants in MHz :   929.140207   592.805036   443.515136 

 Dipole components along the rotational axes: 
x,y,z [a.u.] :     3.027696    -0.129911     0.670483 
x,y,z [Debye]:     7.695793    -0.330207     1.704232 

 

Timings for individual modules:

Sum of individual times         ...      179.962 sec (=   2.999 min)
GTO integral calculation        ...        0.971 sec (=   0.016 min)   0.5 %
SCF iterations                  ...       26.005 sec (=   0.433 min)  14.5 %
MP2 module                      ...      152.986 sec (=   2.550 min)  85.0 %
                             ****ORCA TERMINATED NORMALLY****
TOTAL RUN TIME: 0 days 0 hours 3 minutes 0 seconds 942 msec
