12
Energy:    -99.09937335
O   -1.07964545  -1.25770860   0.63355373
H   -1.55867657  -0.60752556   0.11972199
H   -0.53978992  -0.74073289   1.23148682
O    0.95061300  -1.07121913  -1.14345975
H    0.36969205  -1.36503484  -0.44172260
H    1.28341007  -1.87941925  -1.53370396
O    0.48174323   0.77134492   1.71119245
H    0.26715305   1.54486969   2.23257747
H    0.52005156   1.09229156   0.81021655
O   -0.36264144   1.33516076  -0.91321768
H   -0.45303228   1.76543125  -1.76346979
H    0.12654543   0.53399819  -1.10047844
