
                                 *****************
                                 * O   R   C   A *
                                 *****************

           --- An Ab Initio, DFT and Semiempirical electronic structure package ---

                  #######################################################
                  #                        -***-                        #
                  #          Department of theory and spectroscopy      #
                  #               Directorship: Frank Neese             #
                  #        Max Planck Institute fuer Kohlenforschung    #
                  #                Kaiser Wilhelm Platz 1               #
                  #                 D-45470 Muelheim/Ruhr               #
                  #                      Germany                        #
                  #                                                     #
                  #                  All rights reserved                #
                  #                        -***-                        #
                  #######################################################


                         Program Version 4.2.0 -  RELEASE  -


 With contributions from (in alphabetic order):
   Daniel Aravena         : Magnetic Suceptibility
   Michael Atanasov       : Ab Initio Ligand Field Theory (pilot matlab implementation)
   Alexander A. Auer      : GIAO ZORA, VPT2
   Ute Becker             : Parallelization
   Giovanni Bistoni       : ED, misc. LED, open-shell LED, HFLED
   Martin Brehm           : Molecular dynamics
   Dmytro Bykov           : SCF Hessian
   Vijay G. Chilkuri      : MRCI spin determinant printing, contributions to CSF-ICE
   Dipayan Datta          : RHF DLPNO-CCSD density
   Achintya Kumar Dutta   : EOM-CC, STEOM-CC
   Dmitry Ganyushin       : Spin-Orbit,Spin-Spin,Magnetic field MRCI
   Miquel Garcia          : C-PCM Hessian, Gaussian charge scheme
   Yang Guo               : DLPNO-NEVPT2, CIM, IAO-localization
   Andreas Hansen         : Spin unrestricted coupled pair/coupled cluster methods
   Benjamin Helmich-Paris : CASSCF linear response (MC-RPA)
   Lee Huntington         : MR-EOM, pCC
   Robert Izsak           : Overlap fitted RIJCOSX, COSX-SCS-MP3, EOM
   Christian Kollmar      : KDIIS, OOCD, Brueckner-CCSD(T), CCSD density
   Simone Kossmann        : Meta GGA functionals, TD-DFT gradient, OOMP2, MP2 Hessian
   Martin Krupicka        : AUTO-CI
   Lucas Lang             : DCDCAS
   Dagmar Lenk            : GEPOL surface, SMD
   Dimitrios Liakos       : Extrapolation schemes; Compound Job, initial MDCI parallelization
   Dimitrios Manganas     : Further ROCIS development; embedding schemes
   Dimitrios Pantazis     : SARC Basis sets
   Taras Petrenko         : DFT Hessian,TD-DFT gradient, ASA, ECA, R-Raman, ABS, FL, XAS/XES, NRVS
   Peter Pinski           : DLPNO-MP2, DLPNO-MP2 Gradient
   Christoph Reimann      : Effective Core Potentials
   Marius Retegan         : Local ZFS, SOC
   Christoph Riplinger    : Optimizer, TS searches, QM/MM, DLPNO-CCSD(T), (RO)-DLPNO pert. Triples
   Tobias Risthaus        : Range-separated hybrids, TD-DFT gradient, RPA, STAB
   Michael Roemelt        : Original ROCIS implementation
   Masaaki Saitow         : Open-shell DLPNO-CCSD energy and density
   Barbara Sandhoefer     : DKH picture change effects
   Avijit Sen             : IP-ROCIS
   Kantharuban Sivalingam : CASSCF convergence, NEVPT2, FIC-MRCI
   Bernardo de Souza      : ESD, SOC TD-DFT
   Georgi Stoychev        : AutoAux, RI-MP2 NMR
   Willem Van den Heuvel  : Paramagnetic NMR
   Boris Wezisla          : Elementary symmetry handling
   Frank Wennmohs         : Technical directorship


 We gratefully acknowledge several colleagues who have allowed us to
 interface, adapt or use parts of their codes:
   Stefan Grimme, W. Hujo, H. Kruse,             : VdW corrections, initial TS optimization,
                  C. Bannwarth                     DFT functionals, gCP, sTDA/sTD-DF
   Ed Valeev, F. Pavosevic, A. Kumar             : LibInt (2-el integral package), F12 methods
   Garnet Chan, S. Sharma, J. Yang, R. Olivares  : DMRG
   Ulf Ekstrom                                   : XCFun DFT Library
   Mihaly Kallay                                 : mrcc  (arbitrary order and MRCC methods)
   Andreas Klamt, Michael Diedenhofen            : otool_cosmo (COSMO solvation model)
   Jiri Pittner, Ondrej Demel                    : Mk-CCSD
   Frank Weinhold                                : gennbo (NPA and NBO analysis)
   Christopher J. Cramer and Donald G. Truhlar   : smd solvation model
   Lars Goerigk                                  : TD-DFT with DH, B97 family of functionals
   V. Asgeirsson, H. Jonsson                     : NEB implementation
   FAccTs GmbH                                   : IRC, NEB, NEB-TS, Multilevel, MM, QM/MM, CI optimization
   S Lehtola, MJT Oliveira, MAL Marques          : LibXC Library


 Your calculation uses the libint2 library for the computation of 2-el integrals
 For citations please refer to: http://libint.valeyev.net

 Your ORCA version has been built with support for libXC version: 4.2.3
 For citations please refer to: https://tddft.org/programs/libxc/

 This ORCA versions uses:
   CBLAS   interface :  Fast vector & matrix operations
   LAPACKE interface :  Fast linear algebra routines
   SCALAPACK package :  Parallel linear algebra routines


----- Orbital basis set information -----
Your calculation utilizes the basis: def2-TZVP
   F. Weigend and R. Ahlrichs, Phys. Chem. Chem. Phys. 7, 3297 (2005).

================================================================================
                                        WARNINGS
                       Please study these warnings very carefully!
================================================================================


WARNING: The frozen-core approximation for MP2-gradient calculations is turned on by default.

INFO   : the flag for use of LIBINT has been found!

================================================================================
                                       INPUT FILE
================================================================================
NAME = 12mecn.remya.etal.2.mol4,8,10-orca.engrad-mp2.def2tzvp.frozencore.inp
|  1> # 12mecn.remya.etal.2.mol4,8,10
|  2> ! MP2 def2-TZVP EnGrad TightSCF
|  3> 
|  4> %pal
|  5>     nprocs 6
|  6> end
|  7> 
|  8> %maxcore 8000
|  9> 
| 10> %scf
| 11>     ConvForced true
| 12> end
| 13> 
| 14> *xyz 0 1
| 15> C  -1.509690000  -0.693960000  -1.610140000
| 16> H  -1.327010000  -1.692700000  -2.017370000
| 17> H  -0.742170000  -0.000650000  -1.964400000
| 18> H  -2.491920000  -0.334310000  -1.929350000
| 19> C  -1.473570000  -0.748120000  -0.167200000
| 20> N  -1.447490000  -0.793720000   0.998938000
| 21> C   1.912641000  -2.468050000  -1.750510000
| 22> H   2.876947000  -2.793500000  -2.151200000
| 23> H   1.688016000  -1.463720000  -2.122170000
| 24> H   1.123460000  -3.154780000  -2.069590000
| 25> C   1.977850000  -2.444240000  -0.306900000
| 26> N   2.036566000  -2.426130000   0.858249000
| 27> C   4.602033000   0.321019000  -1.784800000
| 28> H   4.827650000  -0.662160000  -2.207910000
| 29> H   5.320558000   1.057980000  -2.148500000
| 30> H   3.601982000   0.643751000  -2.087520000
| 31> C   4.654967000   0.244048000  -0.343060000
| 32> N   4.691648000   0.166590000   0.820757000
| 33> *
| 34> 
| 35>                          ****END OF INPUT****
================================================================================

                     *******************************
                     * Energy+Gradient Calculation *
                     *******************************

---------------------------------
CARTESIAN COORDINATES (ANGSTROEM)
---------------------------------
  C     -1.509690   -0.693960   -1.610140
  H     -1.327010   -1.692700   -2.017370
  H     -0.742170   -0.000650   -1.964400
  H     -2.491920   -0.334310   -1.929350
  C     -1.473570   -0.748120   -0.167200
  N     -1.447490   -0.793720    0.998938
  C      1.912641   -2.468050   -1.750510
  H      2.876947   -2.793500   -2.151200
  H      1.688016   -1.463720   -2.122170
  H      1.123460   -3.154780   -2.069590
  C      1.977850   -2.444240   -0.306900
  N      2.036566   -2.426130    0.858249
  C      4.602033    0.321019   -1.784800
  H      4.827650   -0.662160   -2.207910
  H      5.320558    1.057980   -2.148500
  H      3.601982    0.643751   -2.087520
  C      4.654967    0.244048   -0.343060
  N      4.691648    0.166590    0.820757

----------------------------
CARTESIAN COORDINATES (A.U.)
----------------------------
  NO LB      ZA    FRAG     MASS         X           Y           Z
   0 C     6.0000    0    12.011   -2.852901   -1.311394   -3.042724
   1 H     1.0000    0     1.008   -2.507685   -3.198739   -3.812277
   2 H     1.0000    0     1.008   -1.402498   -0.001228   -3.712178
   3 H     1.0000    0     1.008   -4.709046   -0.631754   -3.645943
   4 C     6.0000    0    12.011   -2.784644   -1.413742   -0.315962
   5 N     7.0000    0    14.007   -2.735360   -1.499913    1.887719
   6 C     6.0000    0    12.011    3.614368   -4.663939   -3.307984
   7 H     1.0000    0     1.008    5.436642   -5.278950   -4.065179
   8 H     1.0000    0     1.008    3.189888   -2.766030   -4.010320
   9 H     1.0000    0     1.008    2.123032   -5.961670   -3.910958
  10 C     6.0000    0    12.011    3.737595   -4.618944   -0.579957
  11 N     7.0000    0    14.007    3.848552   -4.584721    1.621856
  12 C     6.0000    0    12.011    8.696582    0.606638   -3.372783
  13 H     1.0000    0     1.008    9.122936   -1.251301   -4.172345
  14 H     1.0000    0     1.008   10.054397    1.999292   -4.060077
  15 H     1.0000    0     1.008    6.806760    1.216513   -3.944841
  16 C     6.0000    0    12.011    8.796613    0.461184   -0.648289
  17 N     7.0000    0    14.007    8.865930    0.314809    1.551006

--------------------------------
INTERNAL COORDINATES (ANGSTROEM)
--------------------------------
 C      0   0   0     0.000000000000     0.00000000     0.00000000
 H      1   0   0     1.093933198555     0.00000000     0.00000000
 H      1   2   0     1.093282147526   109.94454854     0.00000000
 H      1   2   3     1.093626499085   109.97255479   120.16233711
 C      1   2   3     1.444407769157   109.47980118   239.95736056
 N      5   1   2     1.167320590688   179.82285150   289.71491216
 C      2   1   3     3.341813951120   110.11994620    44.92962065
 H      7   2   1     1.093780709391   153.43858544   233.86849527
 H      7   2   1     1.094196643719    63.95385458   314.83385034
 H      7   2   1     1.093716960672    54.75192456   172.28167432
 C      7   2   1     1.445278160729    96.87361750    63.18709963
 N     11   7   2     1.166768071622   179.69652586   183.27111288
 C      9   7   2     3.433745315441   105.63381161   163.20144690
 H     13   9   7     1.093876614994    70.72314739    44.62370906
 H     13   9   7     1.091635186839   151.25176411   141.29093429
 H     13   9   7     1.093570914402    49.46796944   186.10745565
 C     13   9   7     1.444763223091    95.82254614   296.18243263
 N     17  13   9     1.166968400178   179.19159853    36.54643997

---------------------------
INTERNAL COORDINATES (A.U.)
---------------------------
 C      0   0   0     0.000000000000     0.00000000     0.00000000
 H      1   0   0     2.067234154073     0.00000000     0.00000000
 H      1   2   0     2.066003845930   109.94454854     0.00000000
 H      1   2   3     2.066654576069   109.97255479   120.16233711
 C      1   2   3     2.729535109414   109.47980118   239.95736056
 N      5   1   2     2.205916226887   179.82285150   289.71491216
 C      2   1   3     6.315113158134   110.11994620    44.92962065
 H      7   2   1     2.066945991315   153.43858544   233.86849527
 H      7   2   1     2.067731993284    63.95385458   314.83385034
 H      7   2   1     2.066825523694    54.75192456   172.28167432
 C      7   2   1     2.731179911116    96.87361750    63.18709963
 N     11   7   2     2.204872117169   179.69652586   183.27111288
 C      9   7   2     6.488838259818   105.63381161   163.20144690
 H     13   9   7     2.067127226639    70.72314739    44.62370906
 H     13   9   7     2.062891541279   151.25176411   141.29093429
 H     13   9   7     2.066549536241    49.46796944   186.10745565
 C     13   9   7     2.730206820004    95.82254614   296.18243263
 N     17  13   9     2.205250683277   179.19159853    36.54643997

---------------------
BASIS SET INFORMATION
---------------------
There are 3 groups of distinct atoms

 Group   1 Type C   : 11s6p2d1f contracted to 5s3p2d1f pattern {62111/411/11/1}
 Group   2 Type H   : 5s1p contracted to 3s1p pattern {311/1}
 Group   3 Type N   : 11s6p2d1f contracted to 5s3p2d1f pattern {62111/411/11/1}

Atom   0C    basis set group =>   1
Atom   1H    basis set group =>   2
Atom   2H    basis set group =>   2
Atom   3H    basis set group =>   2
Atom   4C    basis set group =>   1
Atom   5N    basis set group =>   3
Atom   6C    basis set group =>   1
Atom   7H    basis set group =>   2
Atom   8H    basis set group =>   2
Atom   9H    basis set group =>   2
Atom  10C    basis set group =>   1
Atom  11N    basis set group =>   3
Atom  12C    basis set group =>   1
Atom  13H    basis set group =>   2
Atom  14H    basis set group =>   2
Atom  15H    basis set group =>   2
Atom  16C    basis set group =>   1
Atom  17N    basis set group =>   3


           ************************************************************
           *        Program running with 6 parallel MPI-processes     *
           *              working on a common directory               *
           ************************************************************
------------------------------------------------------------------------------
                           ORCA GTO INTEGRAL CALCULATION
------------------------------------------------------------------------------

                         BASIS SET STATISTICS AND STARTUP INFO

 # of primitive gaussian shells          ...  234
 # of primitive gaussian functions       ...  486
 # of contracted shells                  ...  135
 # of contracted basis functions         ...  333
 Highest angular momentum                ...    3
 Maximum contraction depth               ...    6
 Integral package used                   ... LIBINT
 Integral threshhold            Thresh   ...  2.500e-11
 Primitive cut-off              TCut     ...  2.500e-12


------------------------------ INTEGRAL EVALUATION ----------------------------


 * One electron integrals 
 Pre-screening matrix                    ... done
 Shell pair data                         ... done (   0.002 sec)



           ************************************************************
           *        Program running with 6 parallel MPI-processes     *
           *              working on a common directory               *
           ************************************************************
-------------------------------------------------------------------------------
                                 ORCA SCF
-------------------------------------------------------------------------------

------------
SCF SETTINGS
------------
Hamiltonian:
 Ab initio Hamiltonian  Method          .... Hartree-Fock(GTOs)


General Settings:
 Integral files         IntName         .... 12mecn.remya.etal.2.mol4,8,10-orca.engrad-mp2.def2tzvp.frozencore
 Hartree-Fock type      HFTyp           .... RHF
 Total Charge           Charge          ....    0
 Multiplicity           Mult            ....    1
 Number of Electrons    NEL             ....   66
 Basis Dimension        Dim             ....  333
 Nuclear Repulsion      ENuc            ....    339.4544934751 Eh

Convergence Acceleration:
 DIIS                   CNVDIIS         .... on
   Start iteration      DIISMaxIt       ....    12
   Startup error        DIISStart       ....  0.200000
   # of expansion vecs  DIISMaxEq       ....     5
   Bias factor          DIISBfac        ....   1.050
   Max. coefficient     DIISMaxC        ....  10.000
 Newton-Raphson         CNVNR           .... off
 SOSCF                  CNVSOSCF        .... on
   Start iteration      SOSCFMaxIt      ....   150
   Startup grad/error   SOSCFStart      ....  0.003300
 Level Shifting         CNVShift        .... on
   Level shift para.    LevelShift      ....    0.2500
   Turn off err/grad.   ShiftErr        ....    0.0010
 Zerner damping         CNVZerner       .... off
 Static damping         CNVDamp         .... on
   Fraction old density DampFac         ....    0.7000
   Max. Damping (<1)    DampMax         ....    0.9800
   Min. Damping (>=0)   DampMin         ....    0.0000
   Turn off err/grad.   DampErr         ....    0.1000
 Fernandez-Rico         CNVRico         .... off

SCF Procedure:
 Maximum # iterations   MaxIter         ....   125
 SCF integral mode      SCFMode         .... Direct
   Integral package                     .... LIBINT
 Reset frequency        DirectResetFreq ....    20
 Integral Threshold     Thresh          ....  2.500e-11 Eh
 Primitive CutOff       TCut            ....  2.500e-12 Eh

Convergence Tolerance:
 Convergence Check Mode ConvCheckMode   .... Total+1el-Energy
 Convergence forced     ConvForced      .... 1
 Energy Change          TolE            ....  1.000e-08 Eh
 1-El. energy change                    ....  1.000e-05 Eh
 Orbital Gradient       TolG            ....  1.000e-05
 Orbital Rotation angle TolX            ....  1.000e-05
 DIIS Error             TolErr          ....  5.000e-07


Diagonalization of the overlap matrix:
Smallest eigenvalue                        ... 1.320e-04
Time for diagonalization                   ...    0.015 sec
Threshold for overlap eigenvalues          ... 1.000e-08
Number of eigenvalues below threshold      ... 0
Time for construction of square roots      ...    0.008 sec
Total time needed                          ...    0.024 sec

-------------------
DFT GRID GENERATION
-------------------

General Integration Accuracy     IntAcc      ...  4.340
Radial Grid Type                 RadialGrid  ... Gauss-Chebyshev
Angular Grid (max. acc.)         AngularGrid ... Lebedev-110
Angular grid pruning method      GridPruning ... 3 (G Style)
Weight generation scheme         WeightScheme... Becke
Basis function cutoff            BFCut       ...    1.0000e-11
Integration weight cutoff        WCut        ...    1.0000e-14
Grids for H and He will be reduced by one unit

# of grid points (after initial pruning)     ...  22188 (   0.0 sec)
# of grid points (after weights+screening)   ...  20759 (   0.0 sec)
nearest neighbour list constructed           ...    0.0 sec
Grid point re-assignment to atoms done       ...    0.0 sec
Grid point division into batches done        ...    0.0 sec
Reduced shell lists constructed in    0.0 sec

Total number of grid points                  ...    20759
Total number of batches                      ...      333
Average number of points per batch           ...       62
Average number of grid points per atom       ...     1153
Average number of shells per batch           ...    68.25 (50.55%)
Average number of basis functions per batch  ...   158.98 (47.74%)
Average number of large shells per batch     ...    49.44 (72.44%)
Average number of large basis fcns per batch ...   114.39 (71.95%)
Maximum spatial batch extension              ...  14.54, 20.93, 18.74 au
Average spatial batch extension              ...   0.60,  0.74,  0.81 au

Time for grid setup =    0.071 sec

------------------------------
INITIAL GUESS: MODEL POTENTIAL
------------------------------
Loading Hartree-Fock densities                     ... done
Calculating cut-offs                               ... done
Setting up the integral package                    ... done
Initializing the effective Hamiltonian             ... done
Starting the Coulomb interaction                   ... done (   0.0 sec)
Reading the grid                                   ... done
Mapping shells                                     ... done
Starting the XC term evaluation                    ... done (   0.0 sec)
Transforming the Hamiltonian                       ... done (   0.0 sec)
Diagonalizing the Hamiltonian                      ... done (   0.0 sec)
Back transforming the eigenvectors                 ... done (   0.0 sec)
Now organizing SCF variables                       ... done
                      ------------------
                      INITIAL GUESS DONE (   0.3 sec)
                      ------------------
--------------
SCF ITERATIONS
--------------
ITER       Energy         Delta-E        Max-DP      RMS-DP      [F,P]     Damp
               ***  Starting incremental Fock matrix formation  ***
  0   -395.3910939487   0.000000000000 0.03913761  0.00090414  0.2965136 0.7000
  1   -395.5792579833  -0.188164034630 0.02789513  0.00071719  0.1883409 0.7000
                               ***Turning on DIIS***
  2   -395.6874917833  -0.108233799923 0.01638677  0.00046391  0.1426203 0.7000
  3   -396.6170506982  -0.929558914972 0.01005146  0.00029942  0.1059335 0.7000
  4   -396.5892082881   0.027842410100 0.02604370  0.00073877  0.0745743 0.0000
  5   -395.9401528015   0.649055486583 0.00689822  0.00013293  0.0068288 0.0000
                      *** Initiating the SOSCF procedure ***
                           *** Shutting down DIIS ***
                      *** Re-Reading the Fockian *** 
                      *** Removing any level shift *** 
ITER      Energy       Delta-E        Grad      Rot      Max-DP    RMS-DP
  6   -395.92271182   0.0174409801  0.001216  0.001216  0.004563  0.000081
               *** Restarting incremental Fock matrix formation ***
  7   -395.91000689   0.0127049355  0.000393  0.000493  0.003183  0.000057
  8   -395.91002533  -0.0000184435  0.000285  0.000497  0.002571  0.000047
  9   -395.91002871  -0.0000033759  0.000133  0.000164  0.000866  0.000015
 10   -395.91002967  -0.0000009679  0.000012  0.000010  0.000079  0.000001
 11   -395.91002968  -0.0000000091  0.000005  0.000007  0.000023  0.000000
                  ***Gradient check signals convergence***
              ***Rediagonalizing the Fockian in SOSCF/NRSCF***

               *****************************************************
               *                     SUCCESS                       *
               *           SCF CONVERGED AFTER  12 CYCLES          *
               *****************************************************


----------------
TOTAL SCF ENERGY
----------------

Total Energy       :         -395.91002968 Eh          -10773.25961 eV

Components:
Nuclear Repulsion  :          339.45449348 Eh            9237.02637 eV
Electronic Energy  :         -735.36452316 Eh          -20010.28598 eV
One Electron Energy:        -1207.62988677 Eh          -32861.27985 eV
Two Electron Energy:          472.26536362 Eh           12850.99388 eV

Virial components:
Potential Energy   :         -791.04718319 Eh          -21525.48819 eV
Kinetic Energy     :          395.13715351 Eh           10752.22858 eV
Virial Ratio       :            2.00195597


---------------
SCF CONVERGENCE
---------------

  Last Energy change         ...    5.9913e-11  Tolerance :   1.0000e-08
  Last MAX-Density change    ...    9.3176e-06  Tolerance :   1.0000e-07
  Last RMS-Density change    ...    1.3611e-07  Tolerance :   5.0000e-09
  Last Orbital Gradient      ...    1.2253e-06  Tolerance :   1.0000e-05
  Last Orbital Rotation      ...    2.0841e-06  Tolerance :   1.0000e-05

             **** THE GBW FILE WAS UPDATED (12mecn.remya.etal.2.mol4,8,10-orca.engrad-mp2.def2tzvp.frozencore.gbw) ****
             **** DENSITY FILE WAS UPDATED (12mecn.remya.etal.2.mol4,8,10-orca.engrad-mp2.def2tzvp.frozencore.scfp) ****
             **** ENERGY FILE WAS UPDATED (12mecn.remya.etal.2.mol4,8,10-orca.engrad-mp2.def2tzvp.frozencore.en.tmp) ****
             **** THE GBW FILE WAS UPDATED (12mecn.remya.etal.2.mol4,8,10-orca.engrad-mp2.def2tzvp.frozencore.gbw) ****
             **** DENSITY FILE WAS UPDATED (12mecn.remya.etal.2.mol4,8,10-orca.engrad-mp2.def2tzvp.frozencore.scfp) ****
----------------
ORBITAL ENERGIES
----------------

  NO   OCC          E(Eh)            E(eV) 
   0   2.0000     -15.572955      -423.7617 
   1   2.0000     -15.572217      -423.7416 
   2   2.0000     -15.571352      -423.7180 
   3   2.0000     -11.295362      -307.3624 
   4   2.0000     -11.292527      -307.2853 
   5   2.0000     -11.291802      -307.2655 
   6   2.0000     -11.277452      -306.8751 
   7   2.0000     -11.276566      -306.8510 
   8   2.0000     -11.274176      -306.7859 
   9   2.0000      -1.212780       -33.0014 
  10   2.0000      -1.212215       -32.9860 
  11   2.0000      -1.210177       -32.9306 
  12   2.0000      -1.052447       -28.6385 
  13   2.0000      -1.049476       -28.5577 
  14   2.0000      -1.048073       -28.5195 
  15   2.0000      -0.707082       -19.2407 
  16   2.0000      -0.704100       -19.1595 
  17   2.0000      -0.702703       -19.1215 
  18   2.0000      -0.648742       -17.6532 
  19   2.0000      -0.646044       -17.5798 
  20   2.0000      -0.640830       -17.4379 
  21   2.0000      -0.638919       -17.3859 
  22   2.0000      -0.633099       -17.2275 
  23   2.0000      -0.632013       -17.1980 
  24   2.0000      -0.553649       -15.0655 
  25   2.0000      -0.552813       -15.0428 
  26   2.0000      -0.549519       -14.9532 
  27   2.0000      -0.463254       -12.6058 
  28   2.0000      -0.460925       -12.5424 
  29   2.0000      -0.456276       -12.4159 
  30   2.0000      -0.455707       -12.4004 
  31   2.0000      -0.448544       -12.2055 
  32   2.0000      -0.445834       -12.1318 
  33   0.0000       0.080409         2.1880 
  34   0.0000       0.120016         3.2658 
  35   0.0000       0.125162         3.4058 
  36   0.0000       0.147478         4.0131 
  37   0.0000       0.153850         4.1865 
  38   0.0000       0.169759         4.6194 
  39   0.0000       0.175191         4.7672 
  40   0.0000       0.181694         4.9441 
  41   0.0000       0.189939         5.1685 
  42   0.0000       0.191048         5.1987 
  43   0.0000       0.201077         5.4716 
  44   0.0000       0.203844         5.5469 
  45   0.0000       0.208877         5.6838 
  46   0.0000       0.224337         6.1045 
  47   0.0000       0.240005         6.5309 
  48   0.0000       0.241651         6.5756 
  49   0.0000       0.244446         6.6517 
  50   0.0000       0.265379         7.2213 
  51   0.0000       0.271691         7.3931 
  52   0.0000       0.274276         7.4634 
  53   0.0000       0.284930         7.7534 
  54   0.0000       0.290474         7.9042 
  55   0.0000       0.310416         8.4469 
  56   0.0000       0.319457         8.6929 
  57   0.0000       0.347544         9.4572 
  58   0.0000       0.359752         9.7893 
  59   0.0000       0.372267        10.1299 
  60   0.0000       0.381272        10.3750 
  61   0.0000       0.393771        10.7150 
  62   0.0000       0.403558        10.9814 
  63   0.0000       0.420630        11.4459 
  64   0.0000       0.451693        12.2912 
  65   0.0000       0.462816        12.5939 
  66   0.0000       0.472896        12.8682 
  67   0.0000       0.485873        13.2213 
  68   0.0000       0.504444        13.7266 
  69   0.0000       0.513095        13.9620 
  70   0.0000       0.519730        14.1426 
  71   0.0000       0.533457        14.5161 
  72   0.0000       0.547580        14.9004 
  73   0.0000       0.565606        15.3909 
  74   0.0000       0.576839        15.6966 
  75   0.0000       0.583151        15.8683 
  76   0.0000       0.587928        15.9983 
  77   0.0000       0.589289        16.0354 
  78   0.0000       0.597087        16.2476 
  79   0.0000       0.606928        16.5154 
  80   0.0000       0.618848        16.8397 
  81   0.0000       0.623085        16.9550 
  82   0.0000       0.624283        16.9876 
  83   0.0000       0.630638        17.1605 
  84   0.0000       0.638649        17.3785 
  85   0.0000       0.656984        17.8774 
  86   0.0000       0.686673        18.6853 
  87   0.0000       0.696279        18.9467 
  88   0.0000       0.728632        19.8271 
  89   0.0000       0.749493        20.3947 
  90   0.0000       0.761988        20.7348 
  91   0.0000       0.794180        21.6107 
  92   0.0000       0.809183        22.0190 
  93   0.0000       0.812079        22.0978 
  94   0.0000       0.814101        22.1528 
  95   0.0000       0.817137        22.2354 
  96   0.0000       0.820670        22.3316 
  97   0.0000       0.827808        22.5258 
  98   0.0000       0.835483        22.7346 
  99   0.0000       0.874409        23.7939 
 100   0.0000       0.899907        24.4877 
 101   0.0000       0.908622        24.7249 
 102   0.0000       0.919005        25.0074 
 103   0.0000       0.925395        25.1813 
 104   0.0000       0.926524        25.2120 
 105   0.0000       0.936479        25.4829 
 106   0.0000       0.957779        26.0625 
 107   0.0000       0.995677        27.0938 
 108   0.0000       1.029897        28.0249 
 109   0.0000       1.039175        28.2774 
 110   0.0000       1.059987        28.8437 
 111   0.0000       1.116213        30.3737 
 112   0.0000       1.119248        30.4563 
 113   0.0000       1.146107        31.1872 
 114   0.0000       1.162926        31.6448 
 115   0.0000       1.181796        32.1583 
 116   0.0000       1.187620        32.3168 
 117   0.0000       1.314097        35.7584 
 118   0.0000       1.323670        36.0189 
 119   0.0000       1.335091        36.3297 
 120   0.0000       1.415243        38.5107 
 121   0.0000       1.418185        38.5908 
 122   0.0000       1.423400        38.7327 
 123   0.0000       1.425918        38.8012 
 124   0.0000       1.448202        39.4076 
 125   0.0000       1.453150        39.5422 
 126   0.0000       1.459430        39.7131 
 127   0.0000       1.469888        39.9977 
 128   0.0000       1.472007        40.0553 
 129   0.0000       1.473946        40.1081 
 130   0.0000       1.476505        40.1777 
 131   0.0000       1.480420        40.2843 
 132   0.0000       1.487470        40.4761 
 133   0.0000       1.502056        40.8730 
 134   0.0000       1.505881        40.9771 
 135   0.0000       1.517619        41.2965 
 136   0.0000       1.567305        42.6485 
 137   0.0000       1.607763        43.7495 
 138   0.0000       1.696693        46.1694 
 139   0.0000       1.703512        46.3549 
 140   0.0000       1.714021        46.6409 
 141   0.0000       1.728017        47.0217 
 142   0.0000       1.734476        47.1975 
 143   0.0000       1.741412        47.3862 
 144   0.0000       1.754983        47.7555 
 145   0.0000       1.762874        47.9702 
 146   0.0000       1.767700        48.1016 
 147   0.0000       1.774365        48.2829 
 148   0.0000       1.778198        48.3872 
 149   0.0000       1.780464        48.4489 
 150   0.0000       1.807494        49.1844 
 151   0.0000       1.810150        49.2567 
 152   0.0000       1.827211        49.7209 
 153   0.0000       1.830753        49.8173 
 154   0.0000       1.888217        51.3810 
 155   0.0000       1.900088        51.7040 
 156   0.0000       1.925447        52.3941 
 157   0.0000       1.929284        52.4985 
 158   0.0000       1.941312        52.8258 
 159   0.0000       1.943456        52.8841 
 160   0.0000       1.960704        53.3535 
 161   0.0000       1.974796        53.7369 
 162   0.0000       1.981002        53.9058 
 163   0.0000       1.997465        54.3538 
 164   0.0000       2.007776        54.6344 
 165   0.0000       2.218011        60.3552 
 166   0.0000       2.222868        60.4873 
 167   0.0000       2.230142        60.6853 
 168   0.0000       2.232598        60.7521 
 169   0.0000       2.251171        61.2575 
 170   0.0000       2.255496        61.3752 
 171   0.0000       2.259711        61.4899 
 172   0.0000       2.277525        61.9746 
 173   0.0000       2.294463        62.4355 
 174   0.0000       2.396110        65.2015 
 175   0.0000       2.404971        65.4426 
 176   0.0000       2.479093        67.4595 
 177   0.0000       2.535121        68.9841 
 178   0.0000       2.541288        69.1520 
 179   0.0000       2.549579        69.3776 
 180   0.0000       2.551548        69.4311 
 181   0.0000       2.569306        69.9144 
 182   0.0000       2.589720        70.4699 
 183   0.0000       2.595871        70.6372 
 184   0.0000       2.617036        71.2132 
 185   0.0000       2.618384        71.2499 
 186   0.0000       2.623837        71.3982 
 187   0.0000       2.626066        71.4589 
 188   0.0000       2.643590        71.9357 
 189   0.0000       2.649137        72.0867 
 190   0.0000       2.671898        72.7060 
 191   0.0000       2.680696        72.9454 
 192   0.0000       2.708307        73.6968 
 193   0.0000       2.722596        74.0856 
 194   0.0000       2.725075        74.1531 
 195   0.0000       2.737672        74.4958 
 196   0.0000       2.743623        74.6578 
 197   0.0000       2.743994        74.6679 
 198   0.0000       2.763979        75.2117 
 199   0.0000       2.777928        75.5913 
 200   0.0000       2.817949        76.6803 
 201   0.0000       2.913601        79.2831 
 202   0.0000       2.914749        79.3143 
 203   0.0000       2.915716        79.3407 
 204   0.0000       2.916114        79.3515 
 205   0.0000       2.917129        79.3791 
 206   0.0000       2.922459        79.5242 
 207   0.0000       2.937681        79.9384 
 208   0.0000       2.942723        80.0756 
 209   0.0000       2.946145        80.1687 
 210   0.0000       2.952215        80.3338 
 211   0.0000       2.962796        80.6218 
 212   0.0000       2.974024        80.9273 
 213   0.0000       3.008358        81.8616 
 214   0.0000       3.020630        82.1955 
 215   0.0000       3.040062        82.7243 
 216   0.0000       3.079337        83.7930 
 217   0.0000       3.086774        83.9954 
 218   0.0000       3.090314        84.0917 
 219   0.0000       3.098974        84.3274 
 220   0.0000       3.102727        84.4295 
 221   0.0000       3.106892        84.5428 
 222   0.0000       3.207808        87.2889 
 223   0.0000       3.233475        87.9873 
 224   0.0000       3.235594        88.0450 
 225   0.0000       3.240745        88.1852 
 226   0.0000       3.252416        88.5027 
 227   0.0000       3.256019        88.6008 
 228   0.0000       3.261321        88.7451 
 229   0.0000       3.292073        89.5819 
 230   0.0000       3.310336        90.0788 
 231   0.0000       3.317003        90.2602 
 232   0.0000       3.327715        90.5517 
 233   0.0000       3.333968        90.7219 
 234   0.0000       3.338193        90.8368 
 235   0.0000       3.375951        91.8643 
 236   0.0000       3.400379        92.5290 
 237   0.0000       3.437794        93.5471 
 238   0.0000       3.442904        93.6862 
 239   0.0000       3.464538        94.2749 
 240   0.0000       3.468654        94.3869 
 241   0.0000       3.477931        94.6393 
 242   0.0000       3.486017        94.8593 
 243   0.0000       3.509743        95.5050 
 244   0.0000       3.520419        95.7955 
 245   0.0000       3.563980        96.9808 
 246   0.0000       3.624956        98.6401 
 247   0.0000       3.640936        99.0749 
 248   0.0000       3.651505        99.3625 
 249   0.0000       3.654650        99.4481 
 250   0.0000       3.659287        99.5743 
 251   0.0000       3.663815        99.6975 
 252   0.0000       3.796874       103.3182 
 253   0.0000       3.799387       103.3866 
 254   0.0000       3.800619       103.4201 
 255   0.0000       3.801746       103.4508 
 256   0.0000       3.805635       103.5566 
 257   0.0000       3.810826       103.6979 
 258   0.0000       3.923394       106.7610 
 259   0.0000       3.928288       106.8941 
 260   0.0000       3.934691       107.0684 
 261   0.0000       3.935833       107.0995 
 262   0.0000       3.939806       107.2076 
 263   0.0000       3.953702       107.5857 
 264   0.0000       3.958288       107.7105 
 265   0.0000       3.988769       108.5399 
 266   0.0000       4.005405       108.9926 
 267   0.0000       4.234881       115.2370 
 268   0.0000       4.237844       115.3176 
 269   0.0000       4.248841       115.6169 
 270   0.0000       4.252696       115.7217 
 271   0.0000       4.268655       116.1560 
 272   0.0000       4.276351       116.3654 
 273   0.0000       4.344744       118.2265 
 274   0.0000       4.345681       118.2520 
 275   0.0000       4.348347       118.3245 
 276   0.0000       4.349266       118.3495 
 277   0.0000       4.349941       118.3679 
 278   0.0000       4.352083       118.4262 
 279   0.0000       4.554286       123.9284 
 280   0.0000       4.566165       124.2517 
 281   0.0000       4.577776       124.5676 
 282   0.0000       4.725548       128.5887 
 283   0.0000       4.736674       128.8915 
 284   0.0000       4.741036       129.0101 
 285   0.0000       4.747753       129.1929 
 286   0.0000       4.789548       130.3302 
 287   0.0000       4.799189       130.5926 
 288   0.0000       4.819881       131.1556 
 289   0.0000       4.865153       132.3876 
 290   0.0000       4.892479       133.1311 
 291   0.0000       4.962244       135.0295 
 292   0.0000       4.963294       135.0581 
 293   0.0000       4.964227       135.0835 
 294   0.0000       4.965909       135.1293 
 295   0.0000       4.973436       135.3341 
 296   0.0000       4.978187       135.4634 
 297   0.0000       5.068447       137.9195 
 298   0.0000       5.068833       137.9300 
 299   0.0000       5.070417       137.9730 
 300   0.0000       5.070728       137.9815 
 301   0.0000       5.080524       138.2481 
 302   0.0000       5.085993       138.3969 
 303   0.0000       5.189035       141.2008 
 304   0.0000       5.223349       142.1345 
 305   0.0000       5.267134       143.3260 
 306   0.0000       5.555000       151.1592 
 307   0.0000       5.557177       151.2185 
 308   0.0000       5.562158       151.3540 
 309   0.0000       5.565569       151.4468 
 310   0.0000       5.595107       152.2506 
 311   0.0000       5.597108       152.3050 
 312   0.0000       6.020371       163.8226 
 313   0.0000       6.025966       163.9749 
 314   0.0000       6.037913       164.3000 
 315   0.0000       6.085590       165.5973 
 316   0.0000       6.088783       165.6842 
 317   0.0000       6.096629       165.8977 
 318   0.0000       6.102358       166.0536 
 319   0.0000       6.123522       166.6295 
 320   0.0000       6.128496       166.7649 
 321   0.0000       6.458895       175.7555 
 322   0.0000       6.467851       175.9992 
 323   0.0000       6.483726       176.4311 
 324   0.0000      23.468884       638.6208 
 325   0.0000      23.499312       639.4488 
 326   0.0000      23.564448       641.2212 
 327   0.0000      24.375073       663.2794 
 328   0.0000      24.393976       663.7938 
 329   0.0000      24.428288       664.7275 
 330   0.0000      33.392834       908.6652 
 331   0.0000      33.432006       909.7311 
 332   0.0000      33.484692       911.1648 

                    ********************************
                    * MULLIKEN POPULATION ANALYSIS *
                    ********************************

-----------------------
MULLIKEN ATOMIC CHARGES
-----------------------
   0 C :   -0.171679
   1 H :    0.145298
   2 H :    0.146403
   3 H :    0.168406
   4 C :   -0.121628
   5 N :   -0.166570
   6 C :   -0.177764
   7 H :    0.161227
   8 H :    0.133876
   9 H :    0.163811
  10 C :   -0.133661
  11 N :   -0.147822
  12 C :   -0.167292
  13 H :    0.146017
  14 H :    0.167883
  15 H :    0.142391
  16 C :   -0.125256
  17 N :   -0.163639
Sum of atomic charges:    0.0000000

--------------------------------
MULLIKEN REDUCED ORBITAL CHARGES
--------------------------------
  0 C s       :     3.145420  s :     3.145420
      pz      :     0.801381  p :     2.958998
      px      :     1.095460
      py      :     1.062157
      dz2     :     0.017977  d :     0.063779
      dxz     :     0.011444
      dyz     :     0.012596
      dx2y2   :     0.010433
      dxy     :     0.011329
      f0      :     0.001680  f :     0.003482
      f+1     :     0.000230
      f-1     :     0.000224
      f+2     :     0.000072
      f-2     :     0.000060
      f+3     :     0.000349
      f-3     :     0.000867
  1 H s       :     0.832544  s :     0.832544
      pz      :     0.005159  p :     0.022158
      px      :     0.003899
      py      :     0.013100
  2 H s       :     0.831380  s :     0.831380
      pz      :     0.004756  p :     0.022216
      px      :     0.009131
      py      :     0.008329
  3 H s       :     0.809182  s :     0.809182
      pz      :     0.004490  p :     0.022412
      px      :     0.013031
      py      :     0.004891
  4 C s       :     3.233567  s :     3.233567
      pz      :     0.959687  p :     2.758377
      px      :     0.898575
      py      :     0.900115
      dz2     :     0.027310  d :     0.112264
      dxz     :     0.041743
      dyz     :     0.042509
      dx2y2   :     0.000247
      dxy     :     0.000454
      f0      :     0.004171  f :     0.017420
      f+1     :     0.006570
      f-1     :     0.006553
      f+2     :     0.000054
      f-2     :     0.000071
      f+3     :     0.000000
      f-3     :     0.000000
  5 N s       :     3.723763  s :     3.723763
      pz      :     1.282263  p :     3.384281
      px      :     1.050305
      py      :     1.051713
      dz2     :     0.011883  d :     0.055564
      dxz     :     0.021761
      dyz     :     0.021791
      dx2y2   :     0.000064
      dxy     :     0.000066
      f0      :     0.000625  f :     0.002961
      f+1     :     0.001165
      f-1     :     0.001160
      f+2     :     0.000006
      f-2     :     0.000006
      f+3     :     0.000000
      f-3     :     0.000000
  6 C s       :     3.140761  s :     3.140761
      pz      :     0.802984  p :     2.968434
      px      :     1.101695
      py      :     1.063755
      dz2     :     0.017858  d :     0.065086
      dxz     :     0.012980
      dyz     :     0.012185
      dx2y2   :     0.010559
      dxy     :     0.011504
      f0      :     0.001684  f :     0.003483
      f+1     :     0.000238
      f-1     :     0.000219
      f+2     :     0.000077
      f-2     :     0.000072
      f+3     :     0.000392
      f-3     :     0.000801
  7 H s       :     0.816496  s :     0.816496
      pz      :     0.005065  p :     0.022277
      px      :     0.012523
      py      :     0.004689
  8 H s       :     0.844123  s :     0.844123
      pz      :     0.004882  p :     0.022001
      px      :     0.004110
      py      :     0.013009
  9 H s       :     0.813898  s :     0.813898
      pz      :     0.004465  p :     0.022291
      px      :     0.009570
      py      :     0.008257
 10 C s       :     3.238218  s :     3.238218
      pz      :     0.951575  p :     2.766923
      px      :     0.907500
      py      :     0.907849
      dz2     :     0.027862  d :     0.111064
      dxz     :     0.040849
      dyz     :     0.041596
      dx2y2   :     0.000183
      dxy     :     0.000573
      f0      :     0.004199  f :     0.017456
      f+1     :     0.006558
      f-1     :     0.006554
      f+2     :     0.000057
      f-2     :     0.000087
      f+3     :     0.000000
      f-3     :     0.000001
 11 N s       :     3.728727  s :     3.728727
      pz      :     1.279786  p :     3.360315
      px      :     1.039647
      py      :     1.040883
      dz2     :     0.011959  d :     0.055819
      dxz     :     0.021839
      dyz     :     0.021876
      dx2y2   :     0.000067
      dxy     :     0.000079
      f0      :     0.000625  f :     0.002961
      f+1     :     0.001160
      f-1     :     0.001160
      f+2     :     0.000008
      f-2     :     0.000008
      f+3     :     0.000000
      f-3     :     0.000000
 12 C s       :     3.140017  s :     3.140017
      pz      :     0.803005  p :     2.959977
      px      :     1.080006
      py      :     1.076967
      dz2     :     0.017834  d :     0.063816
      dxz     :     0.011009
      dyz     :     0.013297
      dx2y2   :     0.010385
      dxy     :     0.011291
      f0      :     0.001674  f :     0.003482
      f+1     :     0.000233
      f-1     :     0.000231
      f+2     :     0.000058
      f-2     :     0.000089
      f+3     :     0.000507
      f-3     :     0.000690
 13 H s       :     0.831805  s :     0.831805
      pz      :     0.005284  p :     0.022178
      px      :     0.004125
      py      :     0.012768
 14 H s       :     0.809633  s :     0.809633
      pz      :     0.004815  p :     0.022484
      px      :     0.008687
      py      :     0.008982
 15 H s       :     0.835403  s :     0.835403
      pz      :     0.004416  p :     0.022206
      px      :     0.013064
      py      :     0.004727
 16 C s       :     3.234322  s :     3.234322
      pz      :     0.960614  p :     2.761466
      px      :     0.900541
      py      :     0.900311
      dz2     :     0.027281  d :     0.112049
      dxz     :     0.041754
      dyz     :     0.042031
      dx2y2   :     0.000386
      dxy     :     0.000597
      f0      :     0.004225  f :     0.017419
      f+1     :     0.006488
      f-1     :     0.006482
      f+2     :     0.000108
      f-2     :     0.000115
      f+3     :     0.000001
      f-3     :     0.000001
 17 N s       :     3.723445  s :     3.723445
      pz      :     1.281203  p :     3.381613
      px      :     1.050708
      py      :     1.049702
      dz2     :     0.011970  d :     0.055619
      dxz     :     0.021736
      dyz     :     0.021651
      dx2y2   :     0.000128
      dxy     :     0.000133
      f0      :     0.000635  f :     0.002963
      f+1     :     0.001155
      f-1     :     0.001142
      f+2     :     0.000016
      f-2     :     0.000015
      f+3     :     0.000000
      f-3     :     0.000000


                     *******************************
                     * LOEWDIN POPULATION ANALYSIS *
                     *******************************

----------------------
LOEWDIN ATOMIC CHARGES
----------------------
   0 C :   -0.250251
   1 H :    0.139475
   2 H :    0.139811
   3 H :    0.145749
   4 C :   -0.207770
   5 N :    0.033011
   6 C :   -0.254320
   7 H :    0.142317
   8 H :    0.135157
   9 H :    0.142470
  10 C :   -0.213290
  11 N :    0.047576
  12 C :   -0.250317
  13 H :    0.140363
  14 H :    0.144168
  15 H :    0.139409
  16 C :   -0.208197
  17 N :    0.034638

-------------------------------
LOEWDIN REDUCED ORBITAL CHARGES
-------------------------------
  0 C s       :     2.813377  s :     2.813377
      pz      :     1.031242  p :     3.144955
      px      :     1.060846
      py      :     1.052867
      dz2     :     0.076841  d :     0.266199
      dxz     :     0.060300
      dyz     :     0.066290
      dx2y2   :     0.029704
      dxy     :     0.033063
      f0      :     0.007270  f :     0.025720
      f+1     :     0.005618
      f-1     :     0.005100
      f+2     :     0.002284
      f-2     :     0.002122
      f+3     :     0.000956
      f-3     :     0.002369
  1 H s       :     0.800290  s :     0.800290
      pz      :     0.013313  p :     0.060236
      px      :     0.012831
      py      :     0.034091
  2 H s       :     0.799895  s :     0.799895
      pz      :     0.012548  p :     0.060294
      px      :     0.024991
      py      :     0.022754
  3 H s       :     0.793575  s :     0.793575
      pz      :     0.012086  p :     0.060676
      px      :     0.033730
      py      :     0.014860
  4 C s       :     2.836779  s :     2.836779
      pz      :     1.189077  p :     2.866658
      px      :     0.838773
      py      :     0.838808
      dz2     :     0.155384  d :     0.445786
      dxz     :     0.144611
      dyz     :     0.144581
      dx2y2   :     0.000386
      dxy     :     0.000823
      f0      :     0.023142  f :     0.058547
      f+1     :     0.017519
      f-1     :     0.017602
      f+2     :     0.000120
      f-2     :     0.000161
      f+3     :     0.000001
      f-3     :     0.000002
  5 N s       :     3.314842  s :     3.314842
      pz      :     1.493317  p :     3.524250
      px      :     1.015048
      py      :     1.015885
      dz2     :     0.046019  d :     0.113394
      dxz     :     0.033633
      dyz     :     0.033562
      dx2y2   :     0.000088
      dxy     :     0.000093
      f0      :     0.006192  f :     0.014503
      f+1     :     0.004140
      f-1     :     0.004129
      f+2     :     0.000022
      f-2     :     0.000020
      f+3     :     0.000000
      f-3     :     0.000000
  6 C s       :     2.812589  s :     2.812589
      pz      :     1.033718  p :     3.147335
      px      :     1.060363
      py      :     1.053254
      dz2     :     0.075887  d :     0.268592
      dxz     :     0.065737
      dyz     :     0.063964
      dx2y2   :     0.029985
      dxy     :     0.033020
      f0      :     0.007206  f :     0.025804
      f+1     :     0.005352
      f-1     :     0.005432
      f+2     :     0.002495
      f-2     :     0.002005
      f+3     :     0.001089
      f-3     :     0.002225
  7 H s       :     0.797312  s :     0.797312
      pz      :     0.013238  p :     0.060371
      px      :     0.032672
      py      :     0.014461
  8 H s       :     0.804920  s :     0.804920
      pz      :     0.012776  p :     0.059923
      px      :     0.013299
      py      :     0.033848
  9 H s       :     0.797128  s :     0.797128
      pz      :     0.012058  p :     0.060402
      px      :     0.025702
      py      :     0.022642
 10 C s       :     2.835773  s :     2.835773
      pz      :     1.187282  p :     2.876207
      px      :     0.845133
      py      :     0.843791
      dz2     :     0.156156  d :     0.442874
      dxz     :     0.143038
      dyz     :     0.142278
      dx2y2   :     0.000280
      dxy     :     0.001122
      f0      :     0.023214  f :     0.058437
      f+1     :     0.017507
      f-1     :     0.017378
      f+2     :     0.000124
      f-2     :     0.000210
      f+3     :     0.000001
      f-3     :     0.000002
 11 N s       :     3.313946  s :     3.313946
      pz      :     1.492765  p :     3.509005
      px      :     1.008099
      py      :     1.008142
      dz2     :     0.046099  d :     0.114810
      dxz     :     0.034354
      dyz     :     0.034123
      dx2y2   :     0.000104
      dxy     :     0.000130
      f0      :     0.006199  f :     0.014662
      f+1     :     0.004228
      f-1     :     0.004177
      f+2     :     0.000031
      f-2     :     0.000028
      f+3     :     0.000000
      f-3     :     0.000000
 12 C s       :     2.812938  s :     2.812938
      pz      :     1.031018  p :     3.145293
      px      :     1.058271
      py      :     1.056004
      dz2     :     0.076490  d :     0.266396
      dxz     :     0.059231
      dyz     :     0.067956
      dx2y2   :     0.030794
      dxy     :     0.031925
      f0      :     0.007234  f :     0.025690
      f+1     :     0.005653
      f-1     :     0.004980
      f+2     :     0.002305
      f-2     :     0.002192
      f+3     :     0.001415
      f-3     :     0.001911
 13 H s       :     0.799368  s :     0.799368
      pz      :     0.013586  p :     0.060269
      px      :     0.013321
      py      :     0.033362
 14 H s       :     0.794825  s :     0.794825
      pz      :     0.012747  p :     0.061007
      px      :     0.023922
      py      :     0.024338
 15 H s       :     0.800386  s :     0.800386
      pz      :     0.011905  p :     0.060204
      px      :     0.033776
      py      :     0.014523
 16 C s       :     2.836761  s :     2.836761
      pz      :     1.187883  p :     2.867793
      px      :     0.839456
      py      :     0.840455
      dz2     :     0.155242  d :     0.445090
      dxz     :     0.143407
      dyz     :     0.144380
      dx2y2   :     0.000812
      dxy     :     0.001249
      f0      :     0.023059  f :     0.058553
      f+1     :     0.017355
      f-1     :     0.017586
      f+2     :     0.000267
      f-2     :     0.000282
      f+3     :     0.000002
      f-3     :     0.000002
 17 N s       :     3.314576  s :     3.314576
      pz      :     1.491921  p :     3.522651
      px      :     1.015174
      py      :     1.015556
      dz2     :     0.045889  d :     0.113597
      dxz     :     0.033574
      dyz     :     0.033732
      dx2y2   :     0.000193
      dxy     :     0.000208
      f0      :     0.006159  f :     0.014539
      f+1     :     0.004112
      f-1     :     0.004155
      f+2     :     0.000057
      f-2     :     0.000055
      f+3     :     0.000000
      f-3     :     0.000000


                      *****************************
                      * MAYER POPULATION ANALYSIS *
                      *****************************

  NA   - Mulliken gross atomic population
  ZA   - Total nuclear charge
  QA   - Mulliken gross atomic charge
  VA   - Mayer's total valence
  BVA  - Mayer's bonded valence
  FA   - Mayer's free valence

  ATOM       NA         ZA         QA         VA         BVA        FA
  0 C      6.1717     6.0000    -0.1717     3.8172     3.8172     0.0000
  1 H      0.8547     1.0000     0.1453     0.9613     0.9613     0.0000
  2 H      0.8536     1.0000     0.1464     0.9626     0.9626     0.0000
  3 H      0.8316     1.0000     0.1684     0.9605     0.9605     0.0000
  4 C      6.1216     6.0000    -0.1216     3.9030     3.9030     0.0000
  5 N      7.1666     7.0000    -0.1666     3.0309     3.0309    -0.0000
  6 C      6.1778     6.0000    -0.1778     3.8249     3.8249    -0.0000
  7 H      0.8388     1.0000     0.1612     0.9616     0.9616    -0.0000
  8 H      0.8661     1.0000     0.1339     0.9600     0.9600    -0.0000
  9 H      0.8362     1.0000     0.1638     0.9604     0.9604    -0.0000
 10 C      6.1337     6.0000    -0.1337     3.8823     3.8823    -0.0000
 11 N      7.1478     7.0000    -0.1478     3.0213     3.0213     0.0000
 12 C      6.1673     6.0000    -0.1673     3.8193     3.8193     0.0000
 13 H      0.8540     1.0000     0.1460     0.9626     0.9626     0.0000
 14 H      0.8321     1.0000     0.1679     0.9607     0.9607     0.0000
 15 H      0.8576     1.0000     0.1424     0.9632     0.9632     0.0000
 16 C      6.1253     6.0000    -0.1253     3.9068     3.9068    -0.0000
 17 N      7.1636     7.0000    -0.1636     3.0301     3.0301    -0.0000

  Mayer bond orders larger than 0.100000
B(  0-C ,  1-H ) :   0.9673 B(  0-C ,  2-H ) :   0.9726 B(  0-C ,  3-H ) :   0.9574 
B(  0-C ,  4-C ) :   0.9250 B(  4-C ,  5-N ) :   3.0062 B(  6-C ,  7-H ) :   0.9648 
B(  6-C ,  8-H ) :   0.9736 B(  6-C ,  9-H ) :   0.9646 B(  6-C , 10-C ) :   0.9211 
B( 10-C , 11-N ) :   2.9971 B( 12-C , 13-H ) :   0.9680 B( 12-C , 14-H ) :   0.9574 
B( 12-C , 15-H ) :   0.9726 B( 12-C , 16-C ) :   0.9271 B( 16-C , 17-N ) :   3.0060 


-------
TIMINGS
-------

Total SCF time: 0 days 0 hours 0 min 40 sec 

Total time                  ....      40.098 sec
Sum of individual times     ....      39.790 sec  ( 99.2%)

Fock matrix formation       ....      39.230 sec  ( 97.8%)
Diagonalization             ....       0.139 sec  (  0.3%)
Density matrix formation    ....       0.014 sec  (  0.0%)
Population analysis         ....       0.024 sec  (  0.1%)
Initial guess               ....       0.185 sec  (  0.5%)
Orbital Transformation      ....       0.000 sec  (  0.0%)
Orbital Orthonormalization  ....       0.000 sec  (  0.0%)
DIIS solution               ....       0.055 sec  (  0.1%)
SOSCF solution              ....       0.072 sec  (  0.2%)


           ************************************************************
           *        Program running with 6 parallel MPI-processes     *
           *              working on a common directory               *
           ************************************************************

------------------------------------------------------------------------------
                                ORCA  MP2 
------------------------------------------------------------------------------

Freezing NCore=18 chemical core electrons
MP2 will be done in the AO integral direct mode
The Q1-step will be done using symmetric double matrices
Dimension of the basis                    ...  333
Memory devoted for MP2                    ... 8000 MB   
Memory needed for all in one shot         ...  566 MB
Number of MOs that can be treated together...   55      
MP2 density construction                  ... relaxed
The MP2 gradient is requested => amplitudes will be stored on disk
Total number of MOs              ...   24
Number of MOs treated per batch  ...    4 
Number of batches necessary      ...    1 
OPERATORS   0/  0 PASS   0
-----------------------------------------------
 MP2 CORRELATION ENERGY   :     -1.534162584 Eh
-----------------------------------------------


---------------------
MP2 DENSITY FORMATION
---------------------

Completing the external part of the density      ... done
Storing the unrelaxed density                    ... done

Calculating G(D)                                 ... done
Completing the Lagrangian                        ... done
Solving the Z-vector equations                   ... 

------------------------------------------------------------------------------
                           ORCA CP-SCF CALCULATION
------------------------------------------------------------------------------

Input orbitals are from        ... 12mecn.remya.etal.2.mol4,8,10-orca.engrad-mp2.def2tzvp.frozencore.gbw
Input Perturbation             ... 12mecn.remya.etal.2.mol4,8,10-orca.engrad-mp2.def2tzvp.frozencore.pin.tmp
Wavefunction output            ... 12mecn.remya.etal.2.mol4,8,10-orca.engrad-mp2.def2tzvp.frozencore.pout.tmp
Perturbation mode              ... Real perturbation (singlet)
Solver                         ... POPLE
Max. number of iterations      ... 128
Convergence tolerance          ... 1.000e-08
Integral handling              ... Direct
Number of perturbations        ... 1
Number of operators            ... 1
Orbital ranges used for CP-SCF:
 Operator 0:  Orbitals   0... 32  to  33...332
Variables per vector in CP-SCF ... 9900
Number of vectors sought       ... 1
     CP-SCF ITERATION   0: 
     CP-SCF ITERATION   1:      0.001509025257
     CP-SCF ITERATION   2:      0.000308425572
     CP-SCF ITERATION   3:      0.000006503259
     CP-SCF ITERATION   4:      0.000000517870
     CP-SCF ITERATION   5:      0.000000109997
     CP-SCF ITERATION   6:      0.000000014352
     CP-SCF ITERATION   7:      0.000000003061
                                                 ... done
Finalizing the relaxed density                   ... done
Transforming P to the AO basis                   ... done
Storing the relaxed density                      ... done

------------------------------------
ENERGY WEIGHTED DENSITY FINALIZATION
------------------------------------

Gathering the parts of the W-matrix              ...                                                      done
Forming the Z-density                            ... done
Transforming Z to the AO basis                   ... done
Calculating G(Z)                                 ... done
Finalizing the W-matrix                          ...                                                      done
Transforming W to the AO basis and storing       ... done

                *********************************************
                * UNRELAXED MP2 DENSITY POPULATION ANALYSIS *
                *********************************************

------------------------------------------------------------------------------
                           ORCA POPULATION ANALYSIS
------------------------------------------------------------------------------
Input electron density              ... 12mecn.remya.etal.2.mol4,8,10-orca.engrad-mp2.def2tzvp.frozencore.pmp2ur
BaseName (.gbw .S,...)              ... 12mecn.remya.etal.2.mol4,8,10-orca.engrad-mp2.def2tzvp.frozencore

                    ********************************
                    * MULLIKEN POPULATION ANALYSIS *
                    ********************************

-----------------------
MULLIKEN ATOMIC CHARGES
-----------------------
   0 C :   -0.185474
   1 H :    0.147946
   2 H :    0.149136
   3 H :    0.171119
   4 C :   -0.129475
   5 N :   -0.153000
   6 C :   -0.191910
   7 H :    0.164065
   8 H :    0.136541
   9 H :    0.166659
  10 C :   -0.141077
  11 N :   -0.134658
  12 C :   -0.181025
  13 H :    0.148672
  14 H :    0.170601
  15 H :    0.145104
  16 C :   -0.133051
  17 N :   -0.150174
Sum of atomic charges:   -0.0000000

--------------------------------
MULLIKEN REDUCED ORBITAL CHARGES
--------------------------------
  0 C s       :     3.143958  s :     3.143958
      pz      :     0.799936  p :     2.944742
      px      :     1.089092
      py      :     1.055714
      dz2     :     0.020476  d :     0.089426
      dxz     :     0.017627
      dyz     :     0.018615
      dx2y2   :     0.015939
      dxy     :     0.016768
      f0      :     0.002081  f :     0.007347
      f+1     :     0.000895
      f-1     :     0.000896
      f+2     :     0.000610
      f-2     :     0.000602
      f+3     :     0.000898
      f-3     :     0.001365
  1 H s       :     0.827010  s :     0.827010
      pz      :     0.006165  p :     0.025044
      px      :     0.004967
      py      :     0.013912
  2 H s       :     0.825764  s :     0.825764
      pz      :     0.005773  p :     0.025100
      px      :     0.010062
      py      :     0.009266
  3 H s       :     0.803664  s :     0.803664
      pz      :     0.005495  p :     0.025216
      px      :     0.013821
      py      :     0.005901
  4 C s       :     3.233358  s :     3.233358
      pz      :     0.950791  p :     2.747412
      px      :     0.897507
      py      :     0.899114
      dz2     :     0.029800  d :     0.128307
      dxz     :     0.043956
      dyz     :     0.044704
      dx2y2   :     0.004821
      dxy     :     0.005026
      f0      :     0.004633  f :     0.020399
      f+1     :     0.007014
      f-1     :     0.006997
      f+2     :     0.000609
      f-2     :     0.000626
      f+3     :     0.000260
      f-3     :     0.000260
  5 N s       :     3.710764  s :     3.710764
      pz      :     1.269917  p :     3.359343
      px      :     1.044020
      py      :     1.045406
      dz2     :     0.016027  d :     0.077246
      dxz     :     0.025695
      dyz     :     0.025732
      dx2y2   :     0.004894
      dxy     :     0.004898
      f0      :     0.001051  f :     0.005646
      f+1     :     0.001606
      f-1     :     0.001602
      f+2     :     0.000419
      f-2     :     0.000419
      f+3     :     0.000275
      f-3     :     0.000275
  6 C s       :     3.139417  s :     3.139417
      pz      :     0.801355  p :     2.954291
      px      :     1.095534
      py      :     1.057402
      dz2     :     0.020365  d :     0.090859
      dxz     :     0.019126
      dyz     :     0.018300
      dx2y2   :     0.016046
      dxy     :     0.017022
      f0      :     0.002085  f :     0.007343
      f+1     :     0.000908
      f-1     :     0.000887
      f+2     :     0.000615
      f-2     :     0.000615
      f+3     :     0.000934
      f-3     :     0.001300
  7 H s       :     0.810803  s :     0.810803
      pz      :     0.006068  p :     0.025132
      px      :     0.013345
      py      :     0.005720
  8 H s       :     0.838500  s :     0.838500
      pz      :     0.005916  p :     0.024959
      px      :     0.005194
      py      :     0.013849
  9 H s       :     0.808199  s :     0.808199
      pz      :     0.005483  p :     0.025142
      px      :     0.010473
      py      :     0.009186
 10 C s       :     3.238339  s :     3.238339
      pz      :     0.942728  p :     2.754887
      px      :     0.905782
      py      :     0.906376
      dz2     :     0.030375  d :     0.127410
      dxz     :     0.043141
      dyz     :     0.043854
      dx2y2   :     0.004830
      dxy     :     0.005210
      f0      :     0.004659  f :     0.020440
      f+1     :     0.007003
      f-1     :     0.006999
      f+2     :     0.000612
      f-2     :     0.000641
      f+3     :     0.000263
      f-3     :     0.000263
 11 N s       :     3.715486  s :     3.715486
      pz      :     1.267426  p :     3.336171
      px      :     1.033775
      py      :     1.034971
      dz2     :     0.016076  d :     0.077363
      dxz     :     0.025733
      dyz     :     0.025771
      dx2y2   :     0.004882
      dxy     :     0.004900
      f0      :     0.001050  f :     0.005637
      f+1     :     0.001598
      f-1     :     0.001600
      f+2     :     0.000421
      f-2     :     0.000421
      f+3     :     0.000274
      f-3     :     0.000274
 12 C s       :     3.138520  s :     3.138520
      pz      :     0.801526  p :     2.945690
      px      :     1.073582
      py      :     1.070582
      dz2     :     0.020364  d :     0.089469
      dxz     :     0.017162
      dyz     :     0.019323
      dx2y2   :     0.015814
      dxy     :     0.016806
      f0      :     0.002077  f :     0.007346
      f+1     :     0.000894
      f-1     :     0.000903
      f+2     :     0.000599
      f-2     :     0.000632
      f+3     :     0.001039
      f-3     :     0.001203
 13 H s       :     0.826273  s :     0.826273
      pz      :     0.006283  p :     0.025056
      px      :     0.005179
      py      :     0.013594
 14 H s       :     0.804109  s :     0.804109
      pz      :     0.005812  p :     0.025290
      px      :     0.009595
      py      :     0.009883
 15 H s       :     0.829794  s :     0.829794
      pz      :     0.005446  p :     0.025101
      px      :     0.013889
      py      :     0.005766
 16 C s       :     3.234177  s :     3.234177
      pz      :     0.951732  p :     2.750366
      px      :     0.899419
      py      :     0.899215
      dz2     :     0.029773  d :     0.128110
      dxz     :     0.043955
      dyz     :     0.044261
      dx2y2   :     0.004963
      dxy     :     0.005158
      f0      :     0.004686  f :     0.020398
      f+1     :     0.006932
      f-1     :     0.006928
      f+2     :     0.000661
      f-2     :     0.000667
      f+3     :     0.000262
      f-3     :     0.000262
 17 N s       :     3.710456  s :     3.710456
      pz      :     1.268877  p :     3.356780
      px      :     1.044424
      py      :     1.043479
      dz2     :     0.016109  d :     0.077289
      dxz     :     0.025673
      dyz     :     0.025588
      dx2y2   :     0.004955
      dxy     :     0.004963
      f0      :     0.001062  f :     0.005648
      f+1     :     0.001596
      f-1     :     0.001582
      f+2     :     0.000428
      f-2     :     0.000428
      f+3     :     0.000276
      f-3     :     0.000276


                     *******************************
                     * LOEWDIN POPULATION ANALYSIS *
                     *******************************

----------------------
LOEWDIN ATOMIC CHARGES
----------------------
   0 C :   -0.258447
   1 H :    0.141110
   2 H :    0.141443
   3 H :    0.147443
   4 C :   -0.212523
   5 N :    0.041005
   6 C :   -0.262587
   7 H :    0.143993
   8 H :    0.136733
   9 H :    0.144155
  10 C :   -0.217771
  11 N :    0.055373
  12 C :   -0.258503
  13 H :    0.142003
  14 H :    0.145875
  15 H :    0.141023
  16 C :   -0.212913
  17 N :    0.042590

-------------------------------
LOEWDIN REDUCED ORBITAL CHARGES
-------------------------------
  0 C s       :     2.811603  s :     2.811603
      pz      :     1.022647  p :     3.120419
      px      :     1.052855
      py      :     1.044917
      dz2     :     0.082121  d :     0.294664
      dxz     :     0.066163
      dyz     :     0.072112
      dx2y2   :     0.035460
      dxy     :     0.038808
      f0      :     0.008390  f :     0.031761
      f+1     :     0.006685
      f-1     :     0.006161
      f+2     :     0.002959
      f-2     :     0.002796
      f+3     :     0.001638
      f-3     :     0.003132
  1 H s       :     0.793799  s :     0.793799
      pz      :     0.014779  p :     0.065091
      px      :     0.014084
      py      :     0.036227
  2 H s       :     0.793400  s :     0.793400
      pz      :     0.013975  p :     0.065157
      px      :     0.026776
      py      :     0.024407
  3 H s       :     0.787143  s :     0.787143
      pz      :     0.013464  p :     0.065415
      px      :     0.035786
      py      :     0.016165
  4 C s       :     2.833580  s :     2.833580
      pz      :     1.176502  p :     2.846778
      px      :     0.835127
      py      :     0.835149
      dz2     :     0.162784  d :     0.465844
      dxz     :     0.146365
      dyz     :     0.146353
      dx2y2   :     0.004959
      dxy     :     0.005383
      f0      :     0.024756  f :     0.066322
      f+1     :     0.019666
      f-1     :     0.019745
      f+2     :     0.000794
      f-2     :     0.000837
      f+3     :     0.000261
      f-3     :     0.000263
  5 N s       :     3.306915  s :     3.306915
      pz      :     1.477355  p :     3.490493
      px      :     1.006143
      py      :     1.006995
      dz2     :     0.052816  d :     0.142672
      dxz     :     0.040105
      dyz     :     0.040033
      dx2y2   :     0.004856
      dxy     :     0.004862
      f0      :     0.007263  f :     0.018915
      f+1     :     0.005100
      f-1     :     0.005089
      f+2     :     0.000457
      f-2     :     0.000456
      f+3     :     0.000275
      f-3     :     0.000275
  6 C s       :     2.810846  s :     2.810846
      pz      :     1.025067  p :     3.122687
      px      :     1.052364
      py      :     1.045256
      dz2     :     0.081226  d :     0.297199
      dxz     :     0.071599
      dyz     :     0.069794
      dx2y2   :     0.035753
      dxy     :     0.038827
      f0      :     0.008328  f :     0.031856
      f+1     :     0.006417
      f-1     :     0.006494
      f+2     :     0.003177
      f-2     :     0.002679
      f+3     :     0.001779
      f-3     :     0.002981
  7 H s       :     0.790809  s :     0.790809
      pz      :     0.014695  p :     0.065198
      px      :     0.034743
      py      :     0.015760
  8 H s       :     0.798372  s :     0.798372
      pz      :     0.014239  p :     0.064895
      px      :     0.014593
      py      :     0.036063
  9 H s       :     0.790621  s :     0.790621
      pz      :     0.013452  p :     0.065224
      px      :     0.027503
      py      :     0.024269
 10 C s       :     2.832626  s :     2.832626
      pz      :     1.174668  p :     2.855468
      px      :     0.841046
      py      :     0.839754
      dz2     :     0.163610  d :     0.463426
      dxz     :     0.144958
      dyz     :     0.144180
      dx2y2   :     0.004928
      dxy     :     0.005751
      f0      :     0.024828  f :     0.066252
      f+1     :     0.019666
      f-1     :     0.019537
      f+2     :     0.000799
      f-2     :     0.000891
      f+3     :     0.000265
      f-3     :     0.000266
 11 N s       :     3.305955  s :     3.305955
      pz      :     1.476743  p :     3.475653
      px      :     0.999436
      py      :     0.999474
      dz2     :     0.052883  d :     0.143951
      dxz     :     0.040768
      dyz     :     0.040540
      dx2y2   :     0.004863
      dxy     :     0.004897
      f0      :     0.007270  f :     0.019067
      f+1     :     0.005185
      f-1     :     0.005133
      f+2     :     0.000467
      f-2     :     0.000464
      f+3     :     0.000274
      f-3     :     0.000274
 12 C s       :     2.811163  s :     2.811163
      pz      :     1.022428  p :     3.120757
      px      :     1.050288
      py      :     1.048041
      dz2     :     0.081774  d :     0.294854
      dxz     :     0.065078
      dyz     :     0.073789
      dx2y2   :     0.036506
      dxy     :     0.037708
      f0      :     0.008354  f :     0.031729
      f+1     :     0.006716
      f-1     :     0.006040
      f+2     :     0.002982
      f-2     :     0.002871
      f+3     :     0.002120
      f-3     :     0.002645
 13 H s       :     0.792889  s :     0.792889
      pz      :     0.015063  p :     0.065108
      px      :     0.014571
      py      :     0.035474
 14 H s       :     0.788377  s :     0.788377
      pz      :     0.014156  p :     0.065748
      px      :     0.025572
      py      :     0.026021
 15 H s       :     0.793891  s :     0.793891
      pz      :     0.013299  p :     0.065086
      px      :     0.035955
      py      :     0.015832
 16 C s       :     2.833566  s :     2.833566
      pz      :     1.175326  p :     2.847810
      px      :     0.835768
      py      :     0.836716
      dz2     :     0.162602  d :     0.465208
      dxz     :     0.145214
      dyz     :     0.146204
      dx2y2   :     0.005380
      dxy     :     0.005810
      f0      :     0.024681  f :     0.066329
      f+1     :     0.019487
      f-1     :     0.019714
      f+2     :     0.000948
      f-2     :     0.000969
      f+3     :     0.000264
      f-3     :     0.000265
 17 N s       :     3.306641  s :     3.306641
      pz      :     1.475974  p :     3.488952
      px      :     1.006292
      py      :     1.006686
      dz2     :     0.052683  d :     0.142867
      dxz     :     0.040037
      dyz     :     0.040195
      dx2y2   :     0.004965
      dxy     :     0.004987
      f0      :     0.007228  f :     0.018950
      f+1     :     0.005068
      f-1     :     0.005112
      f+2     :     0.000496
      f-2     :     0.000494
      f+3     :     0.000276
      f-3     :     0.000276


                      *****************************
                      * MAYER POPULATION ANALYSIS *
                      *****************************

  NA   - Mulliken gross atomic population
  ZA   - Total nuclear charge
  QA   - Mulliken gross atomic charge
  VA   - Mayer's total valence
  BVA  - Mayer's bonded valence
  FA   - Mayer's free valence

  ATOM       NA         ZA         QA         VA         BVA        FA
  0 C      6.1855     6.0000    -0.1855     3.9364     3.6504     0.2860
  1 H      0.8521     1.0000     0.1479     0.9692     0.9208     0.0485
  2 H      0.8509     1.0000     0.1491     0.9703     0.9222     0.0482
  3 H      0.8289     1.0000     0.1711     0.9675     0.9208     0.0467
  4 C      6.1295     6.0000    -0.1295     4.0065     3.5628     0.4438
  5 N      7.1530     7.0000    -0.1530     3.2233     2.7368     0.4864
  6 C      6.1919     6.0000    -0.1919     3.9454     3.6568     0.2886
  7 H      0.8359     1.0000     0.1641     0.9687     0.9216     0.0471
  8 H      0.8635     1.0000     0.1365     0.9684     0.9188     0.0496
  9 H      0.8333     1.0000     0.1667     0.9674     0.9205     0.0469
 10 C      6.1411     6.0000    -0.1411     3.9881     3.5404     0.4477
 11 N      7.1347     7.0000    -0.1347     3.2119     2.7252     0.4867
 12 C      6.1810     6.0000    -0.1810     3.9380     3.6524     0.2856
 13 H      0.8513     1.0000     0.1487     0.9704     0.9221     0.0483
 14 H      0.8294     1.0000     0.1706     0.9676     0.9210     0.0466
 15 H      0.8549     1.0000     0.1451     0.9711     0.9226     0.0485
 16 C      6.1331     6.0000    -0.1331     4.0104     3.5664     0.4440
 17 N      7.1502     7.0000    -0.1502     3.2224     2.7360     0.4863

  Mayer bond orders larger than 0.100000
B(  0-C ,  1-H ) :   0.9292 B(  0-C ,  2-H ) :   0.9346 B(  0-C ,  3-H ) :   0.9203 
B(  0-C ,  4-C ) :   0.8733 B(  4-C ,  5-N ) :   2.7192 B(  6-C ,  7-H ) :   0.9272 
B(  6-C ,  8-H ) :   0.9348 B(  6-C ,  9-H ) :   0.9271 B(  6-C , 10-C ) :   0.8692 
B( 10-C , 11-N ) :   2.7082 B( 12-C , 13-H ) :   0.9300 B( 12-C , 14-H ) :   0.9203 
B( 12-C , 15-H ) :   0.9344 B( 12-C , 16-C ) :   0.8754 B( 16-C , 17-N ) :   2.7189 



                *******************************************
                * RELAXED MP2 DENSITY POPULATION ANALYSIS *
                *******************************************

------------------------------------------------------------------------------
                           ORCA POPULATION ANALYSIS
------------------------------------------------------------------------------
Input electron density              ... 12mecn.remya.etal.2.mol4,8,10-orca.engrad-mp2.def2tzvp.frozencore.pmp2re
BaseName (.gbw .S,...)              ... 12mecn.remya.etal.2.mol4,8,10-orca.engrad-mp2.def2tzvp.frozencore

                    ********************************
                    * MULLIKEN POPULATION ANALYSIS *
                    ********************************

-----------------------
MULLIKEN ATOMIC CHARGES
-----------------------
   0 C :   -0.287137
   1 H :    0.163060
   2 H :    0.163597
   3 H :    0.183231
   4 C :   -0.152111
   5 N :   -0.070369
   6 C :   -0.294075
   7 H :    0.176912
   8 H :    0.153458
   9 H :    0.179274
  10 C :   -0.158293
  11 N :   -0.057727
  12 C :   -0.283265
  13 H :    0.163614
  14 H :    0.182966
  15 H :    0.160182
  16 C :   -0.155106
  17 N :   -0.068211
Sum of atomic charges:    0.0000000

--------------------------------
MULLIKEN REDUCED ORBITAL CHARGES
--------------------------------
  0 C s       :     3.182450  s :     3.182450
      pz      :     0.845318  p :     3.018782
      px      :     1.101940
      py      :     1.071524
      dz2     :     0.016230  d :     0.078814
      dxz     :     0.017861
      dyz     :     0.018517
      dx2y2   :     0.012786
      dxy     :     0.013420
      f0      :     0.001848  f :     0.007092
      f+1     :     0.000955
      f-1     :     0.000956
      f+2     :     0.000596
      f-2     :     0.000591
      f+3     :     0.000865
      f-3     :     0.001281
  1 H s       :     0.812989  s :     0.812989
      pz      :     0.006166  p :     0.023951
      px      :     0.005151
      py      :     0.012633
  2 H s       :     0.812396  s :     0.812396
      pz      :     0.005843  p :     0.024006
      px      :     0.009416
      py      :     0.008747
  3 H s       :     0.792689  s :     0.792689
      pz      :     0.005609  p :     0.024081
      px      :     0.012549
      py      :     0.005923
  4 C s       :     3.212108  s :     3.212108
      pz      :     0.983561  p :     2.817028
      px      :     0.916181
      py      :     0.917287
      dz2     :     0.025442  d :     0.103933
      dxz     :     0.034015
      dyz     :     0.034700
      dx2y2   :     0.004792
      dxy     :     0.004984
      f0      :     0.004440  f :     0.019041
      f+1     :     0.006430
      f-1     :     0.006429
      f+2     :     0.000603
      f-2     :     0.000619
      f+3     :     0.000260
      f-3     :     0.000260
  5 N s       :     3.654499  s :     3.654499
      pz      :     1.258528  p :     3.342531
      px      :     1.041249
      py      :     1.042753
      dz2     :     0.015025  d :     0.068171
      dxz     :     0.021667
      dyz     :     0.021712
      dx2y2   :     0.004882
      dxy     :     0.004885
      f0      :     0.000934  f :     0.005169
      f+1     :     0.001425
      f-1     :     0.001423
      f+2     :     0.000418
      f-2     :     0.000418
      f+3     :     0.000275
      f-3     :     0.000275
[...]
      f+1     :     0.006421
      f-1     :     0.006429
      f+2     :     0.000605
      f-2     :     0.000632
      f+3     :     0.000263
      f-3     :     0.000263
 11 N s       :     3.661478  s :     3.661478
      pz      :     1.254847  p :     3.322830
      px      :     1.033529
      py      :     1.034453
      dz2     :     0.015088  d :     0.068261
      dxz     :     0.021680
      dyz     :     0.021737
      dx2y2   :     0.004871
      dxy     :     0.004886
      f0      :     0.000935  f :     0.005158
      f+1     :     0.001416
      f-1     :     0.001420
      f+2     :     0.000420
      f-2     :     0.000419
      f+3     :     0.000274
      f-3     :     0.000274
 12 C s       :     3.177544  s :     3.177544
      pz      :     0.846629  p :     3.019783
      px      :     1.087646
      py      :     1.085508
      dz2     :     0.016135  d :     0.078847
      dxz     :     0.017440
      dyz     :     0.019104
      dx2y2   :     0.012664
      dxy     :     0.013505
      f0      :     0.001847  f :     0.007090
      f+1     :     0.000952
      f-1     :     0.000962
      f+2     :     0.000587
      f-2     :     0.000618
      f+3     :     0.000990
      f-3     :     0.001136
 13 H s       :     0.812424  s :     0.812424
      pz      :     0.006266  p :     0.023962
      px      :     0.005330
      py      :     0.012366
 14 H s       :     0.792889  s :     0.792889
      pz      :     0.005859  p :     0.024145
      px      :     0.009037
      py      :     0.009249
 15 H s       :     0.815800  s :     0.815800
      pz      :     0.005575  p :     0.024018
      px      :     0.012619
      py      :     0.005824
 16 C s       :     3.213191  s :     3.213191
      pz      :     0.984248  p :     2.819073
      px      :     0.917572
      py      :     0.917252
      dz2     :     0.025386  d :     0.103802
      dxz     :     0.034049
      dyz     :     0.034390
      dx2y2   :     0.004896
      dxy     :     0.005081
      f0      :     0.004484  f :     0.019040
      f+1     :     0.006362
      f-1     :     0.006366
      f+2     :     0.000649
      f-2     :     0.000655
      f+3     :     0.000262
      f-3     :     0.000262
 17 N s       :     3.654558  s :     3.654558
      pz      :     1.257253  p :     3.340274
      px      :     1.041642
      py      :     1.041379
      dz2     :     0.015081  d :     0.068207
      dxz     :     0.021661
      dyz     :     0.021596
      dx2y2   :     0.004930
      dxy     :     0.004939
      f0      :     0.000945  f :     0.005171
      f+1     :     0.001418
      f-1     :     0.001405
      f+2     :     0.000426
      f-2     :     0.000426
      f+3     :     0.000276
      f-3     :     0.000276


                     *******************************
                     * LOEWDIN POPULATION ANALYSIS *
                     *******************************

----------------------
LOEWDIN ATOMIC CHARGES
----------------------
   0 C :   -0.288774
   1 H :    0.148206
   2 H :    0.148472
   3 H :    0.154084
   4 C :   -0.225305
   5 N :    0.063376
   6 C :   -0.292445
   7 H :    0.150823
   8 H :    0.144200
   9 H :    0.150944
  10 C :   -0.228959
  11 N :    0.075262
  12 C :   -0.288766
  13 H :    0.149050
  14 H :    0.152501
  15 H :    0.148168
  16 C :   -0.225476
  17 N :    0.064639

-------------------------------
LOEWDIN REDUCED ORBITAL CHARGES
-------------------------------
  0 C s       :     2.816653  s :     2.816653
      pz      :     1.040120  p :     3.156881
      px      :     1.062028
      py      :     1.054733
      dz2     :     0.074750  d :     0.283291
      dxz     :     0.067670
      dyz     :     0.073219
      dx2y2   :     0.032267
      dxy     :     0.035385
      f0      :     0.007920  f :     0.031949
      f+1     :     0.007096
      f-1     :     0.006566
      f+2     :     0.002938
      f-2     :     0.002773
      f+3     :     0.001605
      f-3     :     0.003051
  1 H s       :     0.786296  s :     0.786296
      pz      :     0.015285  p :     0.065498
      px      :     0.014561
      py      :     0.035651
  2 H s       :     0.785946  s :     0.785946
      pz      :     0.014537  p :     0.065583
      px      :     0.026682
      py      :     0.024364
  3 H s       :     0.780193  s :     0.780193
      pz      :     0.014038  p :     0.065722
      px      :     0.035167
      py      :     0.016517
  4 C s       :     2.839429  s :     2.839429
      pz      :     1.167979  p :     2.868963
      px      :     0.850676
      py      :     0.850307
      dz2     :     0.165137  d :     0.450483
      dxz     :     0.137532
      dyz     :     0.137602
      dx2y2   :     0.004908
      dxy     :     0.005303
      f0      :     0.025721  f :     0.066430
      f+1     :     0.019245
      f-1     :     0.019341
      f+2     :     0.000784
      f-2     :     0.000816
      f+3     :     0.000261
      f-3     :     0.000262
  5 N s       :     3.307245  s :     3.307245
      pz      :     1.463788  p :     3.472053
      px      :     1.003643
      py      :     1.004622
      dz2     :     0.053577  d :     0.138085
      dxz     :     0.037425
      dyz     :     0.037386
      dx2y2   :     0.004846
      dxy     :     0.004851
      f0      :     0.007369  f :     0.019240
      f+1     :     0.005207
      f-1     :     0.005200
      f+2     :     0.000457
      f-2     :     0.000456
      f+3     :     0.000275
      f-3     :     0.000275
  6 C s       :     2.816038  s :     2.816038
      pz      :     1.042007  p :     3.158875
      px      :     1.061477
      py      :     1.055391
      dz2     :     0.074014  d :     0.285520
      dxz     :     0.072650
      dyz     :     0.070989
      dx2y2   :     0.032434
      dxy     :     0.035433
      f0      :     0.007876  f :     0.032012
      f+1     :     0.006800
      f-1     :     0.006888
      f+2     :     0.003150
      f-2     :     0.002656
      f+3     :     0.001740
      f-3     :     0.002902
  7 H s       :     0.783591  s :     0.783591
      pz      :     0.015206  p :     0.065585
      px      :     0.034227
      py      :     0.016153
  8 H s       :     0.790391  s :     0.790391
      pz      :     0.014793  p :     0.065409
      px      :     0.015048
      py      :     0.035568
  9 H s       :     0.783450  s :     0.783450
      pz      :     0.014036  p :     0.065606
      px      :     0.027328
      py      :     0.024242
 10 C s       :     2.838713  s :     2.838713
      pz      :     1.166274  p :     2.875169
      px      :     0.855040
      py      :     0.853855
      dz2     :     0.166061  d :     0.448643
      dxz     :     0.136405
      dyz     :     0.135649
      dx2y2   :     0.004875
      dxy     :     0.005653
      f0      :     0.025769  f :     0.066435
      f+1     :     0.019298
      f-1     :     0.019179
      f+2     :     0.000794
      f-2     :     0.000864
      f+3     :     0.000265
      f-3     :     0.000266
 11 N s       :     3.306520  s :     3.306520
      pz      :     1.462676  p :     3.459813
      px      :     0.998663
      py      :     0.998473
      dz2     :     0.053734  d :     0.139049
      dxz     :     0.037881
      dyz     :     0.037695
      dx2y2   :     0.004854
      dxy     :     0.004884
      f0      :     0.007384  f :     0.019357
      f+1     :     0.005268
      f-1     :     0.005224
      f+2     :     0.000467
      f-2     :     0.000465
      f+3     :     0.000274
      f-3     :     0.000274
 12 C s       :     2.816214  s :     2.816214
      pz      :     1.039751  p :     3.157173
      px      :     1.059957
      py      :     1.057464
      dz2     :     0.074481  d :     0.283467
      dxz     :     0.066614
      dyz     :     0.074743
      dx2y2   :     0.033190
      dxy     :     0.034439
      f0      :     0.007897  f :     0.031912
      f+1     :     0.007121
      f-1     :     0.006430
      f+2     :     0.002959
      f-2     :     0.002854
      f+3     :     0.002072
      f-3     :     0.002580
 13 H s       :     0.785444  s :     0.785444
      pz      :     0.015550  p :     0.065506
      px      :     0.015013
      py      :     0.034943
 14 H s       :     0.781436  s :     0.781436
      pz      :     0.014681  p :     0.066063
      px      :     0.025504
      py      :     0.025878
 15 H s       :     0.786300  s :     0.786300
      pz      :     0.013903  p :     0.065533
      px      :     0.035426
      py      :     0.016203
 16 C s       :     2.839445  s :     2.839445
      pz      :     1.166867  p :     2.869664
      px      :     0.851163
      py      :     0.851635
      dz2     :     0.164845  d :     0.449918
      dxz     :     0.136539
      dyz     :     0.137542
      dx2y2   :     0.005291
      dxy     :     0.005701
      f0      :     0.025620  f :     0.066449
      f+1     :     0.019097
      f-1     :     0.019322
      f+2     :     0.000935
      f-2     :     0.000946
      f+3     :     0.000264
      f-3     :     0.000265
 17 N s       :     3.306984  s :     3.306984
      pz      :     1.462376  p :     3.470859
      px      :     1.003874
      py      :     1.004608
      dz2     :     0.053427  d :     0.138247
      dxz     :     0.037369
      dyz     :     0.037536
      dx2y2   :     0.004946
      dxy     :     0.004969
      f0      :     0.007336  f :     0.019272
      f+1     :     0.005175
      f-1     :     0.005216
      f+2     :     0.000498
      f-2     :     0.000496
      f+3     :     0.000276
      f-3     :     0.000276


                      *****************************
                      * MAYER POPULATION ANALYSIS *
                      *****************************

  NA   - Mulliken gross atomic population
  ZA   - Total nuclear charge
  QA   - Mulliken gross atomic charge
  VA   - Mayer's total valence
  BVA  - Mayer's bonded valence
  FA   - Mayer's free valence

  ATOM       NA         ZA         QA         VA         BVA        FA
  0 C      6.2871     6.0000    -0.2871     3.9382     3.6533     0.2849
  1 H      0.8369     1.0000     0.1631     0.9637     0.9159     0.0478
  2 H      0.8364     1.0000     0.1636     0.9643     0.9168     0.0475
  3 H      0.8168     1.0000     0.1832     0.9615     0.9153     0.0461
  4 C      6.1521     6.0000    -0.1521     4.1252     3.6925     0.4326
  5 N      7.0704     7.0000    -0.0704     3.3348     2.8604     0.4744
  6 C      6.2941     6.0000    -0.2941     3.9451     3.6577     0.2874
  7 H      0.8231     1.0000     0.1769     0.9627     0.9162     0.0465
  8 H      0.8465     1.0000     0.1535     0.9632     0.9143     0.0488
  9 H      0.8207     1.0000     0.1793     0.9615     0.9152     0.0464
 10 C      6.1583     6.0000    -0.1583     4.1032     3.6668     0.4365
 11 N      7.0577     7.0000    -0.0577     3.3214     2.8463     0.4750
 12 C      6.2833     6.0000    -0.2833     3.9395     3.6550     0.2845
 13 H      0.8364     1.0000     0.1636     0.9647     0.9171     0.0477
 14 H      0.8170     1.0000     0.1830     0.9615     0.9154     0.0460
 15 H      0.8398     1.0000     0.1602     0.9650     0.9172     0.0479
 16 C      6.1551     6.0000    -0.1551     4.1283     3.6954     0.4329
 17 N      7.0682     7.0000    -0.0682     3.3332     2.8588     0.4744

  Mayer bond orders larger than 0.100000
B(  0-C ,  1-H ) :   0.9199 B(  0-C ,  2-H ) :   0.9242 B(  0-C ,  3-H ) :   0.9115 
B(  0-C ,  4-C ) :   0.8961 B(  4-C ,  5-N ) :   2.8246 B(  6-C ,  7-H ) :   0.9175 
B(  6-C ,  8-H ) :   0.9249 B(  6-C ,  9-H ) :   0.9174 B(  6-C , 10-C ) :   0.8912 
B( 10-C , 11-N ) :   2.8105 B( 12-C , 13-H ) :   0.9205 B( 12-C , 14-H ) :   0.9117 
B( 12-C , 15-H ) :   0.9240 B( 12-C , 16-C ) :   0.8981 B( 16-C , 17-N ) :   2.8234 



----------------------------------
MP2 DERIVATIVE INTEGRAL GENERATION
----------------------------------


Input Wavefunction Amplitudes       ... 12mecn.remya.etal.2.mol4,8,10-orca.engrad-mp2.def2tzvp.frozencore.mp2tsaa.tmp
Input Correlated Electron Density   ... 12mecn.remya.etal.2.mol4,8,10-orca.engrad-mp2.def2tzvp.frozencore.pmp2re
Input Energy Weighted Density       ... 12mecn.remya.etal.2.mol4,8,10-orca.engrad-mp2.def2tzvp.frozencore.wmp2.tmp
Input SCF Electron Density          ... 12mecn.remya.etal.2.mol4,8,10-orca.engrad-mp2.def2tzvp.frozencore.scfp

One-Electron Terms    ...
                        ... One-Electron Terms done
Prescreening matrices              ... done

Batch handling in the gradient evaluation:
Memory available                      ... 8000.0 MB
Memory per occupied orbital in Q2     ...   20.3 MB
Memory per occupied orbital in Q3     ...    0.1 MB
Total memory requirement per |i>      ...   20.4 MB
Max. Number of orbitals possible      ...    391
Number of orbitals treated per batch  ...     24
Number of batches to be done          ...      1
Batch   0: i=    9 ...    32

---------------------------------------
MP2 TOTAL ENERGY:     -397.444192267 Eh
---------------------------------------

The final MP2 gradient
  0:   0.00030076  -0.00103510   0.00594503
  1:   0.00131619  -0.00371737   0.00111850
  2:   0.00214313   0.00204062   0.00140878
  3:  -0.00299647   0.00182643   0.00189454
  4:  -0.00059168   0.00080561  -0.00736032
  5:   0.00054878  -0.00016132  -0.00303259
  6:   0.00049876  -0.00143508   0.00596733
  7:   0.00376604   0.00005090   0.00137148
  8:  -0.00067575   0.00319166   0.00084554
  9:  -0.00329716  -0.00130737   0.00147234
 10:  -0.00021809  -0.00031751  -0.00479314
 11:  -0.00012874   0.00059194  -0.00483771
 12:   0.00237879  -0.00124845   0.00620338
 13:   0.00080160  -0.00399313   0.00142282
 14:   0.00001626   0.00241547   0.00049657
 15:  -0.00225474   0.00220917   0.00159845
 16:  -0.00076246   0.00067979  -0.00589216
 17:  -0.00084523  -0.00059623  -0.00382886

-----------------------------------
NORM OF THE MP2 GRADIENT:  0.020150
-----------------------------------

-------------------------   --------------------
FINAL SINGLE POINT ENERGY      -397.444192266890
-------------------------   --------------------


                            ***************************************
                            *     ORCA property calculations      *
                            ***************************************

                                    ---------------------
                                    Active property flags
                                    ---------------------
   (+) Dipole Moment


------------------------------------------------------------------------------
                       ORCA ELECTRIC PROPERTIES CALCULATION
------------------------------------------------------------------------------

Dipole Moment Calculation                       ... on
Quadrupole Moment Calculation                   ... off
Polarizability Calculation                      ... off
GBWName                                         ... 12mecn.remya.etal.2.mol4,8,10-orca.engrad-mp2.def2tzvp.frozencore.gbw
Electron density file                           ... 12mecn.remya.etal.2.mol4,8,10-orca.engrad-mp2.def2tzvp.frozencore.scfp
The origin for moment calculation is the CENTER OF MASS  = ( 3.238249, -1.853064 -0.812523)

-------------
DIPOLE MOMENT
-------------
                                X             Y             Z
Electronic contribution:      0.34949      -0.26440       9.33205
Nuclear contribution   :     -0.51049       0.39840     -13.88970
                        -----------------------------------------
Total Dipole Moment    :     -0.16101       0.13399      -4.55765
                        -----------------------------------------
Magnitude (a.u.)       :      4.56246
Magnitude (Debye)      :     11.59686



--------------------
Rotational spectrum 
--------------------
 
Rotational constants in cm-1:     0.056109     0.017986     0.017656 
Rotational constants in MHz :  1682.090891   539.207598   529.315989 

 Dipole components along the rotational axes: 
x,y,z [a.u.] :    -0.010488    -4.549864    -0.338677 
x,y,z [Debye]:    -0.026659   -11.564836    -0.860847 

 

                         *** MP2 UNRELAXED DENSITY ***

------------------------------------------------------------------------------
                       ORCA ELECTRIC PROPERTIES CALCULATION
------------------------------------------------------------------------------

Dipole Moment Calculation                       ... on
Quadrupole Moment Calculation                   ... off
Polarizability Calculation                      ... off
GBWName                                         ... 12mecn.remya.etal.2.mol4,8,10-orca.engrad-mp2.def2tzvp.frozencore.gbw
Electron density file                           ... 12mecn.remya.etal.2.mol4,8,10-orca.engrad-mp2.def2tzvp.frozencore.pmp2ur
The origin for moment calculation is the CENTER OF MASS  = ( 3.238249, -1.853064 -0.812523)

-------------
DIPOLE MOMENT
-------------
                                X             Y             Z
Electronic contribution:      0.35314      -0.26770       9.43764
Nuclear contribution   :     -0.51049       0.39840     -13.88970
                        -----------------------------------------
Total Dipole Moment    :     -0.15736       0.13070      -4.45206
                        -----------------------------------------
Magnitude (a.u.)       :      4.45676
Magnitude (Debye)      :     11.32817



--------------------
Rotational spectrum 
--------------------
 
Rotational constants in cm-1:     0.056109     0.017986     0.017656 
Rotational constants in MHz :  1682.090891   539.207598   529.315989 

 Dipole components along the rotational axes: 
x,y,z [a.u.] :    -0.010358    -4.444435    -0.331002 
x,y,z [Debye]:    -0.026329   -11.296857    -0.841341 

 

                           *** MP2 RELAXED DENSITY ***

------------------------------------------------------------------------------
                       ORCA ELECTRIC PROPERTIES CALCULATION
------------------------------------------------------------------------------

Dipole Moment Calculation                       ... on
Quadrupole Moment Calculation                   ... off
Polarizability Calculation                      ... off
GBWName                                         ... 12mecn.remya.etal.2.mol4,8,10-orca.engrad-mp2.def2tzvp.frozencore.gbw
Electron density file                           ... 12mecn.remya.etal.2.mol4,8,10-orca.engrad-mp2.def2tzvp.frozencore.pmp2re
The origin for moment calculation is the CENTER OF MASS  = ( 3.238249, -1.853064 -0.812523)

-------------
DIPOLE MOMENT
-------------
                                X             Y             Z
Electronic contribution:      0.36172      -0.27464       9.69951
Nuclear contribution   :     -0.51049       0.39840     -13.88970
                        -----------------------------------------
Total Dipole Moment    :     -0.14877       0.12376      -4.19020
                        -----------------------------------------
Magnitude (a.u.)       :      4.19466
Magnitude (Debye)      :     10.66198



--------------------
Rotational spectrum 
--------------------
 
Rotational constants in cm-1:     0.056109     0.017986     0.017656 
Rotational constants in MHz :  1682.090891   539.207598   529.315989 

 Dipole components along the rotational axes: 
x,y,z [a.u.] :    -0.010290    -4.183128    -0.310695 
x,y,z [Debye]:    -0.026155   -10.632665    -0.789724 

 

Timings for individual modules:

Sum of individual times         ...      215.175 sec (=   3.586 min)
GTO integral calculation        ...        1.071 sec (=   0.018 min)   0.5 %
SCF iterations                  ...       40.787 sec (=   0.680 min)  19.0 %
MP2 module                      ...      173.318 sec (=   2.889 min)  80.5 %
                             ****ORCA TERMINATED NORMALLY****
TOTAL RUN TIME: 0 days 0 hours 3 minutes 36 seconds 155 msec
