
                                 *****************
                                 * O   R   C   A *
                                 *****************

           --- An Ab Initio, DFT and Semiempirical electronic structure package ---

                  #######################################################
                  #                        -***-                        #
                  #  Department of molecular theory and spectroscopy    #
                  #              Directorship: Frank Neese              #
                  # Max Planck Institute for Chemical Energy Conversion #
                  #                  D-45470 Muelheim/Ruhr              #
                  #                       Germany                       #
                  #                                                     #
                  #                  All rights reserved                #
                  #                        -***-                        #
                  #######################################################


                         Program Version 3.0.3 - RELEASE   -


 With contributions from (in alphabetic order):
   Ute Becker             : Parallelization
   Dmytro Bykov           : SCF Hessian
   Dmitry Ganyushin       : Spin-Orbit,Spin-Spin,Magnetic field MRCI
   Andreas Hansen         : Spin unrestricted coupled pair/coupled cluster methods
   Dimitrios Liakos       : Extrapolation schemes; parallel MDCI
   Robert Izsak           : Overlap fitted RIJCOSX, COSX-SCS-MP3
   Christian Kollmar      : KDIIS, OOCD, Brueckner-CCSD(T), CCSD density
   Simone Kossmann        : Meta GGA functionals, TD-DFT gradient, OOMP2, MP2 Hessian
   Taras Petrenko         : DFT Hessian,TD-DFT gradient, ASA and ECA modules, normal mode analysis, Resonance Raman, ABS, FL, XAS/XES, NRVS
   Christoph Reimann      : Effective Core Potentials
   Michael Roemelt        : Restricted open shell CIS
   Christoph Riplinger    : Improved optimizer, TS searches, QM/MM, DLPNO-CCSD
   Barbara Sandhoefer     : DKH picture change effects
   Igor Schapiro          : Molecular dynamics
   Kantharuban Sivalingam : CASSCF convergence, NEVPT2
   Boris Wezisla          : Elementary symmetry handling
   Frank Wennmohs         : Technical directorship


 We gratefully acknowledge several colleagues who have allowed us to
 interface, adapt or use parts of their codes:
   Stefan Grimme, W. Hujo, H. Kruse, T. Risthaus : VdW corrections, initial TS optimization,
                                                   DFT functionals, gCP
   Ed Valeev                                     : LibInt (2-el integral package), F12 methods
   Garnet Chan, S. Sharma, R. Olivares           : DMRG
   Ulf Ekstrom                                   : XCFun DFT Library
   Mihaly Kallay                                 : mrcc  (arbitrary order and MRCC methods)
   Andreas Klamt, Michael Diedenhofen            : otool_cosmo (COSMO solvation model)
   Frank Weinhold                                : gennbo (NPA and NBO analysis)
   Christopher J. Cramer and Donald G. Truhlar   : smd solvation model


 Your calculation uses the libint2 library for the computation of 2-el integrals
 For citations please refer to: http://libint.valeyev.net

 This ORCA versions uses:
   CBLAS   interface :  Fast vector & matrix operations
   LAPACKE interface :  Fast linear algebra routines
   SCALAPACK package :  Parallel linear algebra routines


Your calculation utilizes the basis: Ahlrichs-TZV
Cite in your paper:
H - Kr: A. Schaefer, H. Horn and R. Ahlrichs, J. Chem. Phys. 97, 2571 (1992).

The def2-TZV basis will be loaded
Cite in your paper:
 	F. Weigend, R. Ahlrichs, Phys. Chem. Chem. Phys. 2005, 7, 3297.

Your calculation utilizes the atom-pairwise dispersion correction
with the Becke-Johnson damping scheme (D3BJ)
Cite in your paper:
S.Grimme, S.Ehrlich, L.Goerigk, J Comput Chem, (2011), 32, 1456–1465 
S.Grimme, J.Antony, S.Ehrlich and H.Krieg, J.Chem.Phys., 132, (2010), 154104 
   

================================================================================
                                        WARNINGS
                       Please study these warnings very carefully!
================================================================================
Now building the actual basis set


INFO   : the flag for use of LIBINT has been found!

================================================================================
                                       INPUT FILE
================================================================================
NAME = 1_B3LYP_GasPhase_onBP86_16_waters.inp
|  1> ! B3LYP Def2-TZVP def2-TZVP/J RIJCOSX TightSCF Grid4 D3BJ
|  2> 
|  3> %pal nprocs 12 end
|  4> 
|  5> %scf
|  6>         maxiter 400
|  7> end
|  8> 
|  9> * xyz  0  1
| 10> O  3.074174	0.224032	-3.143939
| 11> H  2.385441	-0.437264	-3.574818
| 12> H  3.597188	0.590515	-3.880001
| 13> O  -2.211738	0.458902	-0.445911
| 14> H  -1.942671	-0.245188	0.235801
| 15> H  -3.036057	0.855982	-0.040719
| 16> O  -0.445410	-0.449688	-2.210867
| 17> H  -1.309619	-0.112647	-1.845262
| 18> H  0.223147	0.257841	-1.919890
| 19> O  1.335959	-1.449557	-3.989090
| 20> H  1.581789	-2.242684	-3.433272
| 21> H  0.498174	-1.126541	-3.558847
| 22> O  2.143171	-3.236612	-2.086105
| 23> H  2.529200	-4.117172	-2.246177
| 24> H  2.929081	-2.633198	-1.748469
| 25> O  -3.919254	1.553518	1.272845
| 26> H  -4.803609	1.958047	1.206631
| 27> H  -3.274530	2.314122	1.592573
| 28> O  0.476579	0.542405	2.202061
| 29> H  0.037782	0.866744	3.041554
| 30> H  0.205100	1.245444	1.520873
| 31> O  -3.088049	-0.209619	3.185250
| 32> H  -2.572536	-0.840080	2.612865
| 33> H  -3.567175	0.358509	2.516430
| 34> O  -1.304610	1.460044	3.951608
| 35> H  -2.041674	0.751588	3.724067
| 36> H  -1.334326	1.583515	4.918028
| 37> O  1.409784	1.239222	-1.335557
| 38> H  2.080385	1.141676	-2.072867
| 39> H  1.770927	0.615133	-0.620042
| 40> O  -2.190702	3.256518	2.090722
| 41> H  -1.460944	3.157982	1.420260
| 42> H  -1.834927	2.758655	2.880713
| 43> O  -1.331553	-1.232049	1.397038
| 44> H  -0.598945	-0.621986	1.748435
| 45> H  -0.832288	-1.917170	0.873104
| 46> O  -0.397588	2.226036	0.347686
| 47> H  0.314488	2.214263	-0.349384
| 48> H  -1.106962	1.601356	-0.025945
| 49> O  3.940929	-1.591722	-1.296120
| 50> H  3.532700	-1.194753	-0.479284
| 51> H  3.811875	-0.875253	-1.980545
| 52> O  2.179151	-0.544027	0.472136
| 53> H  1.834600	-0.184528	1.334980
| 54> H  1.486247	-1.240034	0.211573
| 55> O  0.335580	-2.238835	-0.411586
| 56> H  0.913229	-2.871630	-0.928989
| 57> H  -0.021512	-1.619810	-1.133549
| 58> **                         ****END OF INPUT****
================================================================================

                       ****************************
                       * Single Point Calculation *
                       ****************************

---------------------------------
CARTESIAN COORDINATES (ANGSTROEM)
---------------------------------
  O      3.074174    0.224032   -3.143939
  H      2.385441   -0.437264   -3.574818
  H      3.597188    0.590515   -3.880001
  O     -2.211738    0.458902   -0.445911
  H     -1.942671   -0.245188    0.235801
  H     -3.036057    0.855982   -0.040719
  O     -0.445410   -0.449688   -2.210867
  H     -1.309619   -0.112647   -1.845262
  H      0.223147    0.257841   -1.919890
  O      1.335959   -1.449557   -3.989090
  H      1.581789   -2.242684   -3.433272
  H      0.498174   -1.126541   -3.558847
  O      2.143171   -3.236612   -2.086105
  H      2.529200   -4.117172   -2.246177
  H      2.929081   -2.633198   -1.748469
  O     -3.919254    1.553518    1.272845
  H     -4.803609    1.958047    1.206631
  H     -3.274530    2.314122    1.592573
  O      0.476579    0.542405    2.202061
  H      0.037782    0.866744    3.041554
  H      0.205100    1.245444    1.520873
  O     -3.088049   -0.209619    3.185250
  H     -2.572536   -0.840080    2.612865
  H     -3.567175    0.358509    2.516430
  O     -1.304610    1.460044    3.951608
  H     -2.041674    0.751588    3.724067
  H     -1.334326    1.583515    4.918028
  O      1.409784    1.239222   -1.335557
  H      2.080385    1.141676   -2.072867
  H      1.770927    0.615133   -0.620042
  O     -2.190702    3.256518    2.090722
  H     -1.460944    3.157982    1.420260
  H     -1.834927    2.758655    2.880713
  O     -1.331553   -1.232049    1.397038
  H     -0.598945   -0.621986    1.748435
  H     -0.832288   -1.917170    0.873104
  O     -0.397588    2.226036    0.347686
  H      0.314488    2.214263   -0.349384
  H     -1.106962    1.601356   -0.025945
  O      3.940929   -1.591722   -1.296120
  H      3.532700   -1.194753   -0.479284
  H      3.811875   -0.875253   -1.980545
  O      2.179151   -0.544027    0.472136
  H      1.834600   -0.184528    1.334980
  H      1.486247   -1.240034    0.211573
  O      0.335580   -2.238835   -0.411586
  H      0.913229   -2.871630   -0.928989
  H     -0.021512   -1.619810   -1.133549

----------------------------
CARTESIAN COORDINATES (A.U.)
----------------------------
  NO LB      ZA    FRAG    MASS        X           Y           Z
   0 O     8.0000    0    15.999          5.809346948021230          0.423359125234646         -5.941183691754246
   1 H     1.0000    0     1.008          4.507830198627245         -0.826309208222942         -6.755426998612101
   2 H     1.0000    0     1.008          6.797700172227920          1.115911627972508         -7.332139289340590
   3 O     8.0000    0    15.999         -4.179579099986722          0.867199102308730         -0.842649670102959
   4 H     1.0000    0     1.008         -3.671116158310932         -0.463338171323884          0.445599312104765
   5 H     1.0000    0     1.008         -5.737316256974553          1.617571555566181         -0.076947758447139
   6 O     8.0000    0    15.999         -0.841702917309865         -0.849787165710780         -4.177933148524076
   7 H     1.0000    0     1.008         -2.474821249779816         -0.212871979807827         -3.487039825331796
   8 H     1.0000    0     1.008          0.421686717606126          0.487248876096389         -3.628066307254072
   9 O     8.0000    0    15.999          2.524596636147301         -2.739265745508488         -7.538287623563926
  10 H     1.0000    0     1.008          2.989148011649163         -4.238058564927049         -6.487943823260084
  11 H     1.0000    0     1.008          0.941412427040086         -2.128853968633781         -6.725246182527245
  12 O     8.0000    0    15.999          4.050006248162143         -6.116310281763131         -3.942167136603792
  13 H     1.0000    0     1.008          4.779495337913629         -7.780327526248827         -4.244659378312835
  14 H     1.0000    0     1.008          5.535160914072194         -4.976023076389172         -3.304127563651157
  15 O     8.0000    0    15.999         -7.406316709275401          2.935723564117075          2.405328460930996
  16 H     1.0000    0     1.008         -9.077505464439330          3.700172587346105          2.280202134699534
  17 H     1.0000    0     1.008         -6.187964917309156          4.373056820482114          3.009526818277370
  18 O     8.0000    0    15.999          0.900603791178056          1.024996903669557          4.161292220188765
  19 H     1.0000    0     1.008          0.071397632791813          1.637908788219441          5.747704081532719
  20 H     1.0000    0     1.008          0.387582830067249          2.353548075135419          2.874033454475216
  21 O     8.0000    0    15.999         -5.835566898129387         -0.396122502466439          6.019250168072666
  22 H     1.0000    0     1.008         -4.861388509653241         -1.587521130584565          4.937599274908152
  23 H     1.0000    0     1.008         -6.740983821770541          0.677483826545974          4.755363535183456
  24 O     8.0000    0    15.999         -2.465355611575004          2.759083303474920          7.467456908612289
  25 H     1.0000    0     1.008         -3.858204714747537          1.420295485541606          7.037466734373713
  26 H     1.0000    0     1.008         -2.521510713370608          2.992409678956311          9.293726038956464
  27 O     8.0000    0    15.999          2.664105667984038          2.341790199130161         -2.523836966241465
  28 H     1.0000    0     1.008          3.931357903117763          2.157454973670679         -3.917150942042943
  29 H     1.0000    0     1.008          3.346567033166760          1.162432905937381         -1.171709571528801
  30 O     8.0000    0    15.999         -4.139826821033553          6.153927170184966          3.950892002164107
  31 H     1.0000    0     1.008         -2.760784056995449          5.967721115852902          2.683902438962997
  32 H     1.0000    0     1.008         -3.467509505737720          5.213102447972530          5.443758640426691
  33 O     8.0000    0    15.999         -2.516270502801244         -2.328235193571544          2.640019218681077
  34 H     1.0000    0     1.008         -1.131842019281464         -1.175383199133144          3.304063312962604
  35 H     1.0000    0     1.008         -1.572796384549051         -3.622926252169806          1.649927446431180
  36 O     8.0000    0    15.999         -0.751332434133483          4.206598404249528          0.657031320598544
  37 H     1.0000    0     1.008          0.594296192404627          4.184350658474872         -0.660240075573942
  38 H     1.0000    0     1.008         -2.091855020657737          3.026124282911600         -0.049028944544587
  39 O     8.0000    0    15.999          7.447276523228145         -3.007918661337403         -2.449311836698012
  40 H     1.0000    0     1.008          6.675835513303606         -2.257755967680817         -0.905715500370313
  41 H     1.0000    0     1.008          7.203399806741071         -1.653988467892977         -3.742687645907065
  42 O     8.0000    0    15.999          4.117998594460629         -1.028062039458777          0.892207737965044
  43 H     1.0000    0     1.008          3.466891565291928         -0.348707384040221          2.522746594262192
  44 H     1.0000    0     1.008          2.808599797362059         -2.343324656750906          0.399815027332121
  45 O     8.0000    0    15.999          0.634154296021294         -4.230785009037585         -0.777784820556112
  46 H     1.0000    0     1.008          1.725752707554771         -5.426594257952284         -1.755534791425370
  47 H     1.0000    0     1.008         -0.040651788592914         -3.060997288986983         -2.142097169380301

--------------------------------
INTERNAL COORDINATES (ANGSTROEM)
--------------------------------
 O      0   0   0   0.000000     0.000     0.000
 H      1   0   0   1.047532     0.000     0.000
 H      1   2   0   0.974495   106.236     0.000
 O      2   1   3   5.632693   101.987   218.037
 H      4   2   1   1.016303    92.654   271.304
 H      4   2   1   1.000677   163.818    74.052
 O      4   2   1   2.657164    15.004   183.979
 H      7   4   2   0.997056    20.720   227.861
 H      7   4   2   1.015989    90.519   356.614
 O      2   1   3   1.515840   171.571   173.136
 H     10   2   1   0.999208   101.989   311.469
 H     10   2   1   0.995657   104.348    58.378
 O     11  10   2   1.765758   161.697    35.553
 H     13  11  10   0.974693   120.607   207.482
 H     13  11  10   1.046786    99.224   322.406
 O      6   4   2   1.729753   152.637   247.126
 H     16   6   4   0.974737   125.382   171.194
 H     16   6   4   1.047098   102.147    51.093
 O      5   4   2   3.215471   116.083    73.437
 H     19   5   4   1.001243   105.208    97.067
 H     19   5   4   1.015865    63.794     0.096
 O     16   6   4   2.730723    96.663   315.647
 H     22  16   6   0.995419    99.432   354.631
 H     22  16   6   0.999826    11.119   245.414
 O     20  19   5   1.726910   153.356   342.593
 H     25  20  19   1.047353   101.546    51.790
 H     25  20  19   0.974729   126.136   171.961
 O      9   7   4   1.647016   172.162   102.945
 H     28   9   7   1.001422    99.393    90.114
 H     28   9   7   1.015812    98.046   345.678
 O     18  16   6   1.520180   171.633   301.049
 H     31  18  16   0.995879   103.915    62.974
 H     31  18  16   0.999264   101.773   316.396
 O      5   4   2   1.641899   171.632    68.896
 H     34   5   4   1.016057    98.748     3.599
 H     34   5   4   0.996576   103.170   257.428
 O     21  19   5   1.643521   171.715     0.230
 H     37  21  19   0.996543   103.311   252.537
 H     37  21  19   1.016384    98.722   358.791
 O     15  13  11   1.520897   171.957    40.034
 H     40  15  13   0.995719   104.137    65.983
 H     40  15  13   0.999210   101.616   319.325
 O     30  28   9   1.644126   171.626   356.991
 H     43  30  28   0.996220   103.595   256.580
 H     43  30  28   1.016088    98.237     2.701
 O     45  43  30   1.646197   171.626    15.354
 H     46  45  43   1.000906   100.129    89.228
 H     46  45  43   1.015843    98.338   344.584

---------------------------
INTERNAL COORDINATES (A.U.)
---------------------------
 O      0   0   0   0.000000     0.000     0.000
 H      1   0   0   1.979548     0.000     0.000
 H      1   2   0   1.841529   106.236     0.000
 O      2   1   3  10.644247   101.987   218.037
 H      4   2   1   1.920534    92.654   271.304
 H      4   2   1   1.891006   163.818    74.052
 O      4   2   1   5.021312    15.004   183.979
 H      7   4   2   1.884163    20.720   227.861
 H      7   4   2   1.919941    90.519   356.614
 O      2   1   3   2.864522   171.571   173.136
 H     10   2   1   1.888229   101.989   311.469
 H     10   2   1   1.881518   104.348    58.378
 O     11  10   2   3.336799   161.697    35.553
 H     13  11  10   1.841904   120.607   207.482
 H     13  11  10   1.978139    99.224   322.406
 O      6   4   2   3.268759   152.637   247.126
 H     16   6   4   1.841986   125.382   171.194
 H     16   6   4   1.978728   102.147    51.093
 O      5   4   2   6.076359   116.083    73.437
 H     19   5   4   1.892075   105.208    97.067
 H     19   5   4   1.919707    63.794     0.096
 O     16   6   4   5.160318    96.663   315.647
 H     22  16   6   1.881070    99.432   354.631
 H     22  16   6   1.889397    11.119   245.414
 O     20  19   5   3.263388   153.356   342.593
 H     25  20  19   1.979210   101.546    51.790
 H     25  20  19   1.841970   126.136   171.961
 O      9   7   4   3.112409   172.162   102.945
 H     28   9   7   1.892414    99.393    90.114
 H     28   9   7   1.919606    98.046   345.678
 O     18  16   6   2.872723   171.633   301.049
 H     31  18  16   1.881939   103.915    62.974
 H     31  18  16   1.888336   101.773   316.396
 O      5   4   2   3.102739   171.632    68.896
 H     34   5   4   1.920069    98.748     3.599
 H     34   5   4   1.883255   103.170   257.428
 O     21  19   5   3.105805   171.715     0.230
 H     37  21  19   1.883193   103.311   252.537
 H     37  21  19   1.920688    98.722   358.791
 O     15  13  11   2.874079   171.957    40.034
 H     40  15  13   1.881636   104.137    65.983
 H     40  15  13   1.888233   101.616   319.325
 O     30  28   9   3.106949   171.626   356.991
 H     43  30  28   1.882583   103.595   256.580
 H     43  30  28   1.920128    98.237     2.701
 O     45  43  30   3.110862   171.626    15.354
 H     46  45  43   1.891439   100.129    89.228
 H     46  45  43   1.919665    98.338   344.584

---------------------
BASIS SET INFORMATION
---------------------
There are 2 groups of distinct atoms

 Group   1 Type O   : 11s6p2d1f contracted to 5s3p2d1f pattern {62111/411/11/1}
 Group   2 Type H   : 5s1p contracted to 3s1p pattern {311/1}

Atom   0O    basis set group =>   1
Atom   1H    basis set group =>   2
Atom   2H    basis set group =>   2
Atom   3O    basis set group =>   1
Atom   4H    basis set group =>   2
Atom   5H    basis set group =>   2
Atom   6O    basis set group =>   1
Atom   7H    basis set group =>   2
Atom   8H    basis set group =>   2
Atom   9O    basis set group =>   1
Atom  10H    basis set group =>   2
Atom  11H    basis set group =>   2
Atom  12O    basis set group =>   1
Atom  13H    basis set group =>   2
Atom  14H    basis set group =>   2
Atom  15O    basis set group =>   1
Atom  16H    basis set group =>   2
Atom  17H    basis set group =>   2
Atom  18O    basis set group =>   1
Atom  19H    basis set group =>   2
Atom  20H    basis set group =>   2
Atom  21O    basis set group =>   1
Atom  22H    basis set group =>   2
Atom  23H    basis set group =>   2
Atom  24O    basis set group =>   1
Atom  25H    basis set group =>   2
Atom  26H    basis set group =>   2
Atom  27O    basis set group =>   1
Atom  28H    basis set group =>   2
Atom  29H    basis set group =>   2
Atom  30O    basis set group =>   1
Atom  31H    basis set group =>   2
Atom  32H    basis set group =>   2
Atom  33O    basis set group =>   1
Atom  34H    basis set group =>   2
Atom  35H    basis set group =>   2
Atom  36O    basis set group =>   1
Atom  37H    basis set group =>   2
Atom  38H    basis set group =>   2
Atom  39O    basis set group =>   1
Atom  40H    basis set group =>   2
Atom  41H    basis set group =>   2
Atom  42O    basis set group =>   1
Atom  43H    basis set group =>   2
Atom  44H    basis set group =>   2
Atom  45O    basis set group =>   1
Atom  46H    basis set group =>   2
Atom  47H    basis set group =>   2
-------------------------------
AUXILIARY BASIS SET INFORMATION
-------------------------------
There are 2 groups of distinct atoms

 Group   1 Type O   : 12s5p4d2f1g contracted to 6s4p3d1f1g pattern {711111/2111/211/2/1}
 Group   2 Type H   : 5s2p1d contracted to 3s1p1d pattern {311/2/1}

Atom   0O    basis set group =>   1
Atom   1H    basis set group =>   2
Atom   2H    basis set group =>   2
Atom   3O    basis set group =>   1
Atom   4H    basis set group =>   2
Atom   5H    basis set group =>   2
Atom   6O    basis set group =>   1
Atom   7H    basis set group =>   2
Atom   8H    basis set group =>   2
Atom   9O    basis set group =>   1
Atom  10H    basis set group =>   2
Atom  11H    basis set group =>   2
Atom  12O    basis set group =>   1
Atom  13H    basis set group =>   2
Atom  14H    basis set group =>   2
Atom  15O    basis set group =>   1
Atom  16H    basis set group =>   2
Atom  17H    basis set group =>   2
Atom  18O    basis set group =>   1
Atom  19H    basis set group =>   2
Atom  20H    basis set group =>   2
Atom  21O    basis set group =>   1
Atom  22H    basis set group =>   2
Atom  23H    basis set group =>   2
Atom  24O    basis set group =>   1
Atom  25H    basis set group =>   2
Atom  26H    basis set group =>   2
Atom  27O    basis set group =>   1
Atom  28H    basis set group =>   2
Atom  29H    basis set group =>   2
Atom  30O    basis set group =>   1
Atom  31H    basis set group =>   2
Atom  32H    basis set group =>   2
Atom  33O    basis set group =>   1
Atom  34H    basis set group =>   2
Atom  35H    basis set group =>   2
Atom  36O    basis set group =>   1
Atom  37H    basis set group =>   2
Atom  38H    basis set group =>   2
Atom  39O    basis set group =>   1
Atom  40H    basis set group =>   2
Atom  41H    basis set group =>   2
Atom  42O    basis set group =>   1
Atom  43H    basis set group =>   2
Atom  44H    basis set group =>   2
Atom  45O    basis set group =>   1
Atom  46H    basis set group =>   2
Atom  47H    basis set group =>   2
smp-n52.crc.pitt.edu.109588hfi_wait_for_device: The /dev/hfi1_0 device failed to appear after 15.0 seconds: Connection timed out
smp-n52.crc.pitt.edu.109589hfi_wait_for_device: The /dev/hfi1_0 device failed to appear after 15.0 seconds: Connection timed out
smp-n52.crc.pitt.edu.109590hfi_wait_for_device: The /dev/hfi1_0 device failed to appear after 15.0 seconds: Connection timed out
smp-n52.crc.pitt.edu.109591hfi_wait_for_device: The /dev/hfi1_0 device failed to appear after 15.0 seconds: Connection timed out
smp-n52.crc.pitt.edu.109592hfi_wait_for_device: The /dev/hfi1_0 device failed to appear after 15.0 seconds: Connection timed out
smp-n52.crc.pitt.edu.109593hfi_wait_for_device: The /dev/hfi1_0 device failed to appear after 15.0 seconds: Connection timed out
smp-n52.crc.pitt.edu.109595hfi_wait_for_device: The /dev/hfi1_0 device failed to appear after 15.0 seconds: Connection timed out
smp-n52.crc.pitt.edu.109599hfi_wait_for_device: The /dev/hfi1_0 device failed to appear after 15.0 seconds: Connection timed out
smp-n52.crc.pitt.edu.109603hfi_wait_for_device: The /dev/hfi1_0 device failed to appear after 15.0 seconds: Connection timed out
smp-n52.crc.pitt.edu.109597hfi_wait_for_device: The /dev/hfi1_0 device failed to appear after 15.0 seconds: Connection timed out
smp-n52.crc.pitt.edu.109601hfi_wait_for_device: The /dev/hfi1_0 device failed to appear after 15.0 seconds: Connection timed out
smp-n52.crc.pitt.edu.109605hfi_wait_for_device: The /dev/hfi1_0 device failed to appear after 15.0 seconds: Connection timed out


           ************************************************************
           *        Program running with 12 parallel MPI-processes    *
           *              working on a common directory               *
           ************************************************************
------------------------------------------------------------------------------
                           ORCA GTO INTEGRAL CALCULATION
                           -- RI-GTO INTEGRALS CHOSEN --
------------------------------------------------------------------------------

                         BASIS SET STATISTICS AND STARTUP INFO

Gaussian basis set:
 # of primitive gaussian shells          ...  512
 # of primitive gaussian functions       ...  992
 # of contracted shells                  ...  304
 # of contracted basis functions         ...  688
 Highest angular momentum                ...    3
 Maximum contraction depth               ...    6
Auxiliary gaussian basis set:
 # of primitive gaussian shells          ...  640
 # of primitive gaussian functions       ... 1632
 # of contracted shells                  ...  400
 # of contracted aux-basis functions     ... 1136
 Highest angular momentum                ...    4
 Maximum contraction depth               ...    7
Ratio of auxiliary to basis functions    ...  1.65
Integral package used                  ... LIBINT
 One Electron integrals                  ... done
 Ordering auxiliary basis shells         ... done
 Integral threshhold             Thresh  ...  2.500e-11
 Primitive cut-off               TCut    ...  2.500e-12
 Pre-screening matrix                    ... done
 Shell pair data                         ... 
 Ordering of the shell pairs             ... done (   0.005 sec) 30934 of 46360 pairs
 Determination of significant pairs      ... done (   0.000 sec)
 Creation of shell pair data             ... done (   0.003 sec)
 Storage of shell pair data              ... done (   0.004 sec)
 Shell pair data done in (   0.012 sec)
 Computing two index integrals           ... done
 Cholesky decomposition of the V-matrix  ... done


Timings:
 Total evaluation time                   ...   0.618 sec (  0.010 min)
 One electron matrix time                ...   0.203 sec (  0.003 min) = 32.9%
 Schwartz matrix evaluation time         ...   0.314 sec (  0.005 min) = 50.8%
 Two index repulsion integral time       ...   0.030 sec (  0.000 min) =  4.8%
 Cholesky decomposition of V             ...   0.044 sec (  0.001 min) =  7.2%
 Three index repulsion integral time     ...   0.000 sec (  0.000 min) =  0.0%

           ************************************************************
           *              Shut down parallel processing               *
           ************************************************************
smp-n52.crc.pitt.edu.109615hfi_wait_for_device: The /dev/hfi1_0 device failed to appear after 15.0 seconds: Connection timed out
smp-n52.crc.pitt.edu.109616hfi_wait_for_device: The /dev/hfi1_0 device failed to appear after 15.0 seconds: Connection timed out
smp-n52.crc.pitt.edu.109617hfi_wait_for_device: The /dev/hfi1_0 device failed to appear after 15.0 seconds: Connection timed out
smp-n52.crc.pitt.edu.109619hfi_wait_for_device: The /dev/hfi1_0 device failed to appear after 15.0 seconds: Connection timed out
smp-n52.crc.pitt.edu.109618hfi_wait_for_device: The /dev/hfi1_0 device failed to appear after 15.0 seconds: Connection timed out
smp-n52.crc.pitt.edu.109622hfi_wait_for_device: The /dev/hfi1_0 device failed to appear after 15.0 seconds: Connection timed out
smp-n52.crc.pitt.edu.109626hfi_wait_for_device: The /dev/hfi1_0 device failed to appear after 15.0 seconds: Connection timed out
smp-n52.crc.pitt.edu.109620hfi_wait_for_device: The /dev/hfi1_0 device failed to appear after 15.0 seconds: Connection timed out
smp-n52.crc.pitt.edu.109630hfi_wait_for_device: The /dev/hfi1_0 device failed to appear after 15.0 seconds: Connection timed out
smp-n52.crc.pitt.edu.109624hfi_wait_for_device: The /dev/hfi1_0 device failed to appear after 15.0 seconds: Connection timed out
smp-n52.crc.pitt.edu.109628hfi_wait_for_device: The /dev/hfi1_0 device failed to appear after 15.0 seconds: Connection timed out
smp-n52.crc.pitt.edu.109632hfi_wait_for_device: The /dev/hfi1_0 device failed to appear after 15.0 seconds: Connection timed out


           ************************************************************
           *        Program running with 12 parallel MPI-processes    *
           *              working on a common directory               *
           ************************************************************
-------------------------------------------------------------------------------
                                 ORCA SCF
-------------------------------------------------------------------------------

------------
SCF SETTINGS
------------
Hamiltonian:
 Density Functional     Method          .... DFT(GTOs)
 Exchange Functional    Exchange        .... B88
   X-Alpha parameter    XAlpha          ....  0.666667
   Becke's b parameter  XBeta           ....  0.004200
 Correlation Functional Correlation     .... LYP
 LDA part of GGA corr.  LDAOpt          .... VWN-5
 Gradients option       PostSCFGGA      .... off
 Hybrid DFT is turned on
   Fraction HF Exchange ScalHFX         ....  0.200000
   Scaling of DF-GGA-X  ScalDFX         ....  0.720000
   Scaling of DF-GGA-C  ScalDFC         ....  0.810000
   Scaling of DF-LDA-C  ScalLDAC        ....  1.000000
   Perturbative correction              ....  0.000000
   NL short-range parameter             ....  4.800000
 RI-approximation to the Coulomb term is turned on
   Number of auxiliary basis functions  .... 1136
   RIJ-COSX (HFX calculated with COS-X)).... on


General Settings:
 Integral files         IntName         .... 1_B3LYP_GasPhase_onBP86_16_waters
 Hartree-Fock type      HFTyp           .... RHF
 Total Charge           Charge          ....    0
 Multiplicity           Mult            ....    1
 Number of Electrons    NEL             ....  160
 Basis Dimension        Dim             ....  688
 Nuclear Repulsion      ENuc            ....   1686.1285400819 Eh

Convergence Acceleration:
 DIIS                   CNVDIIS         .... on
   Start iteration      DIISMaxIt       ....    12
   Startup error        DIISStart       ....  0.200000
   # of expansion vecs  DIISMaxEq       ....     5
   Bias factor          DIISBfac        ....   1.050
   Max. coefficient     DIISMaxC        ....  10.000
 Newton-Raphson         CNVNR           .... off
 SOSCF                  CNVSOSCF        .... on
   Start iteration      SOSCFMaxIt      ....   150
   Startup grad/error   SOSCFStart      ....  0.003300
 Level Shifting         CNVShift        .... on
   Level shift para.    LevelShift      ....    0.2500
   Turn off err/grad.   ShiftErr        ....    0.0010
 Zerner damping         CNVZerner       .... off
 Static damping         CNVDamp         .... on
   Fraction old density DampFac         ....    0.7000
   Max. Damping (<1)    DampMax         ....    0.9800
   Min. Damping (>=0)   DampMin         ....    0.0000
   Turn off err/grad.   DampErr         ....    0.1000
 Fernandez-Rico         CNVRico         .... off

SCF Procedure:
 Maximum # iterations   MaxIter         ....   400
 SCF integral mode      SCFMode         .... Direct
   Integral package                     .... LIBINT
 Reset frequeny         DirectResetFreq ....    20
 Integral Threshold     Thresh          ....  2.500e-11 Eh
 Primitive CutOff       TCut            ....  2.500e-12 Eh

Convergence Tolerance:
 Convergence Check Mode ConvCheckMode   .... Total+1el-Energy
 Energy Change          TolE            ....  1.000e-08 Eh
 1-El. energy change                    ....  1.000e-05 Eh
 Orbital Gradient       TolG            ....  1.000e-05
 Orbital Rotation angle TolX            ....  1.000e-05
 DIIS Error             TolErr          ....  5.000e-07


Diagonalization of the overlap matrix:
Smallest eigenvalue                        ... 1.969e-03
Time for diagonalization                   ...    0.105 sec
Threshold for overlap eigenvalues          ... 1.000e-08
Number of eigenvalues below threshold      ... 0
Time for construction of square roots      ...    0.045 sec
Total time needed                          ...    0.152 sec

-------------------
DFT GRID GENERATION
-------------------

General Integration Accuracy     IntAcc      ...  4.670
Radial Grid Type                 RadialGrid  ... Gauss-Chebyshev
Angular Grid (max. acc.)         AngularGrid ... Lebedev-302
Angular grid pruning method      GridPruning ... 3 (G Style)
Weight generation scheme         WeightScheme... Becke
Basis function cutoff            BFCut       ...    1.0000e-11
Integration weight cutoff        WCut        ...    1.0000e-14
Grids for H and He will be reduced by one unit

# of grid points (after initial pruning)     ... 208000 (   0.0 sec)
# of grid points (after weights+screening)   ... 181174 (   0.8 sec)
nearest neighbour list constructed           ...    0.0 sec
Grid point re-assignment to atoms done       ...    0.0 sec
Grid point division into batches done        ...    0.4 sec
Reduced shell lists constructed in    0.6 sec

Total number of grid points                  ...   181174
Total number of batches                      ...     2860
Average number of points per batch           ...       63
Average number of grid points per atom       ...     3774
Average number of shells per batch           ...   104.66 (34.43%)
Average number of basis functions per batch  ...   201.12 (29.23%)
Average number of large shells per batch     ...    64.80 (61.91%)
Average number of large basis fcns per batch ...   121.24 (60.28%)
Maximum spatial batch extension              ...  13.97, 13.49, 16.52 au
Average spatial batch extension              ...   0.17,  0.18,  0.17 au

Time for grid setup =    1.684 sec

------------------------------
INITIAL GUESS: MODEL POTENTIAL
------------------------------
Loading Hartree-Fock densities                     ... done
Calculating cut-offs                               ... done
Setting up the integral package                    ... done
Initializing the effective Hamiltonian             ... done
Starting the Coulomb interaction                   ... done (   0.2 sec)
Reading the grid                                   ... done
Mapping shells                                     ... done
Starting the XC term evaluation                    ... done (   0.5 sec)
  promolecular density results
     # of electrons  =    159.977782537
     EX              =   -140.683000127
     EC              =     -5.574686912
     EX+EC           =   -146.257687038
Transforming the Hamiltonian                       ... done (   0.0 sec)
Diagonalizing the Hamiltonian                      ... done (   0.1 sec)
Back transforming the eigenvectors                 ... done (   0.0 sec)
Now organizing SCF variables                       ... done
                      ------------------
                      INITIAL GUESS DONE (   2.6 sec)
                      ------------------
--------------------
COSX GRID GENERATION
--------------------

General Integration Accuracy     IntAcc      ...  3.340
Radial Grid Type                 RadialGrid  ... Gauss-Chebyshev
Angular Grid (max. acc.)         AngularGrid ... Lebedev-50
Angular grid pruning method      GridPruning ... 3 (G Style)
Weight generation scheme         WeightScheme... Becke
Basis function cutoff            BFCut       ...    1.0000e-11
Integration weight cutoff        WCut        ...    1.0000e-14
Grids for H and He will be reduced by one unit

# of grid points (after initial pruning)     ...  19520 (   0.0 sec)
# of grid points (after weights+screening)   ...  17326 (   0.1 sec)
nearest neighbour list constructed           ...    0.0 sec
Grid point re-assignment to atoms done       ...    0.0 sec
Grid point division into batches done        ...    0.0 sec
Reduced shell lists constructed in    0.0 sec

Total number of grid points                  ...    17326
Total number of batches                      ...      291
Average number of points per batch           ...       59
Average number of grid points per atom       ...      361
Average number of shells per batch           ...   122.38 (40.26%)
Average number of basis functions per batch  ...   244.08 (35.48%)
Average number of large shells per batch     ...    76.77 (62.73%)
Average number of large basis fcns per batch ...   146.15 (59.88%)
Maximum spatial batch extension              ...  14.34, 13.49, 11.15 au
Average spatial batch extension              ...   0.35,  0.35,  0.32 au

Overlap Fitting                  UseSFitting ... on
Constructing numerical overlap ... done (      0.0 sec)
Inverting numerical overlap    ... done (      0.0 sec)
Obtaining analytic overlap     ... done (      0.0 sec)
Final contraction and storage  ... done (      0.0 sec)


General Integration Accuracy     IntAcc      ...  3.670
Radial Grid Type                 RadialGrid  ... Gauss-Chebyshev
Angular Grid (max. acc.)         AngularGrid ... Lebedev-50
Angular grid pruning method      GridPruning ... 3 (G Style)
Weight generation scheme         WeightScheme... Becke
Basis function cutoff            BFCut       ...    1.0000e-11
Integration weight cutoff        WCut        ...    1.0000e-14
Grids for H and He will be reduced by one unit

# of grid points (after initial pruning)     ...  25632 (   0.0 sec)
# of grid points (after weights+screening)   ...  22693 (   0.0 sec)
nearest neighbour list constructed           ...    0.0 sec
Grid point re-assignment to atoms done       ...    0.0 sec
Grid point division into batches done        ...    0.0 sec
Reduced shell lists constructed in    0.0 sec

Total number of grid points                  ...    22693
Total number of batches                      ...      380
Average number of points per batch           ...       59
Average number of grid points per atom       ...      473
Average number of shells per batch           ...   119.12 (39.18%)
Average number of basis functions per batch  ...   235.85 (34.28%)
Average number of large shells per batch     ...    73.73 (61.89%)
Average number of large basis fcns per batch ...   140.39 (59.53%)
Maximum spatial batch extension              ...  15.93, 15.30, 11.71 au
Average spatial batch extension              ...   0.32,  0.32,  0.26 au

Overlap Fitting                  UseSFitting ... on
Constructing numerical overlap ... done (      0.0 sec)
Inverting numerical overlap    ... done (      0.0 sec)
Obtaining analytic overlap     ... done (      0.0 sec)
Final contraction and storage  ... done (      0.0 sec)


General Integration Accuracy     IntAcc      ...  4.010
Radial Grid Type                 RadialGrid  ... Gauss-Chebyshev
Angular Grid (max. acc.)         AngularGrid ... Lebedev-110
Angular grid pruning method      GridPruning ... 3 (G Style)
Weight generation scheme         WeightScheme... Becke
Basis function cutoff            BFCut       ...    1.0000e-11
Integration weight cutoff        WCut        ...    1.0000e-14
Grids for H and He will be reduced by one unit

# of grid points (after initial pruning)     ...  44128 (   0.0 sec)
# of grid points (after weights+screening)   ...  39325 (   0.1 sec)
nearest neighbour list constructed           ...    0.0 sec
Grid point re-assignment to atoms done       ...    0.0 sec
Grid point division into batches done        ...    0.0 sec
Reduced shell lists constructed in    0.1 sec

Total number of grid points                  ...    39325
Total number of batches                      ...      637
Average number of points per batch           ...       61
Average number of grid points per atom       ...      819
Average number of shells per batch           ...   116.00 (38.16%)
Average number of basis functions per batch  ...   228.25 (33.18%)
Average number of large shells per batch     ...    71.73 (61.83%)
Average number of large basis fcns per batch ...   136.02 (59.59%)
Maximum spatial batch extension              ...  17.15, 15.09, 12.42 au
Average spatial batch extension              ...   0.27,  0.29,  0.27 au

Overlap Fitting                  UseSFitting ... on
Constructing numerical overlap ... done (      0.0 sec)
Inverting numerical overlap    ... done (      0.0 sec)
Obtaining analytic overlap     ... done (      0.0 sec)
Final contraction and storage  ... done (      0.0 sec)

Time for X-Grid setup             =    0.669 sec
--------------
SCF ITERATIONS
--------------
ITER       Energy         Delta-E        Max-DP      RMS-DP      [F,P]     Damp
               ***  Starting incremental Fock matrix formation  ***
  0  -1221.8784767794   0.000000000000 0.05140526  0.00089338  0.3015953 0.7000
  1  -1222.4613276369  -0.582850857484 0.03146508  0.00055629  0.1281735 0.7000
                               ***Turning on DIIS***
  2  -1222.6564151741  -0.195087537236 0.03380517  0.00069283  0.0326414 0.0000
  3  -1222.9893833763  -0.332968202130 0.02098308  0.00035204  0.0735521 0.0000
  4  -1223.0564341174  -0.067050741181 0.00538966  0.00010579  0.0143696 0.0000
  5  -1223.0590466370  -0.002612519529 0.00204528  0.00003557  0.0033594 0.0000
                      *** Initiating the SOSCF procedure ***
                           *** Shutting down DIIS ***
                      *** Re-Reading the Fockian *** 
                      *** Removing any level shift *** 
ITER      Energy       Delta-E        Grad      Rot      Max-DP    RMS-DP
  6  -1223.05916208  -0.0001154435  0.000341  0.000341  0.000717  0.000013
               *** Restarting incremental Fock matrix formation ***
  7  -1223.05920056  -0.0000384794  0.000112  0.000275  0.000427  0.000007
  8  -1223.05920170  -0.0000011380  0.000060  0.000121  0.000163  0.000003
  9  -1223.05920184  -0.0000001404  0.000039  0.000084  0.000116  0.000002
 10  -1223.05920209  -0.0000002564  0.000009  0.000011  0.000024  0.000000
 11  -1223.05920215  -0.0000000588  0.000010  0.000012  0.000014  0.000000
                  ***Gradient check signals convergence***
              ***Rediagonalizing the Fockian in SOSCF/NRSCF***

               *****************************************************
               *                     SUCCESS                       *
               *           SCF CONVERGED AFTER  12 CYCLES          *
               *****************************************************

Setting up the final grid:

General Integration Accuracy     IntAcc      ...  5.010
Radial Grid Type                 RadialGrid  ... Gauss-Chebyshev
Angular Grid (max. acc.)         AngularGrid ... Lebedev-434
Angular grid pruning method      GridPruning ... 3 (G Style)
Weight generation scheme         WeightScheme... Becke
Basis function cutoff            BFCut       ...    1.0000e-11
Integration weight cutoff        WCut        ...    1.0000e-14
Grids for H and He will be reduced by one unit

# of grid points (after initial pruning)     ... 387616 (   0.0 sec)
# of grid points (after weights+screening)   ... 336568 (   1.5 sec)
nearest neighbour list constructed           ...    0.0 sec
Grid point re-assignment to atoms done       ...    0.0 sec
Grid point division into batches done        ...    1.5 sec
Reduced shell lists constructed in    1.9 sec

Total number of grid points                  ...   336568
Total number of batches                      ...     5285
Average number of points per batch           ...       63
Average number of grid points per atom       ...     7012
Average number of shells per batch           ...   101.42 (33.36%)
Average number of basis functions per batch  ...   193.38 (28.11%)
Average number of large shells per batch     ...    62.85 (61.97%)
Average number of large basis fcns per batch ...   117.28 (60.64%)
Maximum spatial batch extension              ...  15.40, 13.16, 13.79 au
Average spatial batch extension              ...   0.14,  0.14,  0.14 au

Final grid set up in    3.9 sec
Final integration                            ... done (   0.8 sec)
Change in XC energy                          ...    -0.000440448
Integrated number of electrons               ...   160.000414113
Previous integrated no of electrons          ...   159.996821617
Old exchange energy                            =    -28.552647361 Eh
New exchange energy                            =    -28.551534464 Eh
Exchange energy change after final integration =      0.001112897 Eh
Total energy after final integration           =  -1223.058529648 Eh
Final COS-X integration done in                =     7.105 sec

----------------
TOTAL SCF ENERGY
----------------

Total Energy       :        -1223.05852965 Eh          -33281.11457 eV

Components:
Nuclear Repulsion  :         1686.12854008 Eh           45881.89017 eV
Electronic Energy  :        -2909.18706973 Eh          -79163.00474 eV

One Electron Energy:        -5046.68410053 Eh         -137327.25596 eV
Two Electron Energy:         2137.49703080 Eh           58164.25122 eV

Virial components:
Potential Energy   :        -2441.07076505 Eh          -66424.91249 eV
Kinetic Energy     :         1218.01223540 Eh           33143.79792 eV
Virial Ratio       :            2.00414306


DFT components:
N(Alpha)           :       80.000207056326 electrons
N(Beta)            :       80.000207056326 electrons
N(Total)           :      160.000414112652 electrons
E(X)               :     -113.832233333626 Eh       
E(C)               :       -6.576547127701 Eh       
E(XC)              :     -120.408780461326 Eh       

---------------
SCF CONVERGENCE
---------------

  Last Energy change         ...    5.6694e-08  Tolerance :   1.0000e-08
  Last MAX-Density change    ...    1.9303e-14  Tolerance :   1.0000e-07
  Last RMS-Density change    ...    1.9381e-16  Tolerance :   5.0000e-09
  Last Orbital Gradient      ...    1.8130e-06  Tolerance :   1.0000e-05
  Last Orbital Rotation      ...    2.3237e-06  Tolerance :   1.0000e-05

             **** THE GBW FILE WAS UPDATED (1_B3LYP_GasPhase_onBP86_16_waters.gbw) ****
             **** DENSITY FILE WAS UPDATED (1_B3LYP_GasPhase_onBP86_16_waters.scfp.tmp) ****
             **** ENERGY FILE WAS UPDATED (1_B3LYP_GasPhase_onBP86_16_waters.en.tmp) ****
----------------
ORBITAL ENERGIES
----------------

  NO   OCC          E(Eh)            E(eV) 
   0   2.0000     -19.143457      -520.9200 
   1   2.0000     -19.143355      -520.9172 
   2   2.0000     -19.143257      -520.9145 
   3   2.0000     -19.143060      -520.9091 
   4   2.0000     -19.131754      -520.6015 
   5   2.0000     -19.131511      -520.5949 
   6   2.0000     -19.131467      -520.5937 
   7   2.0000     -19.130946      -520.5795 
   8   2.0000     -19.130225      -520.5599 
   9   2.0000     -19.130145      -520.5577 
  10   2.0000     -19.129435      -520.5384 
  11   2.0000     -19.129369      -520.5366 
  12   2.0000     -19.127571      -520.4877 
  13   2.0000     -19.127413      -520.4834 
  14   2.0000     -19.127051      -520.4735 
  15   2.0000     -19.126994      -520.4720 
  16   2.0000      -1.043150       -28.3856 
  17   2.0000      -1.036706       -28.2102 
  18   2.0000      -1.026788       -27.9403 
  19   2.0000      -1.025365       -27.9016 
  20   2.0000      -1.023307       -27.8456 
  21   2.0000      -1.018517       -27.7152 
  22   2.0000      -1.016433       -27.6586 
  23   2.0000      -1.013674       -27.5835 
  24   2.0000      -1.007416       -27.4132 
  25   2.0000      -1.001767       -27.2595 
  26   2.0000      -1.001238       -27.2451 
  27   2.0000      -0.996977       -27.1291 
  28   2.0000      -0.995630       -27.0925 
  29   2.0000      -0.994532       -27.0626 
  30   2.0000      -0.986341       -26.8397 
  31   2.0000      -0.976513       -26.5723 
  32   2.0000      -0.553979       -15.0745 
  33   2.0000      -0.553265       -15.0551 
  34   2.0000      -0.553171       -15.0525 
  35   2.0000      -0.549677       -14.9575 
  36   2.0000      -0.547921       -14.9097 
  37   2.0000      -0.544320       -14.8117 
  38   2.0000      -0.542542       -14.7633 
  39   2.0000      -0.538434       -14.6515 
  40   2.0000      -0.529701       -14.4139 
  41   2.0000      -0.529119       -14.3981 
  42   2.0000      -0.525928       -14.3112 
  43   2.0000      -0.521290       -14.1850 
  44   2.0000      -0.519465       -14.1353 
  45   2.0000      -0.514606       -14.0031 
  46   2.0000      -0.514497       -14.0002 
  47   2.0000      -0.514236       -13.9931 
  48   2.0000      -0.489126       -13.3098 
  49   2.0000      -0.468748       -12.7553 
  50   2.0000      -0.446187       -12.1414 
  51   2.0000      -0.445282       -12.1167 
  52   2.0000      -0.435228       -11.8432 
  53   2.0000      -0.431922       -11.7532 
  54   2.0000      -0.423993       -11.5374 
  55   2.0000      -0.420226       -11.4349 
  56   2.0000      -0.404770       -11.0144 
  57   2.0000      -0.401444       -10.9238 
  58   2.0000      -0.400628       -10.9016 
  59   2.0000      -0.399971       -10.8838 
  60   2.0000      -0.380984       -10.3671 
  61   2.0000      -0.376599       -10.2478 
  62   2.0000      -0.370075       -10.0702 
  63   2.0000      -0.349899        -9.5212 
  64   2.0000      -0.339165        -9.2292 
  65   2.0000      -0.336594        -9.1592 
  66   2.0000      -0.336052        -9.1444 
  67   2.0000      -0.334557        -9.1038 
  68   2.0000      -0.330228        -8.9860 
  69   2.0000      -0.328352        -8.9349 
  70   2.0000      -0.327404        -8.9091 
  71   2.0000      -0.326051        -8.8723 
  72   2.0000      -0.324690        -8.8353 
  73   2.0000      -0.324239        -8.8230 
  74   2.0000      -0.322267        -8.7693 
  75   2.0000      -0.320204        -8.7132 
  76   2.0000      -0.319585        -8.6963 
  77   2.0000      -0.319556        -8.6956 
  78   2.0000      -0.319449        -8.6926 
  79   2.0000      -0.317393        -8.6367 
  80   0.0000      -0.001036        -0.0282 
  81   0.0000       0.010428         0.2838 
  82   0.0000       0.029152         0.7933 
  83   0.0000       0.029331         0.7981 
  84   0.0000       0.048140         1.3100 
  85   0.0000       0.077823         2.1177 
  86   0.0000       0.078570         2.1380 
  87   0.0000       0.090022         2.4496 
  88   0.0000       0.113929         3.1002 
  89   0.0000       0.117682         3.2023 
  90   0.0000       0.118806         3.2329 
  91   0.0000       0.123116         3.3501 
  92   0.0000       0.147351         4.0096 
  93   0.0000       0.153958         4.1894 
  94   0.0000       0.162701         4.4273 
  95   0.0000       0.166404         4.5281 
  96   0.0000       0.179440         4.8828 
  97   0.0000       0.187064         5.0903 
  98   0.0000       0.192169         5.2292 
  99   0.0000       0.196651         5.3511 
 100   0.0000       0.198966         5.4141 
 101   0.0000       0.201584         5.4854 
 102   0.0000       0.204996         5.5782 
 103   0.0000       0.209702         5.7063 
 104   0.0000       0.210783         5.7357 
 105   0.0000       0.216548         5.8926 
 106   0.0000       0.217610         5.9215 
 107   0.0000       0.225997         6.1497 
 108   0.0000       0.230141         6.2625 
 109   0.0000       0.231045         6.2871 
 110   0.0000       0.241119         6.5612 
 111   0.0000       0.244325         6.6484 
 112   0.0000       0.259857         7.0711 
 113   0.0000       0.268462         7.3052 
 114   0.0000       0.280591         7.6353 
 115   0.0000       0.281696         7.6653 
 116   0.0000       0.282333         7.6827 
 117   0.0000       0.290738         7.9114 
 118   0.0000       0.310609         8.4521 
 119   0.0000       0.315284         8.5793 
 120   0.0000       0.318433         8.6650 
 121   0.0000       0.318970         8.6796 
 122   0.0000       0.320490         8.7210 
 123   0.0000       0.322856         8.7854 
 124   0.0000       0.330166         8.9843 
 125   0.0000       0.332192         9.0394 
 126   0.0000       0.334407         9.0997 
 127   0.0000       0.338109         9.2004 
 128   0.0000       0.338506         9.2112 
 129   0.0000       0.348653         9.4873 
 130   0.0000       0.359917         9.7938 
 131   0.0000       0.366641         9.9768 
 132   0.0000       0.370342        10.0775 
 133   0.0000       0.376563        10.2468 
 134   0.0000       0.377945        10.2844 
 135   0.0000       0.380811        10.3624 
 136   0.0000       0.390781        10.6337 
 137   0.0000       0.392124        10.6702 
 138   0.0000       0.401651        10.9295 
 139   0.0000       0.410871        11.1804 
 140   0.0000       0.426524        11.6063 
 141   0.0000       0.432042        11.7565 
 142   0.0000       0.457911        12.4604 
 143   0.0000       0.458655        12.4806 
 144   0.0000       0.475290        12.9333 
 145   0.0000       0.479178        13.0391 
 146   0.0000       0.479553        13.0493 
 147   0.0000       0.483442        13.1551 
 148   0.0000       0.493455        13.4276 
 149   0.0000       0.494491        13.4558 
 150   0.0000       0.503755        13.7079 
 151   0.0000       0.512392        13.9429 
 152   0.0000       0.525036        14.2869 
 153   0.0000       0.530674        14.4404 
 154   0.0000       0.540057        14.6957 
 155   0.0000       0.555245        15.1090 
 156   0.0000       0.569984        15.5101 
 157   0.0000       0.584639        15.9088 
 158   0.0000       0.585384        15.9291 
 159   0.0000       0.587189        15.9782 
 160   0.0000       0.591434        16.0937 
 161   0.0000       0.595542        16.2055 
 162   0.0000       0.605194        16.4682 
 163   0.0000       0.609950        16.5976 
 164   0.0000       0.629205        17.1215 
 165   0.0000       0.630411        17.1544 
 166   0.0000       0.632450        17.2098 
 167   0.0000       0.640375        17.4255 
 168   0.0000       0.643659        17.5148 
 169   0.0000       0.646269        17.5859 
 170   0.0000       0.654851        17.8194 
 171   0.0000       0.656390        17.8613 
 172   0.0000       0.658140        17.9089 
 173   0.0000       0.665594        18.1117 
 174   0.0000       0.677226        18.4283 
 175   0.0000       0.679013        18.4769 
 176   0.0000       0.682399        18.5690 
 177   0.0000       0.687804        18.7161 
 178   0.0000       0.699668        19.0389 
 179   0.0000       0.728064        19.8116 
 180   0.0000       0.730554        19.8794 
 181   0.0000       0.752251        20.4698 
 182   0.0000       0.754077        20.5195 
 183   0.0000       0.756577        20.5875 
 184   0.0000       0.757374        20.6092 
 185   0.0000       0.794524        21.6201 
 186   0.0000       0.799018        21.7424 
 187   0.0000       0.815512        22.1912 
 188   0.0000       0.823437        22.4069 
 189   0.0000       0.839314        22.8389 
 190   0.0000       0.845613        23.0103 
 191   0.0000       0.848694        23.0941 
 192   0.0000       0.849971        23.1289 
 193   0.0000       0.872522        23.7425 
 194   0.0000       0.874707        23.8020 
 195   0.0000       0.897146        24.4126 
 196   0.0000       0.897625        24.4256 
 197   0.0000       0.898127        24.4393 
 198   0.0000       0.910653        24.7801 
 199   0.0000       0.936438        25.4818 
 200   0.0000       0.939115        25.5546 
 201   0.0000       0.986246        26.8371 
 202   0.0000       1.007302        27.4101 
 203   0.0000       1.008016        27.4295 
 204   0.0000       1.012681        27.5565 
 205   0.0000       1.022176        27.8148 
 206   0.0000       1.046970        28.4895 
 207   0.0000       1.109430        30.1891 
 208   0.0000       1.118765        30.4432 
 209   0.0000       1.124772        30.6066 
 210   0.0000       1.129710        30.7410 
 211   0.0000       1.138372        30.9767 
 212   0.0000       1.145826        31.1795 
 213   0.0000       1.146482        31.1974 
 214   0.0000       1.149794        31.2875 
 215   0.0000       1.157726        31.5033 
 216   0.0000       1.159592        31.5541 
 217   0.0000       1.164727        31.6938 
 218   0.0000       1.169906        31.8348 
 219   0.0000       1.171206        31.8701 
 220   0.0000       1.172537        31.9064 
 221   0.0000       1.186125        32.2761 
 222   0.0000       1.187646        32.3175 
 223   0.0000       1.188339        32.3364 
 224   0.0000       1.188649        32.3448 
 225   0.0000       1.204252        32.7694 
 226   0.0000       1.216223        33.0951 
 227   0.0000       1.221006        33.2253 
 228   0.0000       1.270554        34.5735 
 229   0.0000       1.276369        34.7318 
 230   0.0000       1.282763        34.9057 
 231   0.0000       1.290232        35.1090 
 232   0.0000       1.302440        35.4412 
 233   0.0000       1.305755        35.5314 
 234   0.0000       1.310684        35.6655 
 235   0.0000       1.318083        35.8669 
 236   0.0000       1.323036        36.0016 
 237   0.0000       1.327633        36.1267 
 238   0.0000       1.329045        36.1651 
 239   0.0000       1.337993        36.4086 
 240   0.0000       1.339043        36.4372 
 241   0.0000       1.357465        36.9385 
 242   0.0000       1.363149        37.0932 
 243   0.0000       1.363757        37.1097 
 244   0.0000       1.366867        37.1944 
 245   0.0000       1.371279        37.3144 
 246   0.0000       1.373968        37.3876 
 247   0.0000       1.379606        37.5410 
 248   0.0000       1.385099        37.6905 
 249   0.0000       1.391177        37.8558 
 250   0.0000       1.406641        38.2767 
 251   0.0000       1.408518        38.3277 
 252   0.0000       1.413849        38.4728 
 253   0.0000       1.415646        38.5217 
 254   0.0000       1.430083        38.9145 
 255   0.0000       1.445727        39.3402 
 256   0.0000       1.546549        42.0837 
 257   0.0000       1.570667        42.7400 
 258   0.0000       1.591614        43.3100 
 259   0.0000       1.628866        44.3237 
 260   0.0000       1.638791        44.5938 
 261   0.0000       1.640798        44.6484 
 262   0.0000       1.643573        44.7239 
 263   0.0000       1.653443        44.9925 
 264   0.0000       1.657974        45.1158 
 265   0.0000       1.659777        45.1648 
 266   0.0000       1.666010        45.3344 
 267   0.0000       1.673314        45.5332 
 268   0.0000       1.675260        45.5861 
 269   0.0000       1.680055        45.7166 
 270   0.0000       1.684770        45.8449 
 271   0.0000       1.700758        46.2800 
 272   0.0000       1.703678        46.3594 
 273   0.0000       1.704312        46.3767 
 274   0.0000       1.717501        46.7356 
 275   0.0000       1.719375        46.7866 
 276   0.0000       1.734561        47.1998 
 277   0.0000       1.734718        47.2041 
 278   0.0000       1.747557        47.5535 
 279   0.0000       1.751789        47.6686 
 280   0.0000       1.769879        48.1609 
 281   0.0000       1.781628        48.4806 
 282   0.0000       1.783693        48.5367 
 283   0.0000       1.788097        48.6566 
 284   0.0000       1.797154        48.9030 
 285   0.0000       1.799816        48.9755 
 286   0.0000       1.802234        49.0413 
 287   0.0000       1.827100        49.7179 
 288   0.0000       1.829796        49.7913 
 289   0.0000       1.840996        50.0961 
 290   0.0000       1.852520        50.4096 
 291   0.0000       1.864705        50.7412 
 292   0.0000       1.880248        51.1642 
 293   0.0000       1.882056        51.2133 
 294   0.0000       1.887390        51.3585 
 295   0.0000       1.907263        51.8993 
 296   0.0000       1.910575        51.9894 
 297   0.0000       1.922911        52.3251 
 298   0.0000       1.935441        52.6660 
 299   0.0000       1.937433        52.7202 
 300   0.0000       1.945665        52.9442 
 301   0.0000       1.952830        53.1392 
 302   0.0000       1.958787        53.3013 
 303   0.0000       1.977370        53.8070 
 304   0.0000       1.980204        53.8841 
 305   0.0000       1.983001        53.9602 
 306   0.0000       1.996033        54.3148 
 307   0.0000       2.001115        54.4531 
 308   0.0000       2.008062        54.6422 
 309   0.0000       2.018789        54.9341 
 310   0.0000       2.021258        55.0012 
 311   0.0000       2.034436        55.3598 
 312   0.0000       2.039089        55.4864 
 313   0.0000       2.046605        55.6909 
 314   0.0000       2.047942        55.7273 
 315   0.0000       2.067487        56.2592 
 316   0.0000       2.074402        56.4473 
 317   0.0000       2.093925        56.9786 
 318   0.0000       2.094627        56.9977 
 319   0.0000       2.099484        57.1299 
 320   0.0000       2.102584        57.2142 
 321   0.0000       2.108389        57.3722 
 322   0.0000       2.119159        57.6652 
 323   0.0000       2.138927        58.2032 
 324   0.0000       2.147952        58.4487 
 325   0.0000       2.154096        58.6159 
 326   0.0000       2.164204        58.8910 
 327   0.0000       2.171342        59.0852 
 328   0.0000       2.173706        59.1496 
 329   0.0000       2.173995        59.1574 
 330   0.0000       2.207902        60.0801 
 331   0.0000       2.208739        60.1028 
 332   0.0000       2.223128        60.4944 
 333   0.0000       2.231085        60.7109 
 334   0.0000       2.233874        60.7868 
 335   0.0000       2.239173        60.9310 
 336   0.0000       2.253924        61.3324 
 337   0.0000       2.255149        61.3657 
 338   0.0000       2.258581        61.4591 
 339   0.0000       2.275850        61.9290 
 340   0.0000       2.290449        62.3263 
 341   0.0000       2.295789        62.4716 
 342   0.0000       2.297916        62.5295 
 343   0.0000       2.304274        62.7025 
 344   0.0000       2.307444        62.7887 
 345   0.0000       2.309010        62.8314 
 346   0.0000       2.316511        63.0355 
 347   0.0000       2.317093        63.0513 
 348   0.0000       2.321736        63.1777 
 349   0.0000       2.324881        63.2632 
 350   0.0000       2.330979        63.4292 
 351   0.0000       2.342285        63.7368 
 352   0.0000       2.354587        64.0716 
 353   0.0000       2.359817        64.2139 
 354   0.0000       2.364173        64.3324 
 355   0.0000       2.366555        64.3972 
 356   0.0000       2.372202        64.5509 
 357   0.0000       2.372705        64.5646 
 358   0.0000       2.379971        64.7623 
 359   0.0000       2.380749        64.7835 
 360   0.0000       2.385369        64.9092 
 361   0.0000       2.386680        64.9449 
 362   0.0000       2.394397        65.1548 
 363   0.0000       2.403985        65.4158 
 364   0.0000       2.418520        65.8113 
 365   0.0000       2.423389        65.9438 
 366   0.0000       2.425143        65.9915 
 367   0.0000       2.440227        66.4020 
 368   0.0000       2.441166        66.4275 
 369   0.0000       2.447719        66.6058 
 370   0.0000       2.464039        67.0499 
 371   0.0000       2.471809        67.2613 
 372   0.0000       2.476740        67.3955 
 373   0.0000       2.486258        67.6545 
 374   0.0000       2.487000        67.6747 
 375   0.0000       2.496766        67.9404 
 376   0.0000       2.506307        68.2001 
 377   0.0000       2.506586        68.2077 
 378   0.0000       2.511192        68.3330 
 379   0.0000       2.511921        68.3528 
 380   0.0000       2.529935        68.8430 
 381   0.0000       2.563822        69.7651 
 382   0.0000       2.572977        70.0143 
 383   0.0000       2.577938        70.1493 
 384   0.0000       2.593505        70.5729 
 385   0.0000       2.611308        71.0573 
 386   0.0000       2.612923        71.1013 
 387   0.0000       2.613471        71.1162 
 388   0.0000       2.634616        71.6915 
 389   0.0000       2.641237        71.8717 
 390   0.0000       2.647962        72.0547 
 391   0.0000       2.650957        72.1362 
 392   0.0000       2.660500        72.3959 
 393   0.0000       2.663985        72.4907 
 394   0.0000       2.673627        72.7531 
 395   0.0000       2.679635        72.9166 
 396   0.0000       2.684879        73.0593 
 397   0.0000       2.690366        73.2086 
 398   0.0000       2.697469        73.4019 
 399   0.0000       2.712791        73.8188 
 400   0.0000       2.715638        73.8963 
 401   0.0000       2.716769        73.9270 
 402   0.0000       2.726747        74.1986 
 403   0.0000       2.728693        74.2515 
 404   0.0000       2.742880        74.6376 
 405   0.0000       2.754289        74.9480 
 406   0.0000       2.761765        75.1514 
 407   0.0000       2.763530        75.1995 
 408   0.0000       2.786445        75.8230 
 409   0.0000       2.828583        76.9697 
 410   0.0000       2.829896        77.0054 
 411   0.0000       2.847850        77.4939 
 412   0.0000       2.869145        78.0734 
 413   0.0000       2.876177        78.2648 
 414   0.0000       2.880827        78.3913 
 415   0.0000       2.919279        79.4376 
 416   0.0000       2.924655        79.5839 
 417   0.0000       2.929055        79.7036 
 418   0.0000       2.955641        80.4271 
 419   0.0000       2.957531        80.4785 
 420   0.0000       2.969170        80.7952 
 421   0.0000       2.991004        81.3894 
 422   0.0000       2.998654        81.5975 
 423   0.0000       3.004992        81.7700 
 424   0.0000       3.012349        81.9702 
 425   0.0000       3.016646        82.0871 
 426   0.0000       3.021455        82.2180 
 427   0.0000       3.028743        82.4163 
 428   0.0000       3.033218        82.5380 
 429   0.0000       3.045343        82.8680 
 430   0.0000       3.051818        83.0442 
 431   0.0000       3.053671        83.0946 
 432   0.0000       3.057691        83.2040 
 433   0.0000       3.061374        83.3042 
 434   0.0000       3.084797        83.9416 
 435   0.0000       3.100310        84.3637 
 436   0.0000       3.125273        85.0430 
 437   0.0000       3.131033        85.1997 
 438   0.0000       3.133415        85.2645 
 439   0.0000       3.147135        85.6379 
 440   0.0000       3.186609        86.7120 
 441   0.0000       3.194648        86.9308 
 442   0.0000       3.199785        87.0706 
 443   0.0000       3.208008        87.2943 
 444   0.0000       3.233317        87.9830 
 445   0.0000       3.260812        88.7312 
 446   0.0000       3.264204        88.8235 
 447   0.0000       3.275195        89.1226 
 448   0.0000       3.735623       101.6515 
 449   0.0000       3.736854       101.6850 
 450   0.0000       3.741084       101.8001 
 451   0.0000       3.745796       101.9283 
 452   0.0000       3.756382       102.2163 
 453   0.0000       3.765997       102.4780 
 454   0.0000       3.773703       102.6877 
 455   0.0000       3.776346       102.7596 
 456   0.0000       3.784625       102.9849 
 457   0.0000       3.795549       103.2821 
 458   0.0000       3.847843       104.7051 
 459   0.0000       3.854602       104.8890 
 460   0.0000       3.870630       105.3252 
 461   0.0000       3.881413       105.6186 
 462   0.0000       3.882022       105.6352 
 463   0.0000       3.887922       105.7957 
 464   0.0000       3.900328       106.1333 
 465   0.0000       3.906225       106.2938 
 466   0.0000       3.928368       106.8963 
 467   0.0000       3.931687       106.9867 
 468   0.0000       3.933454       107.0347 
 469   0.0000       3.944027       107.3224 
 470   0.0000       3.948356       107.4402 
 471   0.0000       3.973765       108.1316 
 472   0.0000       3.985731       108.4573 
 473   0.0000       3.992433       108.6396 
 474   0.0000       3.994830       108.7048 
 475   0.0000       4.020140       109.3936 
 476   0.0000       4.051537       110.2479 
 477   0.0000       4.055601       110.3585 
 478   0.0000       4.080272       111.0299 
 479   0.0000       4.117515       112.0433 
 480   0.0000       5.087122       138.4276 
 481   0.0000       5.087656       138.4422 
 482   0.0000       5.087917       138.4493 
 483   0.0000       5.089147       138.4827 
 484   0.0000       5.089468       138.4915 
 485   0.0000       5.089934       138.5041 
 486   0.0000       5.090758       138.5266 
 487   0.0000       5.091702       138.5523 
 488   0.0000       5.093508       138.6014 
 489   0.0000       5.094634       138.6320 
 490   0.0000       5.095505       138.6557 
 491   0.0000       5.095901       138.6665 
 492   0.0000       5.096401       138.6801 
 493   0.0000       5.097988       138.7233 
 494   0.0000       5.100162       138.7825 
 495   0.0000       5.103023       138.8603 
 496   0.0000       5.185491       141.1044 
 497   0.0000       5.186479       141.1313 
 498   0.0000       5.194700       141.3550 
 499   0.0000       5.194944       141.3616 
 500   0.0000       5.199242       141.4786 
 501   0.0000       5.207188       141.6948 
 502   0.0000       5.213488       141.8662 
 503   0.0000       5.213808       141.8749 
 504   0.0000       5.223789       142.1465 
 505   0.0000       5.244099       142.6992 
 506   0.0000       5.244336       142.7057 
 507   0.0000       5.248458       142.8178 
 508   0.0000       5.249804       142.8544 
 509   0.0000       5.254518       142.9827 
 510   0.0000       5.257118       143.0534 
 511   0.0000       5.258631       143.0946 
 512   0.0000       5.291698       143.9944 
 513   0.0000       5.293824       144.0523 
 514   0.0000       5.294305       144.0654 
 515   0.0000       5.294403       144.0680 
 516   0.0000       5.319987       144.7642 
 517   0.0000       5.324294       144.8814 
 518   0.0000       5.328143       144.9861 
 519   0.0000       5.330793       145.0582 
 520   0.0000       5.336195       145.2052 
 521   0.0000       5.336261       145.2071 
 522   0.0000       5.338252       145.2612 
 523   0.0000       5.341856       145.3593 
 524   0.0000       5.353460       145.6751 
 525   0.0000       5.355632       145.7341 
 526   0.0000       5.357441       145.7834 
 527   0.0000       5.363309       145.9431 
 528   0.0000       5.366637       146.0336 
 529   0.0000       5.367032       146.0444 
 530   0.0000       5.378529       146.3572 
 531   0.0000       5.381394       146.4352 
 532   0.0000       5.387891       146.6120 
 533   0.0000       5.394454       146.7905 
 534   0.0000       5.401599       146.9850 
 535   0.0000       5.402098       146.9985 
 536   0.0000       5.402626       147.0129 
 537   0.0000       5.403534       147.0376 
 538   0.0000       5.413487       147.3085 
 539   0.0000       5.415062       147.3513 
 540   0.0000       5.415699       147.3687 
 541   0.0000       5.416101       147.3796 
 542   0.0000       5.422563       147.5554 
 543   0.0000       5.425320       147.6305 
 544   0.0000       5.426204       147.6545 
 545   0.0000       5.427325       147.6850 
 546   0.0000       5.430179       147.7627 
 547   0.0000       5.432988       147.8391 
 548   0.0000       5.436272       147.9285 
 549   0.0000       5.437218       147.9542 
 550   0.0000       5.440599       148.0462 
 551   0.0000       5.442795       148.1060 
 552   0.0000       5.444583       148.1546 
 553   0.0000       5.445541       148.1807 
 554   0.0000       5.449910       148.2996 
 555   0.0000       5.452165       148.3610 
 556   0.0000       5.489423       149.3748 
 557   0.0000       5.494446       149.5115 
 558   0.0000       5.502376       149.7273 
 559   0.0000       5.531820       150.5285 
 560   0.0000       5.878686       159.9672 
 561   0.0000       5.887725       160.2131 
 562   0.0000       5.897239       160.4720 
 563   0.0000       5.920836       161.1141 
 564   0.0000       5.934336       161.4815 
 565   0.0000       5.938039       161.5823 
 566   0.0000       5.938291       161.5891 
 567   0.0000       5.940545       161.6504 
 568   0.0000       5.942662       161.7081 
 569   0.0000       5.944127       161.7479 
 570   0.0000       5.952079       161.9643 
 571   0.0000       5.956091       162.0735 
 572   0.0000       5.958194       162.1307 
 573   0.0000       5.968019       162.3981 
 574   0.0000       5.973387       162.5441 
 575   0.0000       5.982350       162.7880 
 576   0.0000       6.066743       165.0845 
 577   0.0000       6.081330       165.4814 
 578   0.0000       6.125398       166.6806 
 579   0.0000       6.139782       167.0720 
 580   0.0000       6.150723       167.3697 
 581   0.0000       6.160765       167.6429 
 582   0.0000       6.174182       168.0080 
 583   0.0000       6.198526       168.6705 
 584   0.0000       6.201831       168.7604 
 585   0.0000       6.234190       169.6409 
 586   0.0000       6.239560       169.7871 
 587   0.0000       6.254301       170.1882 
 588   0.0000       6.274390       170.7348 
 589   0.0000       6.277175       170.8106 
 590   0.0000       6.280249       170.8943 
 591   0.0000       6.281809       170.9367 
 592   0.0000       6.286418       171.0621 
 593   0.0000       6.298562       171.3926 
 594   0.0000       6.331167       172.2798 
 595   0.0000       6.340138       172.5239 
 596   0.0000       6.347487       172.7239 
 597   0.0000       6.352759       172.8674 
 598   0.0000       6.353635       172.8912 
 599   0.0000       6.355189       172.9335 
 600   0.0000       6.377141       173.5308 
 601   0.0000       6.380250       173.6154 
 602   0.0000       6.381516       173.6499 
 603   0.0000       6.382979       173.6897 
 604   0.0000       6.386666       173.7900 
 605   0.0000       6.390647       173.8983 
 606   0.0000       6.403352       174.2441 
 607   0.0000       6.405613       174.3056 
 608   0.0000       6.406248       174.3229 
 609   0.0000       6.407449       174.3555 
 610   0.0000       6.408848       174.3936 
 611   0.0000       6.410727       174.4447 
 612   0.0000       6.412326       174.4883 
 613   0.0000       6.434502       175.0917 
 614   0.0000       6.436039       175.1335 
 615   0.0000       6.446668       175.4228 
 616   0.0000       6.450675       175.5318 
 617   0.0000       6.451661       175.5586 
 618   0.0000       6.476379       176.2312 
 619   0.0000       6.482166       176.3887 
 620   0.0000       6.483521       176.4256 
 621   0.0000       6.496156       176.7694 
 622   0.0000       6.500499       176.8876 
 623   0.0000       6.502444       176.9405 
 624   0.0000       6.521454       177.4578 
 625   0.0000       6.522912       177.4975 
 626   0.0000       6.532013       177.7451 
 627   0.0000       6.536663       177.8716 
 628   0.0000       6.565469       178.6555 
 629   0.0000       6.589984       179.3226 
 630   0.0000       6.610921       179.8923 
 631   0.0000       6.627150       180.3339 
 632   0.0000       6.635707       180.5668 
 633   0.0000       6.668763       181.4663 
 634   0.0000       6.683496       181.8672 
 635   0.0000       6.686764       181.9561 
 636   0.0000       6.741828       183.4545 
 637   0.0000       6.744666       183.5317 
 638   0.0000       6.755770       183.8338 
 639   0.0000       6.780733       184.5131 
 640   0.0000       6.857529       186.6028 
 641   0.0000       6.875776       187.0994 
 642   0.0000       6.902159       187.8173 
 643   0.0000       6.921011       188.3303 
 644   0.0000       6.934439       188.6957 
 645   0.0000       6.935340       188.7202 
 646   0.0000       6.989998       190.2075 
 647   0.0000       6.991664       190.2529 
 648   0.0000       7.004745       190.6088 
 649   0.0000       7.007588       190.6862 
 650   0.0000       7.014708       190.8799 
 651   0.0000       7.016791       190.9366 
 652   0.0000       7.034692       191.4237 
 653   0.0000       7.041809       191.6174 
 654   0.0000       7.055885       192.0004 
 655   0.0000       7.061637       192.1569 
 656   0.0000       7.079391       192.6400 
 657   0.0000       7.083872       192.7619 
 658   0.0000       7.085636       192.8099 
 659   0.0000       7.112648       193.5450 
 660   0.0000       7.129594       194.0061 
 661   0.0000       7.132079       194.0737 
 662   0.0000       7.132984       194.0984 
 663   0.0000       7.136195       194.1857 
 664   0.0000       7.145070       194.4272 
 665   0.0000       7.151016       194.5890 
 666   0.0000       7.157003       194.7520 
 667   0.0000       7.174373       195.2246 
 668   0.0000       7.192271       195.7116 
 669   0.0000       7.228100       196.6866 
 670   0.0000       7.236252       196.9084 
 671   0.0000       7.254671       197.4096 
 672   0.0000      43.413726      1181.3475 
 673   0.0000      43.415439      1181.3942 
 674   0.0000      43.459806      1182.6014 
 675   0.0000      43.461041      1182.6350 
 676   0.0000      43.496635      1183.6036 
 677   0.0000      43.503729      1183.7967 
 678   0.0000      43.504246      1183.8107 
 679   0.0000      43.565232      1185.4702 
 680   0.0000      43.583198      1185.9591 
 681   0.0000      43.605620      1186.5693 
 682   0.0000      43.612432      1186.7546 
 683   0.0000      43.628467      1187.1910 
 684   0.0000      43.726984      1189.8717 
 685   0.0000      43.740162      1190.2303 
 686   0.0000      43.837759      1192.8861 
 687   0.0000      43.984718      1196.8850 

                    ********************************
                    * MULLIKEN POPULATION ANALYSIS *
                    ********************************

-----------------------
MULLIKEN ATOMIC CHARGES
-----------------------
   0 O :   -0.742550
   1 H :    0.368482
   2 H :    0.335125
   3 O :   -0.745260
   4 H :    0.361564
   5 H :    0.371202
   6 O :   -0.745855
   7 H :    0.385824
   8 H :    0.351416
   9 O :   -0.677880
  10 H :    0.358790
  11 H :    0.380280
  12 O :   -0.741479
  13 H :    0.334949
  14 H :    0.367313
  15 O :   -0.742012
  16 H :    0.335127
  17 H :    0.367974
  18 O :   -0.746475
  19 H :    0.371528
  20 H :    0.361959
  21 O :   -0.678778
  22 H :    0.379812
  23 H :    0.358822
  24 O :   -0.742037
  25 H :    0.368158
  26 H :    0.335417
  27 O :   -0.746294
  28 H :    0.371339
  29 H :    0.361927
  30 O :   -0.678484
  31 H :    0.380174
  32 H :    0.358005
  33 O :   -0.745437
  34 H :    0.351744
  35 H :    0.385777
  36 O :   -0.746248
  37 H :    0.386119
  38 H :    0.351649
  39 O :   -0.678434
  40 H :    0.379876
  41 H :    0.358370
  42 O :   -0.745491
  43 H :    0.385782
  44 H :    0.351769
  45 O :   -0.746417
  46 H :    0.371376
  47 H :    0.361482
Sum of atomic charges:   -0.0000000

--------------------------------
MULLIKEN REDUCED ORBITAL CHARGES
--------------------------------
  0 O s       :     3.806100  s :     3.806100
      pz      :     1.587053  p :     4.918711
      px      :     1.623813
      py      :     1.707846
      dz2     :     0.002896  d :     0.016724
      dxz     :     0.006103
[...]
      dx2y2   :     0.002069
      dxy     :     0.005016
      f0      :     0.000105  f :     0.001870
      f+1     :     0.000427
      f-1     :     0.000422
      f+2     :     0.000245
      f-2     :     0.000491
      f+3     :     0.000115
      f-3     :     0.000065
 19 H s       :     0.667889  s :     0.667889
      pz      :     0.081967  p :     0.184260
      px      :     0.060064
      py      :     0.042229
 20 H s       :     0.661868  s :     0.661868
      pz      :     0.075744  p :     0.199331
      px      :     0.043616
      py      :     0.079970
 21 O s       :     3.462136  s :     3.462136
      pz      :     1.615227  p :     4.775057
      px      :     1.625134
      py      :     1.534696
      dz2     :     0.001761  d :     0.030258
      dxz     :     0.008966
      dyz     :     0.012360
      dx2y2   :     0.000317
      dxy     :     0.006854
      f0      :     0.000198  f :     0.002055
      f+1     :     0.000199
      f-1     :     0.000266
      f+2     :     0.000034
      f-2     :     0.000951
      f+3     :     0.000284
      f-3     :     0.000124
 22 H s       :     0.668486  s :     0.668486
      pz      :     0.060519  p :     0.176711
      px      :     0.057222
      py      :     0.058971
 23 H s       :     0.671685  s :     0.671685
      pz      :     0.070744  p :     0.181128
      px      :     0.050479
      py      :     0.059905
 24 O s       :     3.478264  s :     3.478264
      pz      :     1.429713  p :     4.805981
      px      :     1.686959
      py      :     1.689309
      dz2     :     0.015162  d :     0.029054
      dxz     :     0.002383
      dyz     :     0.002305
      dx2y2   :     0.000862
      dxy     :     0.008341
      f0      :     0.001153  f :     0.002058
      f+1     :     0.000097
      f-1     :     0.000177
      f+2     :     0.000029
      f-2     :     0.000146
      f+3     :     0.000197
      f-3     :     0.000259
 25 H s       :     0.637353  s :     0.637353
      pz      :     0.032630  p :     0.218841
      px      :     0.096088
      py      :     0.090124
 26 H s       :     0.680472  s :     0.680472
      pz      :     0.082516  p :     0.158950
      px      :     0.037842
      py      :     0.038592
 27 O s       :     3.471153  s :     3.471153
      pz      :     1.447534  p :     4.802702
      px      :     1.633741
      py      :     1.721427
      dz2     :     0.001397  d :     0.029344
      dxz     :     0.012295
      dyz     :     0.007896
      dx2y2   :     0.002985
      dxy     :     0.004771
      f0      :     0.000062  f :     0.001871
      f+1     :     0.000486
      f-1     :     0.000269
      f+2     :     0.000422
      f-2     :     0.000429
      f+3     :     0.000149
      f-3     :     0.000055
 28 H s       :     0.667903  s :     0.667903
      pz      :     0.073588  p :     0.184570
      px      :     0.072280
      py      :     0.038702
 29 H s       :     0.661924  s :     0.661924
      pz      :     0.079151  p :     0.199236
      px      :     0.042435
      py      :     0.077650
 30 O s       :     3.462370  s :     3.462370
      pz      :     1.412902  p :     4.774954
      px      :     1.585778
      py      :     1.776275
      dz2     :     0.001760  d :     0.030282
      dxz     :     0.012765
      dyz     :     0.007116
      dx2y2   :     0.003413
      dxy     :     0.005228
      f0      :     0.000091  f :     0.002054
      f+1     :     0.000443
      f-1     :     0.000397
      f+2     :     0.000451
      f-2     :     0.000412
      f+3     :     0.000163
      f-3     :     0.000096
 31 H s       :     0.668158  s :     0.668158
      pz      :     0.061973  p :     0.177301
      px      :     0.074757
      py      :     0.040571
 32 H s       :     0.672121  s :     0.672121
      pz      :     0.077319  p :     0.180874
      px      :     0.041228
      py      :     0.062327
 33 O s       :     3.467878  s :     3.467878
      pz      :     1.678490  p :     4.798838
      px      :     1.601001
      py      :     1.519347
      dz2     :     0.001836  d :     0.029099
      dxz     :     0.007120
      dyz     :     0.006316
      dx2y2   :     0.001126
      dxy     :     0.012700
      f0      :     0.000378  f :     0.001901
      f+1     :     0.000072
      f-1     :     0.000060
      f+2     :     0.000083
      f-2     :     0.000729
      f+3     :     0.000256
      f-3     :     0.000323
 34 H s       :     0.662712  s :     0.662712
      pz      :     0.044584  p :     0.198736
      px      :     0.083048
      py      :     0.071104
 35 H s       :     0.666085  s :     0.666085
      pz      :     0.060918  p :     0.178146
      px      :     0.055240
      py      :     0.061987
 36 O s       :     3.467811  s :     3.467811
      pz      :     1.618279  p :     4.798742
      px      :     1.461406
      py      :     1.719057
      dz2     :     0.002390  d :     0.029118
      dxz     :     0.012670
      dyz     :     0.004642
      dx2y2   :     0.002162
      dxy     :     0.007255
      f0      :     0.000164  f :     0.001902
      f+1     :     0.000401
      f-1     :     0.000052
      f+2     :     0.000470
      f-2     :     0.000396
      f+3     :     0.000168
      f-3     :     0.000251
 37 H s       :     0.665982  s :     0.665982
      pz      :     0.072056  p :     0.177956
      px      :     0.068467
      py      :     0.037433
 38 H s       :     0.662409  s :     0.662409
      pz      :     0.042474  p :     0.199477
      px      :     0.079341
      py      :     0.077662
 39 O s       :     3.462259  s :     3.462259
      pz      :     1.389013  p :     4.775101
      px      :     1.796239
      py      :     1.589849
      dz2     :     0.002345  d :     0.030267
      dxz     :     0.005883
      dyz     :     0.013886
      dx2y2   :     0.002823
      dxy     :     0.005330
      f0      :     0.000091  f :     0.002054
      f+1     :     0.000337
      f-1     :     0.000565
      f+2     :     0.000410
      f-2     :     0.000413
      f+3     :     0.000097
      f-3     :     0.000141
 40 H s       :     0.668314  s :     0.668314
      pz      :     0.076257  p :     0.176983
      px      :     0.056362
      py      :     0.044364
 41 H s       :     0.672028  s :     0.672028
      pz      :     0.065579  p :     0.181159
      px      :     0.040893
      py      :     0.074686
 42 O s       :     3.467752  s :     3.467752
      pz      :     1.523439  p :     4.798801
      px      :     1.672435
      py      :     1.602927
      dz2     :     0.006450  d :     0.029116
      dxz     :     0.006692
      dyz     :     0.005385
      dx2y2   :     0.001037
      dxy     :     0.009551
      f0      :     0.000197  f :     0.001904
      f+1     :     0.000453
      f-1     :     0.000416
      f+2     :     0.000041
      f-2     :     0.000312
      f+3     :     0.000234
      f-3     :     0.000250
 43 H s       :     0.666081  s :     0.666081
      pz      :     0.086104  p :     0.177989
      px      :     0.048855
      py      :     0.043029
 44 H s       :     0.662685  s :     0.662685
      pz      :     0.036822  p :     0.199095
      px      :     0.082718
      py      :     0.079554
 45 O s       :     3.470662  s :     3.470662
      pz      :     1.599612  p :     4.802218
      px      :     1.657571
      py      :     1.545035
      dz2     :     0.001879  d :     0.029330
      dxz     :     0.007978
      dyz     :     0.012141
      dx2y2   :     0.000902
      dxy     :     0.006432
      f0      :     0.000182  f :     0.001876
      f+1     :     0.000134
      f-1     :     0.000313
      f+2     :     0.000121
      f-2     :     0.000760
      f+3     :     0.000260
      f-3     :     0.000106
 46 H s       :     0.668018  s :     0.668018
      pz      :     0.058470  p :     0.184364
      px      :     0.066866
      py      :     0.059028
 47 H s       :     0.661793  s :     0.661793
      pz      :     0.082059  p :     0.198981
      px      :     0.043982
      py      :     0.072939


                      *****************************
                      * MAYER POPULATION ANALYSIS *
                      *****************************

  NA   - Mulliken gross atomic population
  ZA   - Total nuclear charge
  QA   - Mulliken gross atomic charge
  VA   - Mayer's total valence
  BVA  - Mayer's bonded valence
  FA   - Mayer's free valence

  ATOM       NA         ZA         QA         VA         BVA        FA
  0 O      8.7426     8.0000    -0.7426     1.7646     1.7646    -0.0000
  1 H      0.6315     1.0000     0.3685     0.9298     0.9298    -0.0000
  2 H      0.6649     1.0000     0.3351     0.9086     0.9086    -0.0000
  3 O      8.7453     8.0000    -0.7453     1.7749     1.7749     0.0000
  4 H      0.6384     1.0000     0.3616     0.9296     0.9296     0.0000
  5 H      0.6288     1.0000     0.3712     0.9262     0.9262     0.0000
  6 O      8.7459     8.0000    -0.7459     1.7821     1.7821     0.0000
  7 H      0.6142     1.0000     0.3858     0.9024     0.9024     0.0000
  8 H      0.6486     1.0000     0.3514     0.9422     0.9422     0.0000
  9 O      8.6779     8.0000    -0.6779     1.8530     1.8530     0.0000
 10 H      0.6412     1.0000     0.3588     0.9290     0.9290     0.0000
 11 H      0.6197     1.0000     0.3803     0.9007     0.9007     0.0000
 12 O      8.7415     8.0000    -0.7415     1.7643     1.7643     0.0000
 13 H      0.6651     1.0000     0.3349     0.9087     0.9087     0.0000
 14 H      0.6327     1.0000     0.3673     0.9309     0.9309     0.0000
 15 O      8.7420     8.0000    -0.7420     1.7640     1.7640     0.0000
 16 H      0.6649     1.0000     0.3351     0.9086     0.9086     0.0000
 17 H      0.6320     1.0000     0.3680     0.9303     0.9303     0.0000
 18 O      8.7465     8.0000    -0.7465     1.7746     1.7746    -0.0000
 19 H      0.6285     1.0000     0.3715     0.9264     0.9264    -0.0000
 20 H      0.6380     1.0000     0.3620     0.9289     0.9289    -0.0000
 21 O      8.6788     8.0000    -0.6788     1.8514     1.8514    -0.0000
 22 H      0.6202     1.0000     0.3798     0.9008     0.9008     0.0000
 23 H      0.6412     1.0000     0.3588     0.9295     0.9295     0.0000
 24 O      8.7420     8.0000    -0.7420     1.7649     1.7649    -0.0000
 25 H      0.6318     1.0000     0.3682     0.9298     0.9298    -0.0000
 26 H      0.6646     1.0000     0.3354     0.9084     0.9084    -0.0000
 27 O      8.7463     8.0000    -0.7463     1.7742     1.7742    -0.0000
 28 H      0.6287     1.0000     0.3713     0.9267     0.9267    -0.0000
 29 H      0.6381     1.0000     0.3619     0.9290     0.9290    -0.0000
 30 O      8.6785     8.0000    -0.6785     1.8521     1.8521    -0.0000
 31 H      0.6198     1.0000     0.3802     0.9010     0.9010    -0.0000
 32 H      0.6420     1.0000     0.3580     0.9303     0.9303    -0.0000
 33 O      8.7454     8.0000    -0.7454     1.7823     1.7823     0.0000
 34 H      0.6483     1.0000     0.3517     0.9425     0.9425     0.0000
 35 H      0.6142     1.0000     0.3858     0.9018     0.9018     0.0000
 36 O      8.7462     8.0000    -0.7462     1.7818     1.7818    -0.0000
 37 H      0.6139     1.0000     0.3861     0.9014     0.9014    -0.0000
 38 H      0.6484     1.0000     0.3516     0.9424     0.9424    -0.0000
 39 O      8.6784     8.0000    -0.6784     1.8522     1.8522    -0.0000
 40 H      0.6201     1.0000     0.3799     0.9011     0.9011    -0.0000
 41 H      0.6416     1.0000     0.3584     0.9299     0.9299    -0.0000
 42 O      8.7455     8.0000    -0.7455     1.7833     1.7833     0.0000
 43 H      0.6142     1.0000     0.3858     0.9018     0.9018     0.0000
 44 H      0.6482     1.0000     0.3518     0.9418     0.9418     0.0000
 45 O      8.7464     8.0000    -0.7464     1.7730     1.7730     0.0000
 46 H      0.6286     1.0000     0.3714     0.9263     0.9263     0.0000
 47 H      0.6385     1.0000     0.3615     0.9299     0.9299     0.0000

  Mayer bond orders larger than 0.1
B(  0-O ,  1-H ) :   0.6927 B(  0-O ,  2-H ) :   0.8865 B(  0-O , 28-H ) :   0.1126 
B(  0-O , 41-H ) :   0.1068 B(  1-H ,  9-O ) :   0.2229 B(  3-O ,  4-H ) :   0.7548 
B(  3-O ,  5-H ) :   0.7981 B(  3-O , 38-H ) :   0.1665 B(  4-H , 33-O ) :   0.1594 
B(  5-H , 15-O ) :   0.1113 B(  6-O ,  7-H ) :   0.8042 B(  6-O ,  8-H ) :   0.7553 
B(  6-O , 47-H ) :   0.1593 B(  8-H , 27-O ) :   0.1662 B(  9-O , 10-H ) :   0.8140 
B(  9-O , 11-H ) :   0.8162 B( 10-H , 12-O ) :   0.1055 B( 12-O , 13-H ) :   0.8867 
B( 12-O , 14-H ) :   0.6938 B( 12-O , 46-H ) :   0.1121 B( 14-H , 39-O ) :   0.2230 
B( 15-O , 16-H ) :   0.8865 B( 15-O , 17-H ) :   0.6933 B( 15-O , 23-H ) :   0.1068 
B( 17-H , 30-O ) :   0.2230 B( 18-O , 19-H ) :   0.7977 B( 18-O , 20-H ) :   0.7554 
B( 18-O , 34-H ) :   0.1659 B( 19-H , 24-O ) :   0.1118 B( 20-H , 36-O ) :   0.1586 
B( 21-O , 22-H ) :   0.8166 B( 21-O , 23-H ) :   0.8130 B( 21-O , 25-H ) :   0.2219 
B( 24-O , 25-H ) :   0.6938 B( 24-O , 26-H ) :   0.8863 B( 24-O , 32-H ) :   0.1069 
B( 27-O , 28-H ) :   0.7972 B( 27-O , 29-H ) :   0.7558 B( 29-H , 42-O ) :   0.1581 
B( 30-O , 31-H ) :   0.8157 B( 30-O , 32-H ) :   0.8139 B( 33-O , 34-H ) :   0.7553 
B( 33-O , 35-H ) :   0.8046 B( 36-O , 37-H ) :   0.8047 B( 36-O , 38-H ) :   0.7543 
B( 39-O , 40-H ) :   0.8163 B( 39-O , 41-H ) :   0.8136 B( 42-O , 43-H ) :   0.8051 
B( 42-O , 44-H ) :   0.7558 B( 44-H , 45-O ) :   0.1647 B( 45-O , 46-H ) :   0.7974 
B( 45-O , 47-H ) :   0.7553 

-------
TIMINGS
-------

Total SCF time: 0 days 0 hours 1 min 7 sec 

Total time                  ....      67.736 sec
Sum of individual times     ....      63.901 sec  ( 94.3%)

Fock matrix formation       ....      51.673 sec  ( 76.3%)
  Coulomb formation         ....      46.007 sec  ( 89.0% of F)
  Split-RI-J                ....       5.400 sec  ( 10.4% of F)
  Chain of spheres X        ....      47.499 sec  ( 91.9% of F)
  XC integration            ....       5.537 sec  ( 10.7% of F)
    Basis function eval.    ....       1.461 sec  ( 26.4% of XC)
    Density eval.           ....       1.391 sec  ( 25.1% of XC)
    XC-Functional eval.     ....       0.155 sec  (  2.8% of XC)
    XC-Potential eval.      ....       2.092 sec  ( 37.8% of XC)
Diagonalization             ....       1.206 sec  (  1.8%)
Density matrix formation    ....       0.109 sec  (  0.2%)
Population analysis         ....       0.933 sec  (  1.4%)
Initial guess               ....       2.565 sec  (  3.8%)
Orbital Transformation      ....       0.000 sec  (  0.0%)
Orbital Orthonormalization  ....       0.000 sec  (  0.0%)
DIIS solution               ....       0.434 sec  (  0.6%)
SOSCF solution              ....       0.771 sec  (  1.1%)
Grid generation             ....       6.210 sec  (  9.2%)
           ************************************************************
           *              Shut down parallel processing               *
           ************************************************************

Entering the calculation of the dispersion correction...

Checking the input atom types...

Done


-------------------------------------------------------------------------------
                          DFT DISPERSION CORRECTION                            
                                                                               
                                DFTD3 V2.1  Rev 6                               
                          USING Becke-Johnson damping                          
-------------------------------------------------------------------------------
The B3LYP functional is recognized
Active option DFTDOPT                   ...         4   

molecular C6(AA) [au] = 11387.476833 


            DFT-D V3
 parameters
 s6 scaling factor         :     1.0000 
 a1 scaling factor         :     0.3981 
 s8 scaling factor         :     1.9889 
 a2 scaling factor         :     4.4211 
 ad hoc parameters k1-k3   :    16.0000     1.3333    -4.0000 

 Edisp/kcal,au: -39.676654723440  -0.063228767263 
 E6   /kcal   : -21.923947525 
 E8   /kcal   : -17.752707198 
 % E8         :  44.743457638 

-------------------------   ----------------
Dispersion correction           -0.063228767
-------------------------   ----------------


-------------------------   --------------------
FINAL SINGLE POINT ENERGY     -1223.121758415508
-------------------------   --------------------


                            ***************************************
                            *     ORCA property calculations      *
                            ***************************************

                                    ---------------------
                                    Active property flags
                                    ---------------------
   (+) Dipole Moment


------------------------------------------------------------------------------
                       ORCA ELECTRIC PROPERTIES CALCULATION
------------------------------------------------------------------------------

Dipole Moment Calculation                       ... on
Quadrupole Moment Calculation                   ... off
Polarizability Calculation                      ... off
GBWName                                         ... 1_B3LYP_GasPhase_onBP86_16_waters.gbw
Electron density file                           ... 1_B3LYP_GasPhase_onBP86_16_waters.scfp.tmp

-------------
DIPOLE MOMENT
-------------
                                X             Y             Z
Electronic contribution:     -0.00280       0.00294      -0.00371
Nuclear contribution   :     -0.01604      -0.02139      -0.00043
                        -----------------------------------------
Total Dipole Moment    :     -0.01884      -0.01845      -0.00414
                        -----------------------------------------
Magnitude (a.u.)       :      0.02669
Magnitude (Debye)      :      0.06784

smp-n52.crc.pitt.edu.109666hfi_wait_for_device: The /dev/hfi1_0 device failed to appear after 15.0 seconds: Connection timed out
smp-n52.crc.pitt.edu.109667hfi_wait_for_device: The /dev/hfi1_0 device failed to appear after 15.0 seconds: Connection timed out
smp-n52.crc.pitt.edu.109668hfi_wait_for_device: The /dev/hfi1_0 device failed to appear after 15.0 seconds: Connection timed out
smp-n52.crc.pitt.edu.109669hfi_wait_for_device: The /dev/hfi1_0 device failed to appear after 15.0 seconds: Connection timed out
smp-n52.crc.pitt.edu.109670hfi_wait_for_device: The /dev/hfi1_0 device failed to appear after 15.0 seconds: Connection timed out
smp-n52.crc.pitt.edu.109673hfi_wait_for_device: The /dev/hfi1_0 device failed to appear after 15.0 seconds: Connection timed out
smp-n52.crc.pitt.edu.109675hfi_wait_for_device: The /dev/hfi1_0 device failed to appear after 15.0 seconds: Connection timed out
smp-n52.crc.pitt.edu.109677hfi_wait_for_device: The /dev/hfi1_0 device failed to appear after 15.0 seconds: Connection timed out
smp-n52.crc.pitt.edu.109679hfi_wait_for_device: The /dev/hfi1_0 device failed to appear after 15.0 seconds: Connection timed out
smp-n52.crc.pitt.edu.109681hfi_wait_for_device: The /dev/hfi1_0 device failed to appear after 15.0 seconds: Connection timed out
smp-n52.crc.pitt.edu.109671hfi_wait_for_device: The /dev/hfi1_0 device failed to appear after 15.0 seconds: Connection timed out
smp-n52.crc.pitt.edu.109683hfi_wait_for_device: The /dev/hfi1_0 device failed to appear after 15.0 seconds: Connection timed out

Timings for individual modules:

Sum of individual times         ...      101.808 sec (=   1.697 min)
GTO integral calculation        ...       15.980 sec (=   0.266 min)  15.7 %
SCF iterations                  ...       85.828 sec (=   1.430 min)  84.3 %
                             ****ORCA TERMINATED NORMALLY****
TOTAL RUN TIME: 0 days 0 hours 1 minutes 57 seconds 383 msec
cp: cannot stat ‘/scratch/slurm-1328790/*.{prop}’: No such file or directory
