
                                 *****************
                                 * O   R   C   A *
                                 *****************

           --- An Ab Initio, DFT and Semiempirical electronic structure package ---

                  #######################################################
                  #                        -***-                        #
                  #  Department of molecular theory and spectroscopy    #
                  #              Directorship: Frank Neese              #
                  # Max Planck Institute for Chemical Energy Conversion #
                  #                  D-45470 Muelheim/Ruhr              #
                  #                       Germany                       #
                  #                                                     #
                  #                  All rights reserved                #
                  #                        -***-                        #
                  #######################################################


                         Program Version 3.0.3 - RELEASE   -


 With contributions from (in alphabetic order):
   Ute Becker             : Parallelization
   Dmytro Bykov           : SCF Hessian
   Dmitry Ganyushin       : Spin-Orbit,Spin-Spin,Magnetic field MRCI
   Andreas Hansen         : Spin unrestricted coupled pair/coupled cluster methods
   Dimitrios Liakos       : Extrapolation schemes; parallel MDCI
   Robert Izsak           : Overlap fitted RIJCOSX, COSX-SCS-MP3
   Christian Kollmar      : KDIIS, OOCD, Brueckner-CCSD(T), CCSD density
   Simone Kossmann        : Meta GGA functionals, TD-DFT gradient, OOMP2, MP2 Hessian
   Taras Petrenko         : DFT Hessian,TD-DFT gradient, ASA and ECA modules, normal mode analysis, Resonance Raman, ABS, FL, XAS/XES, NRVS
   Christoph Reimann      : Effective Core Potentials
   Michael Roemelt        : Restricted open shell CIS
   Christoph Riplinger    : Improved optimizer, TS searches, QM/MM, DLPNO-CCSD
   Barbara Sandhoefer     : DKH picture change effects
   Igor Schapiro          : Molecular dynamics
   Kantharuban Sivalingam : CASSCF convergence, NEVPT2
   Boris Wezisla          : Elementary symmetry handling
   Frank Wennmohs         : Technical directorship


 We gratefully acknowledge several colleagues who have allowed us to
 interface, adapt or use parts of their codes:
   Stefan Grimme, W. Hujo, H. Kruse, T. Risthaus : VdW corrections, initial TS optimization,
                                                   DFT functionals, gCP
   Ed Valeev                                     : LibInt (2-el integral package), F12 methods
   Garnet Chan, S. Sharma, R. Olivares           : DMRG
   Ulf Ekstrom                                   : XCFun DFT Library
   Mihaly Kallay                                 : mrcc  (arbitrary order and MRCC methods)
   Andreas Klamt, Michael Diedenhofen            : otool_cosmo (COSMO solvation model)
   Frank Weinhold                                : gennbo (NPA and NBO analysis)
   Christopher J. Cramer and Donald G. Truhlar   : smd solvation model


 Your calculation uses the libint2 library for the computation of 2-el integrals
 For citations please refer to: http://libint.valeyev.net

 This ORCA versions uses:
   CBLAS   interface :  Fast vector & matrix operations
   LAPACKE interface :  Fast linear algebra routines
   SCALAPACK package :  Parallel linear algebra routines


Your calculation utilizes the basis: ma-def2-TZVP
Cite in your paper:
        def2-TZVP: F. Weigend, R. Ahlrichs, Phys. Chem. Chem. Phys. 2005, 7, 3297.
        Minimal augmentation of diffuse functions: J. Zheng, X. Xu, D. G. Truhlar, Theor. Chem. Acc. 2011, 128, 295.

Your calculation utilizes the atom-pairwise dispersion correction
with the zero-damping scheme (D30)
Cite in your paper:
S.Grimme, J.Antony, S.Ehrlich and H.Krieg, J.Chem.Phys., 132, (2010), 154104 
   

XCFun DFT library Copyright 2009-2010 Ulf Ekstrom and contributors.
See http://admol.org/xcfun for more information. This is free soft-
ware; see the source code for copying conditions. There is ABSOLUTELY
NO WARRANTY; not even for MERCHANTABILITY or FITNESS FOR A PARTICULAR
PURPOSE. For details see the documentation. Scientific users of this 
library should cite U. Ekstrom, L. Visscher, R. Bast, A. J. Thorvald-
sen and K. Ruud; J.Chem.Theor.Comp. 2010, DOI: 10.1021/ct100117s
XCFun Version 0.99 
================================================================================
                                        WARNINGS
                       Please study these warnings very carefully!
================================================================================
Now building the actual basis set


INFO   : the flag for use of LIBINT has been found!

================================================================================
                                       INPUT FILE
================================================================================
NAME = 1_wb98x-ma-def2-TZVP-GasPhase_onBP86_16_waters.inp
|  1> ! wB97X-D3 MA-Def2-TZVP def2-TZVP/J RIJCOSX TightSCF Grid4 
|  2> 
|  3> %pal nprocs 1 end
|  4> 
|  5> %scf
|  6>         maxiter 400
|  7> end
|  8> 
|  9> * xyz  0  1
| 10> O  3.074174	0.224032	-3.143939
| 11> H  2.385441	-0.437264	-3.574818
| 12> H  3.597188	0.590515	-3.880001
| 13> O  -2.211738	0.458902	-0.445911
| 14> H  -1.942671	-0.245188	0.235801
| 15> H  -3.036057	0.855982	-0.040719
| 16> O  -0.445410	-0.449688	-2.210867
| 17> H  -1.309619	-0.112647	-1.845262
| 18> H  0.223147	0.257841	-1.919890
| 19> O  1.335959	-1.449557	-3.989090
| 20> H  1.581789	-2.242684	-3.433272
| 21> H  0.498174	-1.126541	-3.558847
| 22> O  2.143171	-3.236612	-2.086105
| 23> H  2.529200	-4.117172	-2.246177
| 24> H  2.929081	-2.633198	-1.748469
| 25> O  -3.919254	1.553518	1.272845
| 26> H  -4.803609	1.958047	1.206631
| 27> H  -3.274530	2.314122	1.592573
| 28> O  0.476579	0.542405	2.202061
| 29> H  0.037782	0.866744	3.041554
| 30> H  0.205100	1.245444	1.520873
| 31> O  -3.088049	-0.209619	3.185250
| 32> H  -2.572536	-0.840080	2.612865
| 33> H  -3.567175	0.358509	2.516430
| 34> O  -1.304610	1.460044	3.951608
| 35> H  -2.041674	0.751588	3.724067
| 36> H  -1.334326	1.583515	4.918028
| 37> O  1.409784	1.239222	-1.335557
| 38> H  2.080385	1.141676	-2.072867
| 39> H  1.770927	0.615133	-0.620042
| 40> O  -2.190702	3.256518	2.090722
| 41> H  -1.460944	3.157982	1.420260
| 42> H  -1.834927	2.758655	2.880713
| 43> O  -1.331553	-1.232049	1.397038
| 44> H  -0.598945	-0.621986	1.748435
| 45> H  -0.832288	-1.917170	0.873104
| 46> O  -0.397588	2.226036	0.347686
| 47> H  0.314488	2.214263	-0.349384
| 48> H  -1.106962	1.601356	-0.025945
| 49> O  3.940929	-1.591722	-1.296120
| 50> H  3.532700	-1.194753	-0.479284
| 51> H  3.811875	-0.875253	-1.980545
| 52> O  2.179151	-0.544027	0.472136
| 53> H  1.834600	-0.184528	1.334980
| 54> H  1.486247	-1.240034	0.211573
| 55> O  0.335580	-2.238835	-0.411586
| 56> H  0.913229	-2.871630	-0.928989
| 57> H  -0.021512	-1.619810	-1.133549
| 58> **                         ****END OF INPUT****
================================================================================

                       ****************************
                       * Single Point Calculation *
                       ****************************

---------------------------------
CARTESIAN COORDINATES (ANGSTROEM)
---------------------------------
  O      3.074174    0.224032   -3.143939
  H      2.385441   -0.437264   -3.574818
  H      3.597188    0.590515   -3.880001
  O     -2.211738    0.458902   -0.445911
  H     -1.942671   -0.245188    0.235801
  H     -3.036057    0.855982   -0.040719
  O     -0.445410   -0.449688   -2.210867
  H     -1.309619   -0.112647   -1.845262
  H      0.223147    0.257841   -1.919890
  O      1.335959   -1.449557   -3.989090
  H      1.581789   -2.242684   -3.433272
  H      0.498174   -1.126541   -3.558847
  O      2.143171   -3.236612   -2.086105
  H      2.529200   -4.117172   -2.246177
  H      2.929081   -2.633198   -1.748469
  O     -3.919254    1.553518    1.272845
  H     -4.803609    1.958047    1.206631
  H     -3.274530    2.314122    1.592573
  O      0.476579    0.542405    2.202061
  H      0.037782    0.866744    3.041554
  H      0.205100    1.245444    1.520873
  O     -3.088049   -0.209619    3.185250
  H     -2.572536   -0.840080    2.612865
  H     -3.567175    0.358509    2.516430
  O     -1.304610    1.460044    3.951608
  H     -2.041674    0.751588    3.724067
  H     -1.334326    1.583515    4.918028
  O      1.409784    1.239222   -1.335557
  H      2.080385    1.141676   -2.072867
  H      1.770927    0.615133   -0.620042
  O     -2.190702    3.256518    2.090722
  H     -1.460944    3.157982    1.420260
  H     -1.834927    2.758655    2.880713
  O     -1.331553   -1.232049    1.397038
  H     -0.598945   -0.621986    1.748435
  H     -0.832288   -1.917170    0.873104
  O     -0.397588    2.226036    0.347686
  H      0.314488    2.214263   -0.349384
  H     -1.106962    1.601356   -0.025945
  O      3.940929   -1.591722   -1.296120
  H      3.532700   -1.194753   -0.479284
  H      3.811875   -0.875253   -1.980545
  O      2.179151   -0.544027    0.472136
  H      1.834600   -0.184528    1.334980
  H      1.486247   -1.240034    0.211573
  O      0.335580   -2.238835   -0.411586
  H      0.913229   -2.871630   -0.928989
  H     -0.021512   -1.619810   -1.133549

----------------------------
CARTESIAN COORDINATES (A.U.)
----------------------------
  NO LB      ZA    FRAG    MASS        X           Y           Z
   0 O     8.0000    0    15.999          5.809346948021230          0.423359125234646         -5.941183691754246
   1 H     1.0000    0     1.008          4.507830198627245         -0.826309208222942         -6.755426998612101
   2 H     1.0000    0     1.008          6.797700172227920          1.115911627972508         -7.332139289340590
   3 O     8.0000    0    15.999         -4.179579099986722          0.867199102308730         -0.842649670102959
   4 H     1.0000    0     1.008         -3.671116158310932         -0.463338171323884          0.445599312104765
   5 H     1.0000    0     1.008         -5.737316256974553          1.617571555566181         -0.076947758447139
   6 O     8.0000    0    15.999         -0.841702917309865         -0.849787165710780         -4.177933148524076
   7 H     1.0000    0     1.008         -2.474821249779816         -0.212871979807827         -3.487039825331796
   8 H     1.0000    0     1.008          0.421686717606126          0.487248876096389         -3.628066307254072
   9 O     8.0000    0    15.999          2.524596636147301         -2.739265745508488         -7.538287623563926
  10 H     1.0000    0     1.008          2.989148011649163         -4.238058564927049         -6.487943823260084
  11 H     1.0000    0     1.008          0.941412427040086         -2.128853968633781         -6.725246182527245
  12 O     8.0000    0    15.999          4.050006248162143         -6.116310281763131         -3.942167136603792
  13 H     1.0000    0     1.008          4.779495337913629         -7.780327526248827         -4.244659378312835
  14 H     1.0000    0     1.008          5.535160914072194         -4.976023076389172         -3.304127563651157
  15 O     8.0000    0    15.999         -7.406316709275401          2.935723564117075          2.405328460930996
  16 H     1.0000    0     1.008         -9.077505464439330          3.700172587346105          2.280202134699534
  17 H     1.0000    0     1.008         -6.187964917309156          4.373056820482114          3.009526818277370
  18 O     8.0000    0    15.999          0.900603791178056          1.024996903669557          4.161292220188765
  19 H     1.0000    0     1.008          0.071397632791813          1.637908788219441          5.747704081532719
  20 H     1.0000    0     1.008          0.387582830067249          2.353548075135419          2.874033454475216
  21 O     8.0000    0    15.999         -5.835566898129387         -0.396122502466439          6.019250168072666
  22 H     1.0000    0     1.008         -4.861388509653241         -1.587521130584565          4.937599274908152
  23 H     1.0000    0     1.008         -6.740983821770541          0.677483826545974          4.755363535183456
  24 O     8.0000    0    15.999         -2.465355611575004          2.759083303474920          7.467456908612289
  25 H     1.0000    0     1.008         -3.858204714747537          1.420295485541606          7.037466734373713
  26 H     1.0000    0     1.008         -2.521510713370608          2.992409678956311          9.293726038956464
  27 O     8.0000    0    15.999          2.664105667984038          2.341790199130161         -2.523836966241465
  28 H     1.0000    0     1.008          3.931357903117763          2.157454973670679         -3.917150942042943
  29 H     1.0000    0     1.008          3.346567033166760          1.162432905937381         -1.171709571528801
  30 O     8.0000    0    15.999         -4.139826821033553          6.153927170184966          3.950892002164107
  31 H     1.0000    0     1.008         -2.760784056995449          5.967721115852902          2.683902438962997
  32 H     1.0000    0     1.008         -3.467509505737720          5.213102447972530          5.443758640426691
  33 O     8.0000    0    15.999         -2.516270502801244         -2.328235193571544          2.640019218681077
  34 H     1.0000    0     1.008         -1.131842019281464         -1.175383199133144          3.304063312962604
  35 H     1.0000    0     1.008         -1.572796384549051         -3.622926252169806          1.649927446431180
  36 O     8.0000    0    15.999         -0.751332434133483          4.206598404249528          0.657031320598544
  37 H     1.0000    0     1.008          0.594296192404627          4.184350658474872         -0.660240075573942
  38 H     1.0000    0     1.008         -2.091855020657737          3.026124282911600         -0.049028944544587
  39 O     8.0000    0    15.999          7.447276523228145         -3.007918661337403         -2.449311836698012
  40 H     1.0000    0     1.008          6.675835513303606         -2.257755967680817         -0.905715500370313
  41 H     1.0000    0     1.008          7.203399806741071         -1.653988467892977         -3.742687645907065
  42 O     8.0000    0    15.999          4.117998594460629         -1.028062039458777          0.892207737965044
  43 H     1.0000    0     1.008          3.466891565291928         -0.348707384040221          2.522746594262192
  44 H     1.0000    0     1.008          2.808599797362059         -2.343324656750906          0.399815027332121
  45 O     8.0000    0    15.999          0.634154296021294         -4.230785009037585         -0.777784820556112
  46 H     1.0000    0     1.008          1.725752707554771         -5.426594257952284         -1.755534791425370
  47 H     1.0000    0     1.008         -0.040651788592914         -3.060997288986983         -2.142097169380301

--------------------------------
INTERNAL COORDINATES (ANGSTROEM)
--------------------------------
 O      0   0   0   0.000000     0.000     0.000
 H      1   0   0   1.047532     0.000     0.000
 H      1   2   0   0.974495   106.236     0.000
 O      2   1   3   5.632693   101.987   218.037
 H      4   2   1   1.016303    92.654   271.304
 H      4   2   1   1.000677   163.818    74.052
 O      4   2   1   2.657164    15.004   183.979
 H      7   4   2   0.997056    20.720   227.861
 H      7   4   2   1.015989    90.519   356.614
 O      2   1   3   1.515840   171.571   173.136
 H     10   2   1   0.999208   101.989   311.469
 H     10   2   1   0.995657   104.348    58.378
 O     11  10   2   1.765758   161.697    35.553
 H     13  11  10   0.974693   120.607   207.482
 H     13  11  10   1.046786    99.224   322.406
 O      6   4   2   1.729753   152.637   247.126
 H     16   6   4   0.974737   125.382   171.194
 H     16   6   4   1.047098   102.147    51.093
 O      5   4   2   3.215471   116.083    73.437
 H     19   5   4   1.001243   105.208    97.067
 H     19   5   4   1.015865    63.794     0.096
 O     16   6   4   2.730723    96.663   315.647
 H     22  16   6   0.995419    99.432   354.631
 H     22  16   6   0.999826    11.119   245.414
 O     20  19   5   1.726910   153.356   342.593
 H     25  20  19   1.047353   101.546    51.790
 H     25  20  19   0.974729   126.136   171.961
 O      9   7   4   1.647016   172.162   102.945
 H     28   9   7   1.001422    99.393    90.114
 H     28   9   7   1.015812    98.046   345.678
 O     18  16   6   1.520180   171.633   301.049
 H     31  18  16   0.995879   103.915    62.974
 H     31  18  16   0.999264   101.773   316.396
 O      5   4   2   1.641899   171.632    68.896
 H     34   5   4   1.016057    98.748     3.599
 H     34   5   4   0.996576   103.170   257.428
 O     21  19   5   1.643521   171.715     0.230
 H     37  21  19   0.996543   103.311   252.537
 H     37  21  19   1.016384    98.722   358.791
 O     15  13  11   1.520897   171.957    40.034
 H     40  15  13   0.995719   104.137    65.983
 H     40  15  13   0.999210   101.616   319.325
 O     30  28   9   1.644126   171.626   356.991
 H     43  30  28   0.996220   103.595   256.580
 H     43  30  28   1.016088    98.237     2.701
 O     45  43  30   1.646197   171.626    15.354
 H     46  45  43   1.000906   100.129    89.228
 H     46  45  43   1.015843    98.338   344.584

---------------------------
INTERNAL COORDINATES (A.U.)
---------------------------
 O      0   0   0   0.000000     0.000     0.000
 H      1   0   0   1.979548     0.000     0.000
 H      1   2   0   1.841529   106.236     0.000
 O      2   1   3  10.644247   101.987   218.037
 H      4   2   1   1.920534    92.654   271.304
 H      4   2   1   1.891006   163.818    74.052
 O      4   2   1   5.021312    15.004   183.979
 H      7   4   2   1.884163    20.720   227.861
 H      7   4   2   1.919941    90.519   356.614
 O      2   1   3   2.864522   171.571   173.136
 H     10   2   1   1.888229   101.989   311.469
 H     10   2   1   1.881518   104.348    58.378
 O     11  10   2   3.336799   161.697    35.553
 H     13  11  10   1.841904   120.607   207.482
 H     13  11  10   1.978139    99.224   322.406
 O      6   4   2   3.268759   152.637   247.126
 H     16   6   4   1.841986   125.382   171.194
 H     16   6   4   1.978728   102.147    51.093
 O      5   4   2   6.076359   116.083    73.437
 H     19   5   4   1.892075   105.208    97.067
 H     19   5   4   1.919707    63.794     0.096
 O     16   6   4   5.160318    96.663   315.647
 H     22  16   6   1.881070    99.432   354.631
 H     22  16   6   1.889397    11.119   245.414
 O     20  19   5   3.263388   153.356   342.593
 H     25  20  19   1.979210   101.546    51.790
 H     25  20  19   1.841970   126.136   171.961
 O      9   7   4   3.112409   172.162   102.945
 H     28   9   7   1.892414    99.393    90.114
 H     28   9   7   1.919606    98.046   345.678
 O     18  16   6   2.872723   171.633   301.049
 H     31  18  16   1.881939   103.915    62.974
 H     31  18  16   1.888336   101.773   316.396
 O      5   4   2   3.102739   171.632    68.896
 H     34   5   4   1.920069    98.748     3.599
 H     34   5   4   1.883255   103.170   257.428
 O     21  19   5   3.105805   171.715     0.230
 H     37  21  19   1.883193   103.311   252.537
 H     37  21  19   1.920688    98.722   358.791
 O     15  13  11   2.874079   171.957    40.034
 H     40  15  13   1.881636   104.137    65.983
 H     40  15  13   1.888233   101.616   319.325
 O     30  28   9   3.106949   171.626   356.991
 H     43  30  28   1.882583   103.595   256.580
 H     43  30  28   1.920128    98.237     2.701
 O     45  43  30   3.110862   171.626    15.354
 H     46  45  43   1.891439   100.129    89.228
 H     46  45  43   1.919665    98.338   344.584

---------------------
BASIS SET INFORMATION
---------------------
There are 2 groups of distinct atoms

 Group   1 Type O   : 12s7p2d1f contracted to 6s4p2d1f pattern {621111/4111/11/1}
 Group   2 Type H   : 5s1p contracted to 3s1p pattern {311/1}

Atom   0O    basis set group =>   1
Atom   1H    basis set group =>   2
Atom   2H    basis set group =>   2
Atom   3O    basis set group =>   1
Atom   4H    basis set group =>   2
Atom   5H    basis set group =>   2
Atom   6O    basis set group =>   1
Atom   7H    basis set group =>   2
Atom   8H    basis set group =>   2
Atom   9O    basis set group =>   1
Atom  10H    basis set group =>   2
Atom  11H    basis set group =>   2
Atom  12O    basis set group =>   1
Atom  13H    basis set group =>   2
Atom  14H    basis set group =>   2
Atom  15O    basis set group =>   1
Atom  16H    basis set group =>   2
Atom  17H    basis set group =>   2
Atom  18O    basis set group =>   1
Atom  19H    basis set group =>   2
Atom  20H    basis set group =>   2
Atom  21O    basis set group =>   1
Atom  22H    basis set group =>   2
Atom  23H    basis set group =>   2
Atom  24O    basis set group =>   1
Atom  25H    basis set group =>   2
Atom  26H    basis set group =>   2
Atom  27O    basis set group =>   1
Atom  28H    basis set group =>   2
Atom  29H    basis set group =>   2
Atom  30O    basis set group =>   1
Atom  31H    basis set group =>   2
Atom  32H    basis set group =>   2
Atom  33O    basis set group =>   1
Atom  34H    basis set group =>   2
Atom  35H    basis set group =>   2
Atom  36O    basis set group =>   1
Atom  37H    basis set group =>   2
Atom  38H    basis set group =>   2
Atom  39O    basis set group =>   1
Atom  40H    basis set group =>   2
Atom  41H    basis set group =>   2
Atom  42O    basis set group =>   1
Atom  43H    basis set group =>   2
Atom  44H    basis set group =>   2
Atom  45O    basis set group =>   1
Atom  46H    basis set group =>   2
Atom  47H    basis set group =>   2
-------------------------------
AUXILIARY BASIS SET INFORMATION
-------------------------------
There are 2 groups of distinct atoms

 Group   1 Type O   : 12s5p4d2f1g contracted to 6s4p3d1f1g pattern {711111/2111/211/2/1}
 Group   2 Type H   : 5s2p1d contracted to 3s1p1d pattern {311/2/1}

Atom   0O    basis set group =>   1
Atom   1H    basis set group =>   2
Atom   2H    basis set group =>   2
Atom   3O    basis set group =>   1
Atom   4H    basis set group =>   2
Atom   5H    basis set group =>   2
Atom   6O    basis set group =>   1
Atom   7H    basis set group =>   2
Atom   8H    basis set group =>   2
Atom   9O    basis set group =>   1
Atom  10H    basis set group =>   2
Atom  11H    basis set group =>   2
Atom  12O    basis set group =>   1
Atom  13H    basis set group =>   2
Atom  14H    basis set group =>   2
Atom  15O    basis set group =>   1
Atom  16H    basis set group =>   2
Atom  17H    basis set group =>   2
Atom  18O    basis set group =>   1
Atom  19H    basis set group =>   2
Atom  20H    basis set group =>   2
Atom  21O    basis set group =>   1
Atom  22H    basis set group =>   2
Atom  23H    basis set group =>   2
Atom  24O    basis set group =>   1
Atom  25H    basis set group =>   2
Atom  26H    basis set group =>   2
Atom  27O    basis set group =>   1
Atom  28H    basis set group =>   2
Atom  29H    basis set group =>   2
Atom  30O    basis set group =>   1
Atom  31H    basis set group =>   2
Atom  32H    basis set group =>   2
Atom  33O    basis set group =>   1
Atom  34H    basis set group =>   2
Atom  35H    basis set group =>   2
Atom  36O    basis set group =>   1
Atom  37H    basis set group =>   2
Atom  38H    basis set group =>   2
Atom  39O    basis set group =>   1
Atom  40H    basis set group =>   2
Atom  41H    basis set group =>   2
Atom  42O    basis set group =>   1
Atom  43H    basis set group =>   2
Atom  44H    basis set group =>   2
Atom  45O    basis set group =>   1
Atom  46H    basis set group =>   2
Atom  47H    basis set group =>   2
------------------------------------------------------------------------------
                           ORCA GTO INTEGRAL CALCULATION
                           -- RI-GTO INTEGRALS CHOSEN --
------------------------------------------------------------------------------

                         BASIS SET STATISTICS AND STARTUP INFO

Gaussian basis set:
 # of primitive gaussian shells          ...  544
 # of primitive gaussian functions       ... 1056
 # of contracted shells                  ...  336
 # of contracted basis functions         ...  752
 Highest angular momentum                ...    3
 Maximum contraction depth               ...    6
Auxiliary gaussian basis set:
 # of primitive gaussian shells          ...  640
 # of primitive gaussian functions       ... 1632
 # of contracted shells                  ...  400
 # of contracted aux-basis functions     ... 1136
 Highest angular momentum                ...    4
 Maximum contraction depth               ...    7
Ratio of auxiliary to basis functions    ...  1.51
Integral package used                  ... LIBINT
 One Electron integrals                  ... done
 Ordering auxiliary basis shells         ... done
 Integral threshhold             Thresh  ...  2.500e-11
 Primitive cut-off               TCut    ...  2.500e-12
 Pre-screening matrix                    ... done
 Shell pair data                         ... 
 Ordering of the shell pairs             ... done (   0.093 sec) 41190 of 56616 pairs
 Determination of significant pairs      ... done (   0.000 sec)
 Creation of shell pair data             ... done (   0.011 sec)
 Storage of shell pair data              ... done (   0.032 sec)
 Shell pair data done in (   0.136 sec)
 Computing two index integrals           ... done
 Cholesky decomposition of the V-matrix  ... done


Timings:
 Total evaluation time                   ...   2.363 sec (  0.039 min)
 One electron matrix time                ...   0.960 sec (  0.016 min) = 40.6%
 Schwartz matrix evaluation time         ...   1.097 sec (  0.018 min) = 46.4%
 Two index repulsion integral time       ...   0.085 sec (  0.001 min) =  3.6%
 Cholesky decomposition of V             ...   0.069 sec (  0.001 min) =  2.9%
 Three index repulsion integral time     ...   0.000 sec (  0.000 min) =  0.0%

-------------------------------------------------------------------------------
                                 ORCA SCF
-------------------------------------------------------------------------------

------------
SCF SETTINGS
------------
Hamiltonian:
 Density Functional     Method          .... DFT(GTOs)
 Exchange Functional    Exchange        .... WB97X-D3
 Correlation Functional Correlation     .... WB97X-D3
 Gradients option       PostSCFGGA      .... off
 Hybrid DFT is turned on
   Fraction HF Exchange ScalHFX         ....  0.195728
   Scaling of DF-GGA-X  ScalDFX         ....  0.000000
   Scaling of DF-GGA-C  ScalDFC         ....  1.000000
   Scaling of DF-LDA-C  ScalLDAC        ....  1.000000
   Perturbative correction              ....  0.000000
 Long-range corrected/Screened/Range-Separated Hybrid DFT is turned on
   Amount of maximum screened exact exchange              ....  0.804272
   Range separation parameter mu (erf(mu*r12)/r12)        ....  0.250000
 RI-approximation to the Coulomb term is turned on
   Number of auxiliary basis functions  .... 1136
   RIJ-COSX (HFX calculated with COS-X)).... on


General Settings:
 Integral files         IntName         .... 1_wb98x-ma-def2-TZVP-GasPhase_onBP86_16_waters
 Hartree-Fock type      HFTyp           .... RHF
 Total Charge           Charge          ....    0
 Multiplicity           Mult            ....    1
 Number of Electrons    NEL             ....  160
 Basis Dimension        Dim             ....  752
 Nuclear Repulsion      ENuc            ....   1686.1285400819 Eh

Convergence Acceleration:
 DIIS                   CNVDIIS         .... on
   Start iteration      DIISMaxIt       ....    12
   Startup error        DIISStart       ....  0.200000
   # of expansion vecs  DIISMaxEq       ....     5
   Bias factor          DIISBfac        ....   1.050
   Max. coefficient     DIISMaxC        ....  10.000
 Newton-Raphson         CNVNR           .... off
 SOSCF                  CNVSOSCF        .... on
   Start iteration      SOSCFMaxIt      ....   150
   Startup grad/error   SOSCFStart      ....  0.003300
 Level Shifting         CNVShift        .... on
   Level shift para.    LevelShift      ....    0.2500
   Turn off err/grad.   ShiftErr        ....    0.0010
 Zerner damping         CNVZerner       .... off
 Static damping         CNVDamp         .... on
   Fraction old density DampFac         ....    0.7000
   Max. Damping (<1)    DampMax         ....    0.9800
   Min. Damping (>=0)   DampMin         ....    0.0000
   Turn off err/grad.   DampErr         ....    0.1000
 Fernandez-Rico         CNVRico         .... off

SCF Procedure:
 Maximum # iterations   MaxIter         ....   400
 SCF integral mode      SCFMode         .... Direct
   Integral package                     .... LIBINT
 Reset frequeny         DirectResetFreq ....    20
 Integral Threshold     Thresh          ....  2.500e-11 Eh
 Primitive CutOff       TCut            ....  2.500e-12 Eh

Convergence Tolerance:
 Convergence Check Mode ConvCheckMode   .... Total+1el-Energy
 Energy Change          TolE            ....  1.000e-08 Eh
 1-El. energy change                    ....  1.000e-05 Eh
 Orbital Gradient       TolG            ....  1.000e-05
 Orbital Rotation angle TolX            ....  1.000e-05
 DIIS Error             TolErr          ....  5.000e-07


Diagonalization of the overlap matrix:
Smallest eigenvalue                        ... 1.748e-04
Time for diagonalization                   ...    0.240 sec
Threshold for overlap eigenvalues          ... 1.000e-08
Number of eigenvalues below threshold      ... 0
Time for construction of square roots      ...    0.120 sec
Total time needed                          ...    0.362 sec

-------------------
DFT GRID GENERATION
-------------------

General Integration Accuracy     IntAcc      ...  4.670
Radial Grid Type                 RadialGrid  ... Gauss-Chebyshev
Angular Grid (max. acc.)         AngularGrid ... Lebedev-302
Angular grid pruning method      GridPruning ... 3 (G Style)
Weight generation scheme         WeightScheme... Becke
Basis function cutoff            BFCut       ...    1.0000e-11
Integration weight cutoff        WCut        ...    1.0000e-14
Grids for H and He will be reduced by one unit

# of grid points (after initial pruning)     ... 208000 (   0.6 sec)
# of grid points (after weights+screening)   ... 181174 (   5.1 sec)
nearest neighbour list constructed           ...    0.0 sec
Grid point re-assignment to atoms done       ...    0.1 sec
Grid point division into batches done        ...    1.2 sec
Reduced shell lists constructed in   18.8 sec

Total number of grid points                  ...   181174
Total number of batches                      ...     2860
Average number of points per batch           ...       63
Average number of grid points per atom       ...     3774
Average number of shells per batch           ...   148.33 (44.15%)
Average number of basis functions per batch  ...   289.42 (38.49%)
Average number of large shells per batch     ...   100.82 (67.97%)
Average number of large basis fcns per batch ...   193.15 (66.74%)
Maximum spatial batch extension              ...  16.66, 17.22, 16.88 au
Average spatial batch extension              ...   1.98,  2.07,  1.99 au

Time for grid setup =   24.530 sec

------------------------------
INITIAL GUESS: MODEL POTENTIAL
------------------------------
Loading Hartree-Fock densities                     ... done
Calculating cut-offs                               ... done
Setting up the integral package                    ... done
Initializing the effective Hamiltonian             ... done
Starting the Coulomb interaction                   ... done (   8.8 sec)
Reading the grid                                   ... done
Mapping shells                                     ... done
Starting the XC term evaluation                    ... done (  26.6 sec)
  promolecular density results
     # of electrons  =    159.977782537
     EX              =   -139.921835222
     EC              =     -5.299572849
     EX+EC           =   -145.221408071
Transforming the Hamiltonian                       ... done (   0.2 sec)
Diagonalizing the Hamiltonian                      ... done (   0.3 sec)
Back transforming the eigenvectors                 ... done (   0.1 sec)
Now organizing SCF variables                       ... done
                      ------------------
                      INITIAL GUESS DONE (  60.9 sec)
                      ------------------
--------------------
COSX GRID GENERATION
--------------------

General Integration Accuracy     IntAcc      ...  3.340
Radial Grid Type                 RadialGrid  ... Gauss-Chebyshev
Angular Grid (max. acc.)         AngularGrid ... Lebedev-50
Angular grid pruning method      GridPruning ... 3 (G Style)
Weight generation scheme         WeightScheme... Becke
Basis function cutoff            BFCut       ...    1.0000e-11
Integration weight cutoff        WCut        ...    1.0000e-14
Grids for H and He will be reduced by one unit

# of grid points (after initial pruning)     ...  19520 (   0.0 sec)
# of grid points (after weights+screening)   ...  17326 (   0.6 sec)
nearest neighbour list constructed           ...    0.0 sec
Grid point re-assignment to atoms done       ...    0.0 sec
Grid point division into batches done        ...    0.0 sec
Reduced shell lists constructed in    1.7 sec

Total number of grid points                  ...    17326
Total number of batches                      ...      291
Average number of points per batch           ...       59
Average number of grid points per atom       ...      361
Average number of shells per batch           ...   170.63 (50.78%)
Average number of basis functions per batch  ...   342.65 (45.57%)
Average number of large shells per batch     ...   117.46 (68.84%)
Average number of large basis fcns per batch ...   229.01 (66.84%)
Maximum spatial batch extension              ...  16.10, 16.66, 14.99 au
Average spatial batch extension              ...   4.38,  4.71,  4.28 au

Overlap Fitting                  UseSFitting ... on
Constructing numerical overlap ... done (      1.6 sec)
Inverting numerical overlap    ... done (      0.0 sec)
Obtaining analytic overlap     ... done (      0.0 sec)
Final contraction and storage  ... done (      0.1 sec)


General Integration Accuracy     IntAcc      ...  3.670
Radial Grid Type                 RadialGrid  ... Gauss-Chebyshev
Angular Grid (max. acc.)         AngularGrid ... Lebedev-50
Angular grid pruning method      GridPruning ... 3 (G Style)
Weight generation scheme         WeightScheme... Becke
Basis function cutoff            BFCut       ...    1.0000e-11
Integration weight cutoff        WCut        ...    1.0000e-14
Grids for H and He will be reduced by one unit

# of grid points (after initial pruning)     ...  25632 (   0.0 sec)
# of grid points (after weights+screening)   ...  22693 (   0.7 sec)
nearest neighbour list constructed           ...    0.0 sec
Grid point re-assignment to atoms done       ...    0.0 sec
Grid point division into batches done        ...    0.1 sec
Reduced shell lists constructed in    2.8 sec

Total number of grid points                  ...    22693
Total number of batches                      ...      380
Average number of points per batch           ...       59
Average number of grid points per atom       ...      473
Average number of shells per batch           ...   166.61 (49.59%)
Average number of basis functions per batch  ...   332.84 (44.26%)
Average number of large shells per batch     ...   114.43 (68.68%)
Average number of large basis fcns per batch ...   222.26 (66.78%)
Maximum spatial batch extension              ...  16.03, 17.39, 17.12 au
Average spatial batch extension              ...   3.87,  4.27,  3.83 au

Overlap Fitting                  UseSFitting ... on
Constructing numerical overlap ... done (      2.3 sec)
Inverting numerical overlap    ... done (      0.0 sec)
Obtaining analytic overlap     ... done (      0.0 sec)
Final contraction and storage  ... done (      0.1 sec)


General Integration Accuracy     IntAcc      ...  4.010
Radial Grid Type                 RadialGrid  ... Gauss-Chebyshev
Angular Grid (max. acc.)         AngularGrid ... Lebedev-110
Angular grid pruning method      GridPruning ... 3 (G Style)
Weight generation scheme         WeightScheme... Becke
Basis function cutoff            BFCut       ...    1.0000e-11
Integration weight cutoff        WCut        ...    1.0000e-14
Grids for H and He will be reduced by one unit

# of grid points (after initial pruning)     ...  44128 (   0.0 sec)
# of grid points (after weights+screening)   ...  39325 (   1.0 sec)
nearest neighbour list constructed           ...    0.0 sec
Grid point re-assignment to atoms done       ...    0.0 sec
Grid point division into batches done        ...    0.0 sec
Reduced shell lists constructed in    4.5 sec

Total number of grid points                  ...    39325
Total number of batches                      ...      637
Average number of points per batch           ...       61
Average number of grid points per atom       ...      819
Average number of shells per batch           ...   161.71 (48.13%)
Average number of basis functions per batch  ...   320.97 (42.68%)
Average number of large shells per batch     ...   111.24 (68.79%)
Average number of large basis fcns per batch ...   215.50 (67.14%)
Maximum spatial batch extension              ...  17.15, 18.98, 14.21 au
Average spatial batch extension              ...   3.28,  3.54,  3.26 au

Overlap Fitting                  UseSFitting ... on
Constructing numerical overlap ... done (      3.1 sec)
Inverting numerical overlap    ... done (      0.0 sec)
Obtaining analytic overlap     ... done (      0.0 sec)
Final contraction and storage  ... done (      0.0 sec)

Time for X-Grid setup             =   18.899 sec
--------------
SCF ITERATIONS
--------------
ITER       Energy         Delta-E        Max-DP      RMS-DP      [F,P]     Damp
               ***  Starting incremental Fock matrix formation  ***
  0  -1222.2946615684   0.000000000000 0.03847140  0.00070302  0.2707999 0.7000
  1  -1222.7352820109  -0.440620442458 0.02761310  0.00047744  0.1375956 0.7000
                               ***Turning on DIIS***
  2  -1222.9238751241  -0.188593113222 0.04869627  0.00079643  0.0560773 0.0000
  3  -1223.2162783655  -0.292403241370 0.01665875  0.00030421  0.0678297 0.0000
  4  -1223.2734828124  -0.057204446903 0.00392676  0.00006466  0.0087631 0.0000
                      *** Initiating the SOSCF procedure ***
                           *** Shutting down DIIS ***
                      *** Re-Reading the Fockian *** 
                      *** Removing any level shift *** 
ITER      Energy       Delta-E        Grad      Rot      Max-DP    RMS-DP
  5  -1223.27456978  -0.0010869691  0.000379  0.000379  0.000903  0.000022
               *** Restarting incremental Fock matrix formation ***
  6  -1223.27463839  -0.0000686115  0.000220  0.000317  0.001905  0.000019
  7  -1223.27464254  -0.0000041493  0.000134  0.000070  0.000424  0.000006
  8  -1223.27464521  -0.0000026727  0.000010  0.000009  0.000307  0.000002
  9  -1223.27464526  -0.0000000440  0.000009  0.000005  0.000076  0.000001
                  ***Gradient check signals convergence***
              ***Rediagonalizing the Fockian in SOSCF/NRSCF***

               *****************************************************
               *                     SUCCESS                       *
               *           SCF CONVERGED AFTER  10 CYCLES          *
               *****************************************************

Setting up the final grid:

General Integration Accuracy     IntAcc      ...  5.010
Radial Grid Type                 RadialGrid  ... Gauss-Chebyshev
Angular Grid (max. acc.)         AngularGrid ... Lebedev-434
Angular grid pruning method      GridPruning ... 3 (G Style)
Weight generation scheme         WeightScheme... Becke
Basis function cutoff            BFCut       ...    1.0000e-11
Integration weight cutoff        WCut        ...    1.0000e-14
Grids for H and He will be reduced by one unit

# of grid points (after initial pruning)     ... 387616 (   0.4 sec)
# of grid points (after weights+screening)   ... 336568 (   9.4 sec)
nearest neighbour list constructed           ...    0.0 sec
Grid point re-assignment to atoms done       ...    0.1 sec
Grid point division into batches done        ...    3.1 sec
Reduced shell lists constructed in   32.0 sec

Total number of grid points                  ...   336568
Total number of batches                      ...     5285
Average number of points per batch           ...       63
Average number of grid points per atom       ...     7012
Average number of shells per batch           ...   144.41 (42.98%)
Average number of basis functions per batch  ...   280.16 (37.25%)
Average number of large shells per batch     ...    98.08 (67.92%)
Average number of large basis fcns per batch ...   187.51 (66.93%)
Maximum spatial batch extension              ...  15.81, 18.69, 17.06 au
Average spatial batch extension              ...   1.59,  1.63,  1.60 au

Final grid set up in   41.9 sec
Final integration                            ... done (  51.0 sec)
Change in XC energy                          ...    -0.001810537
Integrated number of electrons               ...   160.000485310
Previous integrated no of electrons          ...   159.996592205
Old exchange energy                            =    -45.251842582 Eh
New exchange energy                            =    -45.250741569 Eh
Exchange energy change after final integration =      0.001101013 Eh
Total energy after final integration           =  -1223.275354833 Eh
Final COS-X integration done in                =   551.412 sec

----------------
TOTAL SCF ENERGY
----------------

Total Energy       :        -1223.27535483 Eh          -33287.01468 eV

Components:
Nuclear Repulsion  :         1686.12854008 Eh           45881.89017 eV
Electronic Energy  :        -2909.40389492 Eh          -79168.90485 eV

One Electron Energy:        -5046.43553516 Eh         -137320.49215 eV
Two Electron Energy:         2137.03164024 Eh           58151.58730 eV

Virial components:
Potential Energy   :        -2441.02770004 Eh          -66423.74064 eV
Kinetic Energy     :         1217.75234521 Eh           33136.72595 eV
Virial Ratio       :            2.00453541


DFT components:
N(Alpha)           :       80.000242654926 electrons
N(Beta)            :       80.000242654926 electrons
N(Total)           :      160.000485309851 electrons
E(XC)              :     -103.900130439026 Eh       

---------------
SCF CONVERGENCE
---------------

  Last Energy change         ...   -5.0125e-08  Tolerance :   1.0000e-08
  Last MAX-Density change    ...    2.2718e-14  Tolerance :   1.0000e-07
  Last RMS-Density change    ...    1.7817e-16  Tolerance :   5.0000e-09
  Last Orbital Gradient      ...    1.8985e-06  Tolerance :   1.0000e-05
  Last Orbital Rotation      ...    1.5775e-06  Tolerance :   1.0000e-05

             **** THE GBW FILE WAS UPDATED (1_wb98x-ma-def2-TZVP-GasPhase_onBP86_16_waters.gbw) ****
             **** DENSITY FILE WAS UPDATED (1_wb98x-ma-def2-TZVP-GasPhase_onBP86_16_waters.scfp.tmp) ****
             **** ENERGY FILE WAS UPDATED (1_wb98x-ma-def2-TZVP-GasPhase_onBP86_16_waters.en.tmp) ****
----------------
ORBITAL ENERGIES
----------------

  NO   OCC          E(Eh)            E(eV) 
   0   2.0000     -19.253687      -523.9195 
   1   2.0000     -19.253569      -523.9162 
   2   2.0000     -19.253475      -523.9137 
   3   2.0000     -19.253265      -523.9080 
   4   2.0000     -19.242326      -523.6103 
   5   2.0000     -19.242080      -523.6036 
   6   2.0000     -19.242030      -523.6022 
   7   2.0000     -19.241495      -523.5877 
   8   2.0000     -19.240794      -523.5686 
   9   2.0000     -19.240739      -523.5671 
  10   2.0000     -19.240031      -523.5479 
  11   2.0000     -19.239936      -523.5453 
  12   2.0000     -19.237983      -523.4921 
  13   2.0000     -19.237891      -523.4896 
  14   2.0000     -19.237502      -523.4790 
  15   2.0000     -19.237443      -523.4774 
  16   2.0000      -1.161988       -31.6193 
  17   2.0000      -1.155059       -31.4308 
  18   2.0000      -1.144783       -31.1511 
  19   2.0000      -1.143381       -31.1130 
  20   2.0000      -1.141168       -31.0528 
  21   2.0000      -1.136536       -30.9267 
  22   2.0000      -1.134157       -30.8620 
  23   2.0000      -1.131437       -30.7880 
  24   2.0000      -1.125082       -30.6150 
  25   2.0000      -1.119222       -30.4556 
  26   2.0000      -1.118863       -30.4458 
  27   2.0000      -1.114303       -30.3217 
  28   2.0000      -1.112929       -30.2843 
  29   2.0000      -1.111778       -30.2530 
  30   2.0000      -1.103431       -30.0259 
  31   2.0000      -1.093462       -29.7546 
  32   2.0000      -0.660738       -17.9796 
  33   2.0000      -0.660072       -17.9615 
  34   2.0000      -0.659587       -17.9483 
  35   2.0000      -0.655703       -17.8426 
  36   2.0000      -0.654206       -17.8019 
  37   2.0000      -0.650342       -17.6967 
  38   2.0000      -0.648911       -17.6578 
  39   2.0000      -0.643766       -17.5178 
  40   2.0000      -0.636427       -17.3181 
  41   2.0000      -0.635161       -17.2836 
  42   2.0000      -0.631539       -17.1850 
  43   2.0000      -0.626239       -17.0408 
  44   2.0000      -0.625033       -17.0080 
  45   2.0000      -0.619602       -16.8602 
  46   2.0000      -0.619563       -16.8592 
  47   2.0000      -0.619334       -16.8529 
  48   2.0000      -0.598368       -16.2824 
  49   2.0000      -0.575994       -15.6736 
  50   2.0000      -0.551869       -15.0171 
  51   2.0000      -0.550650       -14.9839 
  52   2.0000      -0.538913       -14.6646 
  53   2.0000      -0.537215       -14.6184 
  54   2.0000      -0.527439       -14.3523 
  55   2.0000      -0.525525       -14.3003 
  56   2.0000      -0.507031       -13.7970 
  57   2.0000      -0.504241       -13.7211 
  58   2.0000      -0.503855       -13.7106 
  59   2.0000      -0.502359       -13.6699 
  60   2.0000      -0.482554       -13.1309 
  61   2.0000      -0.477109       -12.9828 
  62   2.0000      -0.471886       -12.8407 
  63   2.0000      -0.450050       -12.2465 
  64   2.0000      -0.439719       -11.9654 
  65   2.0000      -0.436756       -11.8847 
  66   2.0000      -0.436271       -11.8715 
  67   2.0000      -0.434279       -11.8173 
  68   2.0000      -0.430610       -11.7175 
  69   2.0000      -0.428345       -11.6559 
  70   2.0000      -0.427424       -11.6308 
  71   2.0000      -0.426180       -11.5970 
  72   2.0000      -0.424826       -11.5601 
  73   2.0000      -0.424287       -11.5454 
  74   2.0000      -0.422364       -11.4931 
  75   2.0000      -0.420267       -11.4360 
  76   2.0000      -0.419722       -11.4212 
  77   2.0000      -0.419631       -11.4188 
  78   2.0000      -0.419473       -11.4144 
  79   2.0000      -0.417212       -11.3529 
  80   0.0000       0.052019         1.4155 
  81   0.0000       0.059757         1.6261 
  82   0.0000       0.074976         2.0402 
  83   0.0000       0.075285         2.0486 
  84   0.0000       0.091129         2.4797 
  85   0.0000       0.100694         2.7400 
  86   0.0000       0.100922         2.7462 
  87   0.0000       0.117914         3.2086 
  88   0.0000       0.121514         3.3066 
  89   0.0000       0.124997         3.4013 
  90   0.0000       0.127716         3.4753 
  91   0.0000       0.129242         3.5169 
  92   0.0000       0.135194         3.6788 
  93   0.0000       0.147934         4.0255 
  94   0.0000       0.149168         4.0591 
  95   0.0000       0.154712         4.2099 
  96   0.0000       0.157152         4.2763 
  97   0.0000       0.161075         4.3831 
  98   0.0000       0.173882         4.7316 
  99   0.0000       0.174984         4.7616 
 100   0.0000       0.175204         4.7675 
 101   0.0000       0.178135         4.8473 
 102   0.0000       0.185522         5.0483 
 103   0.0000       0.188479         5.1288 
 104   0.0000       0.188653         5.1335 
 105   0.0000       0.189919         5.1680 
 106   0.0000       0.200434         5.4541 
 107   0.0000       0.200848         5.4654 
 108   0.0000       0.203893         5.5482 
 109   0.0000       0.209194         5.6925 
 110   0.0000       0.213698         5.8150 
 111   0.0000       0.215344         5.8598 
 112   0.0000       0.220236         5.9929 
 113   0.0000       0.223532         6.0826 
 114   0.0000       0.227006         6.1772 
 115   0.0000       0.237110         6.4521 
 116   0.0000       0.239154         6.5077 
 117   0.0000       0.241225         6.5641 
 118   0.0000       0.243140         6.6162 
 119   0.0000       0.245184         6.6718 
 120   0.0000       0.247622         6.7381 
 121   0.0000       0.250290         6.8107 
 122   0.0000       0.258566         7.0359 
 123   0.0000       0.258948         7.0463 
 124   0.0000       0.271851         7.3974 
 125   0.0000       0.272548         7.4164 
 126   0.0000       0.274265         7.4631 
 127   0.0000       0.278884         7.5888 
 128   0.0000       0.278989         7.5917 
 129   0.0000       0.282469         7.6864 
 130   0.0000       0.290359         7.9011 
 131   0.0000       0.297364         8.0917 
 132   0.0000       0.298468         8.1217 
 133   0.0000       0.300931         8.1887 
 134   0.0000       0.303315         8.2536 
 135   0.0000       0.318923         8.6783 
 136   0.0000       0.323992         8.8163 
 137   0.0000       0.330311         8.9882 
 138   0.0000       0.331271         9.0144 
 139   0.0000       0.333344         9.0708 
 140   0.0000       0.334243         9.0952 
 141   0.0000       0.334873         9.1124 
 142   0.0000       0.336809         9.1650 
 143   0.0000       0.341752         9.2995 
 144   0.0000       0.344613         9.3774 
 145   0.0000       0.347581         9.4582 
 146   0.0000       0.349258         9.5038 
 147   0.0000       0.353887         9.6297 
 148   0.0000       0.354340         9.6421 
 149   0.0000       0.355364         9.6699 
 150   0.0000       0.356161         9.6916 
 151   0.0000       0.365606         9.9486 
 152   0.0000       0.365842         9.9551 
 153   0.0000       0.367931        10.0119 
 154   0.0000       0.373818        10.1721 
 155   0.0000       0.381719        10.3871 
 156   0.0000       0.390492        10.6258 
 157   0.0000       0.392714        10.6863 
 158   0.0000       0.399263        10.8645 
 159   0.0000       0.399933        10.8827 
 160   0.0000       0.401504        10.9255 
 161   0.0000       0.419157        11.4059 
 162   0.0000       0.420888        11.4529 
 163   0.0000       0.421116        11.4592 
 164   0.0000       0.422395        11.4939 
 165   0.0000       0.433298        11.7906 
 166   0.0000       0.434515        11.8238 
 167   0.0000       0.441332        12.0092 
 168   0.0000       0.447560        12.1787 
 169   0.0000       0.450699        12.2641 
 170   0.0000       0.451233        12.2787 
 171   0.0000       0.454530        12.3684 
 172   0.0000       0.473185        12.8760 
 173   0.0000       0.473378        12.8813 
 174   0.0000       0.475912        12.9502 
 175   0.0000       0.487407        13.2630 
 176   0.0000       0.509424        13.8621 
 177   0.0000       0.509948        13.8764 
 178   0.0000       0.513353        13.9691 
 179   0.0000       0.518799        14.1172 
 180   0.0000       0.530516        14.4361 
 181   0.0000       0.533566        14.5191 
 182   0.0000       0.537776        14.6336 
 183   0.0000       0.541930        14.7467 
 184   0.0000       0.548782        14.9331 
 185   0.0000       0.555193        15.1076 
 186   0.0000       0.558025        15.1846 
 187   0.0000       0.560621        15.2553 
 188   0.0000       0.561692        15.2844 
 189   0.0000       0.565820        15.3967 
 190   0.0000       0.568959        15.4821 
 191   0.0000       0.576027        15.6745 
 192   0.0000       0.581101        15.8126 
 193   0.0000       0.583068        15.8661 
 194   0.0000       0.585307        15.9270 
 195   0.0000       0.601652        16.3718 
 196   0.0000       0.613179        16.6854 
 197   0.0000       0.620284        16.8788 
 198   0.0000       0.634421        17.2635 
 199   0.0000       0.644704        17.5433 
 200   0.0000       0.657365        17.8878 
 201   0.0000       0.663350        18.0507 
 202   0.0000       0.666137        18.1265 
 203   0.0000       0.675950        18.3935 
 204   0.0000       0.676832        18.4175 
 205   0.0000       0.685835        18.6625 
 206   0.0000       0.694640        18.9021 
 207   0.0000       0.706357        19.2210 
 208   0.0000       0.711499        19.3609 
 209   0.0000       0.717596        19.5268 
 210   0.0000       0.723945        19.6995 
 211   0.0000       0.726575        19.7711 
 212   0.0000       0.731106        19.8944 
 213   0.0000       0.736845        20.0506 
 214   0.0000       0.742339        20.2001 
 215   0.0000       0.758532        20.6407 
 216   0.0000       0.761502        20.7215 
 217   0.0000       0.766235        20.8503 
 218   0.0000       0.770521        20.9670 
 219   0.0000       0.778352        21.1800 
 220   0.0000       0.787021        21.4159 
 221   0.0000       0.791402        21.5352 
 222   0.0000       0.798912        21.7395 
 223   0.0000       0.812740        22.1158 
 224   0.0000       0.819336        22.2953 
 225   0.0000       0.821146        22.3445 
 226   0.0000       0.824176        22.4270 
 227   0.0000       0.835855        22.7448 
 228   0.0000       0.853592        23.2274 
 229   0.0000       0.854573        23.2541 
 230   0.0000       0.856494        23.3064 
 231   0.0000       0.864757        23.5312 
 232   0.0000       0.873871        23.7792 
 233   0.0000       0.878025        23.8923 
 234   0.0000       0.878589        23.9076 
 235   0.0000       0.882006        24.0006 
 236   0.0000       0.888828        24.1862 
 237   0.0000       0.889545        24.2057 
 238   0.0000       0.894549        24.3419 
 239   0.0000       0.901342        24.5268 
 240   0.0000       0.910136        24.7660 
 241   0.0000       0.912641        24.8342 
 242   0.0000       0.924157        25.1476 
 243   0.0000       0.928222        25.2582 
 244   0.0000       0.928995        25.2792 
 245   0.0000       0.931999        25.3610 
 246   0.0000       0.944389        25.6981 
 247   0.0000       0.953119        25.9357 
 248   0.0000       0.972648        26.4671 
 249   0.0000       0.988172        26.8895 
 250   0.0000       0.995515        27.0894 
 251   0.0000       1.002849        27.2889 
 252   0.0000       1.015022        27.6202 
 253   0.0000       1.022213        27.8158 
 254   0.0000       1.026971        27.9453 
 255   0.0000       1.028043        27.9745 
 256   0.0000       1.028919        27.9983 
 257   0.0000       1.043312        28.3900 
 258   0.0000       1.046837        28.4859 
 259   0.0000       1.052948        28.6522 
 260   0.0000       1.054842        28.7037 
 261   0.0000       1.078066        29.3357 
 262   0.0000       1.082623        29.4597 
 263   0.0000       1.103742        30.0343 
 264   0.0000       1.104216        30.0472 
 265   0.0000       1.131100        30.7788 
 266   0.0000       1.133431        30.8422 
 267   0.0000       1.137282        30.9470 
 268   0.0000       1.149635        31.2832 
 269   0.0000       1.214865        33.0582 
 270   0.0000       1.227383        33.3988 
 271   0.0000       1.235125        33.6095 
 272   0.0000       1.242487        33.8098 
 273   0.0000       1.246911        33.9302 
 274   0.0000       1.253767        34.1167 
 275   0.0000       1.261547        34.3284 
 276   0.0000       1.270724        34.5781 
 277   0.0000       1.280948        34.8564 
 278   0.0000       1.291023        35.1305 
 279   0.0000       1.292509        35.1710 
 280   0.0000       1.293804        35.2062 
 281   0.0000       1.295269        35.2461 
 282   0.0000       1.307131        35.5689 
 283   0.0000       1.310426        35.6585 
 284   0.0000       1.315743        35.8032 
 285   0.0000       1.316990        35.8371 
 286   0.0000       1.319372        35.9019 
 287   0.0000       1.328697        36.1557 
 288   0.0000       1.333207        36.2784 
 289   0.0000       1.349153        36.7123 
 290   0.0000       1.379858        37.5479 
 291   0.0000       1.380702        37.5708 
 292   0.0000       1.401575        38.1388 
 293   0.0000       1.405192        38.2372 
 294   0.0000       1.420404        38.6512 
 295   0.0000       1.423410        38.7330 
 296   0.0000       1.429449        38.8973 
 297   0.0000       1.447018        39.3754 
 298   0.0000       1.448457        39.4145 
 299   0.0000       1.449036        39.4303 
 300   0.0000       1.456077        39.6219 
 301   0.0000       1.468320        39.9550 
 302   0.0000       1.468806        39.9682 
 303   0.0000       1.471556        40.0431 
 304   0.0000       1.476600        40.1803 
 305   0.0000       1.480232        40.2792 
 306   0.0000       1.485575        40.4245 
 307   0.0000       1.487403        40.4743 
 308   0.0000       1.502334        40.8806 
 309   0.0000       1.508524        41.0490 
 310   0.0000       1.517486        41.2929 
 311   0.0000       1.528715        41.5985 
 312   0.0000       1.529202        41.6117 
 313   0.0000       1.530633        41.6506 
 314   0.0000       1.547827        42.1185 
 315   0.0000       1.558287        42.4031 
 316   0.0000       1.560194        42.4550 
 317   0.0000       1.562897        42.5286 
 318   0.0000       1.585116        43.1332 
 319   0.0000       1.593138        43.3515 
 320   0.0000       1.663133        45.2561 
 321   0.0000       1.722442        46.8700 
 322   0.0000       1.734607        47.2011 
 323   0.0000       1.769443        48.1490 
 324   0.0000       1.787414        48.6380 
 325   0.0000       1.790821        48.7307 
 326   0.0000       1.794011        48.8175 
 327   0.0000       1.802467        49.0476 
 328   0.0000       1.806418        49.1551 
 329   0.0000       1.807153        49.1751 
 330   0.0000       1.811518        49.2939 
 331   0.0000       1.812824        49.3294 
 332   0.0000       1.832784        49.8726 
 333   0.0000       1.835542        49.9476 
 334   0.0000       1.836304        49.9684 
 335   0.0000       1.851401        50.3792 
 336   0.0000       1.855161        50.4815 
 337   0.0000       1.858559        50.5740 
 338   0.0000       1.860050        50.6145 
 339   0.0000       1.879359        51.1400 
 340   0.0000       1.881971        51.2110 
 341   0.0000       1.883927        51.2643 
 342   0.0000       1.898254        51.6541 
 343   0.0000       1.905710        51.8570 
 344   0.0000       1.913026        52.0561 
 345   0.0000       1.914827        52.1051 
 346   0.0000       1.917780        52.1855 
 347   0.0000       1.934005        52.6270 
 348   0.0000       1.939342        52.7722 
 349   0.0000       1.940807        52.8120 
 350   0.0000       1.942837        52.8673 
 351   0.0000       1.961671        53.3798 
 352   0.0000       1.969415        53.5905 
 353   0.0000       1.981323        53.9145 
 354   0.0000       1.981965        53.9320 
 355   0.0000       2.013758        54.7971 
 356   0.0000       2.020696        54.9859 
 357   0.0000       2.024871        55.0996 
 358   0.0000       2.027663        55.1755 
 359   0.0000       2.072014        56.3824 
 360   0.0000       2.077675        56.5364 
 361   0.0000       2.083843        56.7042 
 362   0.0000       2.088492        56.8308 
 363   0.0000       2.110814        57.4382 
 364   0.0000       2.117228        57.6127 
 365   0.0000       2.127649        57.8963 
 366   0.0000       2.128080        57.9080 
 367   0.0000       2.132735        58.0347 
 368   0.0000       2.134978        58.0957 
 369   0.0000       2.143683        58.3326 
 370   0.0000       2.149633        58.4945 
 371   0.0000       2.160267        58.7839 
 372   0.0000       2.161937        58.8293 
 373   0.0000       2.169280        59.0291 
 374   0.0000       2.172777        59.1243 
 375   0.0000       2.177084        59.2415 
 376   0.0000       2.187719        59.5309 
 377   0.0000       2.195548        59.7439 
 378   0.0000       2.208032        60.0836 
 379   0.0000       2.220576        60.4250 
 380   0.0000       2.232271        60.7432 
 381   0.0000       2.240896        60.9779 
 382   0.0000       2.268132        61.7190 
 383   0.0000       2.282730        62.1162 
 384   0.0000       2.286432        62.2170 
 385   0.0000       2.289367        62.2969 
 386   0.0000       2.294608        62.4395 
 387   0.0000       2.307664        62.7947 
 388   0.0000       2.315208        63.0000 
 389   0.0000       2.318763        63.0968 
 390   0.0000       2.340766        63.6955 
 391   0.0000       2.349494        63.9330 
 392   0.0000       2.366284        64.3899 
 393   0.0000       2.370663        64.5090 
 394   0.0000       2.371985        64.5450 
 395   0.0000       2.379827        64.7584 
 396   0.0000       2.387770        64.9745 
 397   0.0000       2.407760        65.5185 
 398   0.0000       2.409989        65.5791 
 399   0.0000       2.424830        65.9830 
 400   0.0000       2.430082        66.1259 
 401   0.0000       2.431986        66.1777 
 402   0.0000       2.443252        66.4843 
 403   0.0000       2.451980        66.7218 
 404   0.0000       2.466860        67.1267 
 405   0.0000       2.471044        67.2405 
 406   0.0000       2.475503        67.3619 
 407   0.0000       2.492553        67.8258 
 408   0.0000       2.501897        68.0801 
 409   0.0000       2.502414        68.0942 
 410   0.0000       2.503377        68.1203 
 411   0.0000       2.506261        68.1988 
 412   0.0000       2.508653        68.2639 
 413   0.0000       2.528130        68.7939 
 414   0.0000       2.529327        68.8265 
 415   0.0000       2.532175        68.9040 
 416   0.0000       2.542841        69.1942 
 417   0.0000       2.544917        69.2507 
 418   0.0000       2.554212        69.5036 
 419   0.0000       2.559213        69.6397 
 420   0.0000       2.562120        69.7188 
 421   0.0000       2.563236        69.7492 
 422   0.0000       2.571385        69.9709 
 423   0.0000       2.574813        70.0642 
 424   0.0000       2.580919        70.2304 
 425   0.0000       2.593872        70.5828 
 426   0.0000       2.601573        70.7924 
 427   0.0000       2.602138        70.8078 
 428   0.0000       2.607694        70.9590 
 429   0.0000       2.610209        71.0274 
 430   0.0000       2.620551        71.3088 
 431   0.0000       2.630199        71.5714 
 432   0.0000       2.638524        71.7979 
 433   0.0000       2.646371        72.0114 
 434   0.0000       2.670413        72.6656 
 435   0.0000       2.676198        72.8231 
 436   0.0000       2.678069        72.8740 
 437   0.0000       2.682035        72.9819 
 438   0.0000       2.688028        73.1450 
 439   0.0000       2.694813        73.3296 
 440   0.0000       2.696630        73.3790 
 441   0.0000       2.707503        73.6749 
 442   0.0000       2.717874        73.9571 
 443   0.0000       2.725453        74.1633 
 444   0.0000       2.728710        74.2520 
 445   0.0000       2.753175        74.9177 
 446   0.0000       2.762425        75.1694 
 447   0.0000       2.773836        75.4799 
 448   0.0000       2.779436        75.6323 
 449   0.0000       2.781541        75.6896 
 450   0.0000       2.785315        75.7923 
 451   0.0000       2.795246        76.0625 
 452   0.0000       2.811054        76.4927 
 453   0.0000       2.814817        76.5951 
 454   0.0000       2.829268        76.9883 
 455   0.0000       2.837461        77.2112 
 456   0.0000       2.851660        77.5976 
 457   0.0000       2.855333        77.6976 
 458   0.0000       2.861059        77.8534 
 459   0.0000       2.864522        77.9476 
 460   0.0000       2.872290        78.1590 
 461   0.0000       2.874735        78.2255 
 462   0.0000       2.890311        78.6494 
 463   0.0000       2.898077        78.8607 
 464   0.0000       2.905775        79.0702 
 465   0.0000       2.907171        79.1081 
 466   0.0000       2.911075        79.2144 
 467   0.0000       2.936296        79.9007 
 468   0.0000       2.937433        79.9316 
 469   0.0000       2.965189        80.6869 
 470   0.0000       2.976816        81.0033 
 471   0.0000       2.987231        81.2867 
 472   0.0000       2.995056        81.4996 
 473   0.0000       3.009771        81.9000 
 474   0.0000       3.014875        82.0389 
 475   0.0000       3.017921        82.1218 
 476   0.0000       3.033641        82.5496 
 477   0.0000       3.049151        82.9716 
 478   0.0000       3.059110        83.2426 
 479   0.0000       3.069213        83.5175 
 480   0.0000       3.076150        83.7063 
 481   0.0000       3.087038        84.0026 
 482   0.0000       3.104455        84.4765 
 483   0.0000       3.147229        85.6405 
 484   0.0000       3.157877        85.9302 
 485   0.0000       3.161254        86.0221 
 486   0.0000       3.161843        86.0381 
 487   0.0000       3.178475        86.4907 
 488   0.0000       3.190689        86.8231 
 489   0.0000       3.195142        86.9442 
 490   0.0000       3.197458        87.0072 
 491   0.0000       3.204001        87.1853 
 492   0.0000       3.204605        87.2017 
 493   0.0000       3.213924        87.4553 
 494   0.0000       3.218992        87.5932 
 495   0.0000       3.225483        87.7699 
 496   0.0000       3.239313        88.1462 
 497   0.0000       3.245671        88.3192 
 498   0.0000       3.249508        88.4236 
 499   0.0000       3.288803        89.4929 
 500   0.0000       3.299951        89.7962 
 501   0.0000       3.301250        89.8316 
 502   0.0000       3.332253        90.6752 
 503   0.0000       3.339820        90.8811 
 504   0.0000       3.342011        90.9407 
 505   0.0000       3.381613        92.0184 
 506   0.0000       3.388155        92.1964 
 507   0.0000       3.389456        92.2318 
 508   0.0000       3.395641        92.4001 
 509   0.0000       3.399368        92.5015 
 510   0.0000       3.414094        92.9022 
 511   0.0000       3.417624        92.9983 
 512   0.0000       3.890655       105.8701 
 513   0.0000       3.893407       105.9450 
 514   0.0000       3.897806       106.0647 
 515   0.0000       3.899592       106.1133 
 516   0.0000       3.925598       106.8210 
 517   0.0000       3.932863       107.0186 
 518   0.0000       3.935541       107.0915 
 519   0.0000       3.942015       107.2677 
 520   0.0000       3.945094       107.3515 
 521   0.0000       3.946105       107.3790 
 522   0.0000       4.012171       109.1767 
 523   0.0000       4.014553       109.2415 
 524   0.0000       4.018412       109.3466 
 525   0.0000       4.024674       109.5170 
 526   0.0000       4.039550       109.9217 
 527   0.0000       4.042112       109.9915 
 528   0.0000       4.049459       110.1914 
 529   0.0000       4.065698       110.6333 
 530   0.0000       4.067684       110.6873 
 531   0.0000       4.072743       110.8250 
 532   0.0000       4.080755       111.0430 
 533   0.0000       4.085935       111.1839 
 534   0.0000       4.092197       111.3543 
 535   0.0000       4.106313       111.7385 
 536   0.0000       4.112599       111.9095 
 537   0.0000       4.124253       112.2266 
 538   0.0000       4.134563       112.5072 
 539   0.0000       4.155118       113.0665 
 540   0.0000       4.181111       113.7738 
 541   0.0000       4.216254       114.7301 
 542   0.0000       4.224665       114.9590 
 543   0.0000       4.268793       116.1598 
 544   0.0000       5.186715       141.1377 
 545   0.0000       5.187319       141.1541 
 546   0.0000       5.188046       141.1739 
 547   0.0000       5.188933       141.1980 
 548   0.0000       5.189356       141.2096 
 549   0.0000       5.190890       141.2513 
 550   0.0000       5.191277       141.2618 
 551   0.0000       5.192523       141.2957 
 552   0.0000       5.193364       141.3186 
 553   0.0000       5.194544       141.3507 
 554   0.0000       5.196279       141.3979 
 555   0.0000       5.196952       141.4163 
 556   0.0000       5.198046       141.4460 
 557   0.0000       5.199460       141.4845 
 558   0.0000       5.200334       141.5083 
 559   0.0000       5.203035       141.5818 
 560   0.0000       5.287315       143.8752 
 561   0.0000       5.288680       143.9123 
 562   0.0000       5.295288       144.0921 
 563   0.0000       5.296160       144.1158 
 564   0.0000       5.299859       144.2165 
 565   0.0000       5.307979       144.4374 
 566   0.0000       5.313820       144.5964 
 567   0.0000       5.320642       144.7820 
 568   0.0000       5.328632       144.9994 
 569   0.0000       5.345039       145.4459 
 570   0.0000       5.348667       145.5446 
 571   0.0000       5.350793       145.6025 
 572   0.0000       5.355630       145.7341 
 573   0.0000       5.357095       145.7740 
 574   0.0000       5.358446       145.8107 
 575   0.0000       5.360302       145.8612 
 576   0.0000       5.397694       146.8787 
 577   0.0000       5.398470       146.8998 
 578   0.0000       5.398933       146.9124 
 579   0.0000       5.402891       147.0201 
 580   0.0000       5.422987       147.5670 
 581   0.0000       5.431130       147.7886 
 582   0.0000       5.434143       147.8706 
 583   0.0000       5.438279       147.9831 
 584   0.0000       5.442027       148.0851 
 585   0.0000       5.442877       148.1082 
 586   0.0000       5.447208       148.2261 
 587   0.0000       5.448467       148.2603 
 588   0.0000       5.458725       148.5395 
 589   0.0000       5.459009       148.5472 
 590   0.0000       5.460490       148.5875 
 591   0.0000       5.466856       148.7607 
 592   0.0000       5.469700       148.8381 
 593   0.0000       5.472784       148.9220 
 594   0.0000       5.480995       149.1455 
 595   0.0000       5.486895       149.3060 
 596   0.0000       5.487935       149.3343 
 597   0.0000       5.496877       149.5776 
 598   0.0000       5.502326       149.7259 
 599   0.0000       5.504291       149.7794 
 600   0.0000       5.505649       149.8163 
 601   0.0000       5.508637       149.8976 
 602   0.0000       5.512117       149.9923 
 603   0.0000       5.514365       150.0535 
 604   0.0000       5.516447       150.1102 
 605   0.0000       5.517193       150.1305 
 606   0.0000       5.525276       150.3504 
 607   0.0000       5.527090       150.3998 
 608   0.0000       5.528320       150.4332 
 609   0.0000       5.529226       150.4579 
 610   0.0000       5.534195       150.5931 
 611   0.0000       5.535872       150.6387 
 612   0.0000       5.536595       150.6584 
 613   0.0000       5.537646       150.6870 
 614   0.0000       5.542818       150.8277 
 615   0.0000       5.544009       150.8601 
 616   0.0000       5.545772       150.9081 
 617   0.0000       5.546600       150.9306 
 618   0.0000       5.554347       151.1415 
 619   0.0000       5.556267       151.1937 
 620   0.0000       5.592295       152.1741 
 621   0.0000       5.595999       152.2749 
 622   0.0000       5.602363       152.4480 
 623   0.0000       5.635083       153.3384 
 624   0.0000       5.988551       162.9568 
 625   0.0000       5.997340       163.1959 
 626   0.0000       6.006281       163.4392 
 627   0.0000       6.033175       164.1710 
 628   0.0000       6.042499       164.4248 
 629   0.0000       6.048569       164.5899 
 630   0.0000       6.049266       164.6089 
 631   0.0000       6.051878       164.6800 
 632   0.0000       6.052003       164.6834 
 633   0.0000       6.055251       164.7718 
 634   0.0000       6.061629       164.9453 
 635   0.0000       6.066579       165.0800 
 636   0.0000       6.067365       165.1014 
 637   0.0000       6.079866       165.4416 
 638   0.0000       6.083880       165.5508 
 639   0.0000       6.092767       165.7926 
 640   0.0000       6.176339       168.0667 
 641   0.0000       6.193462       168.5327 
 642   0.0000       6.238415       169.7559 
 643   0.0000       6.253151       170.1569 
 644   0.0000       6.258447       170.3010 
 645   0.0000       6.268650       170.5786 
 646   0.0000       6.283007       170.9693 
 647   0.0000       6.307862       171.6456 
 648   0.0000       6.311172       171.7357 
 649   0.0000       6.345831       172.6789 
 650   0.0000       6.350235       172.7987 
 651   0.0000       6.376434       173.5116 
 652   0.0000       6.385171       173.7493 
 653   0.0000       6.392025       173.9358 
 654   0.0000       6.392280       173.9428 
 655   0.0000       6.394960       174.0157 
 656   0.0000       6.403346       174.2439 
 657   0.0000       6.406547       174.3310 
 658   0.0000       6.439968       175.2404 
 659   0.0000       6.450985       175.5402 
 660   0.0000       6.459800       175.7801 
 661   0.0000       6.461702       175.8319 
 662   0.0000       6.462373       175.8501 
 663   0.0000       6.463658       175.8851 
 664   0.0000       6.488688       176.5662 
 665   0.0000       6.494091       176.7132 
 666   0.0000       6.494296       176.7188 
 667   0.0000       6.498309       176.8280 
 668   0.0000       6.500008       176.8742 
 669   0.0000       6.504029       176.9836 
 670   0.0000       6.515314       177.2907 
 671   0.0000       6.518670       177.3820 
 672   0.0000       6.520028       177.4190 
 673   0.0000       6.520712       177.4376 
 674   0.0000       6.524234       177.5334 
 675   0.0000       6.526797       177.6032 
 676   0.0000       6.537939       177.9064 
 677   0.0000       6.547905       178.1776 
 678   0.0000       6.550922       178.2596 
 679   0.0000       6.561053       178.5353 
 680   0.0000       6.563813       178.6104 
 681   0.0000       6.570500       178.7924 
 682   0.0000       6.595047       179.4603 
 683   0.0000       6.598474       179.5536 
 684   0.0000       6.599813       179.5900 
 685   0.0000       6.610158       179.8715 
 686   0.0000       6.618930       180.1102 
 687   0.0000       6.625319       180.2841 
 688   0.0000       6.639650       180.6741 
 689   0.0000       6.641854       180.7340 
 690   0.0000       6.650227       180.9619 
 691   0.0000       6.653489       181.0506 
 692   0.0000       6.676588       181.6792 
 693   0.0000       6.701302       182.3517 
 694   0.0000       6.721351       182.8973 
 695   0.0000       6.747384       183.6057 
 696   0.0000       6.749677       183.6680 
 697   0.0000       6.781089       184.5228 
 698   0.0000       6.798705       185.0022 
 699   0.0000       6.805255       185.1804 
 700   0.0000       6.857539       186.6031 
 701   0.0000       6.861756       186.7179 
 702   0.0000       6.872557       187.0118 
 703   0.0000       6.899907       187.7560 
 704   0.0000       6.965445       189.5394 
 705   0.0000       6.984856       190.0676 
 706   0.0000       7.019561       191.0120 
 707   0.0000       7.043321       191.6585 
 708   0.0000       7.073225       192.4722 
 709   0.0000       7.074460       192.5058 
 710   0.0000       7.119424       193.7294 
 711   0.0000       7.125499       193.8947 
 712   0.0000       7.139507       194.2759 
 713   0.0000       7.140149       194.2933 
 714   0.0000       7.152587       194.6318 
 715   0.0000       7.155362       194.7073 
 716   0.0000       7.169514       195.0924 
 717   0.0000       7.176217       195.2748 
 718   0.0000       7.181170       195.4096 
 719   0.0000       7.188066       195.5972 
 720   0.0000       7.206959       196.1113 
 721   0.0000       7.213920       196.3007 
 722   0.0000       7.216154       196.3615 
 723   0.0000       7.234555       196.8622 
 724   0.0000       7.248359       197.2379 
 725   0.0000       7.250333       197.2916 
 726   0.0000       7.251619       197.3266 
 727   0.0000       7.256677       197.4642 
 728   0.0000       7.287347       198.2988 
 729   0.0000       7.289161       198.3482 
 730   0.0000       7.293625       198.4696 
 731   0.0000       7.300178       198.6480 
 732   0.0000       7.328106       199.4079 
 733   0.0000       7.355782       200.1610 
 734   0.0000       7.367687       200.4850 
 735   0.0000       7.387724       201.0302 
 736   0.0000      43.736265      1190.1243 
 737   0.0000      43.742835      1190.3030 
 738   0.0000      43.766867      1190.9570 
 739   0.0000      43.770441      1191.0543 
 740   0.0000      43.793287      1191.6759 
 741   0.0000      43.814696      1192.2585 
 742   0.0000      43.833620      1192.7734 
 743   0.0000      43.838924      1192.9178 
 744   0.0000      43.845410      1193.0943 
 745   0.0000      43.888223      1194.2593 
 746   0.0000      43.890025      1194.3083 
 747   0.0000      43.893961      1194.4154 
 748   0.0000      43.945650      1195.8219 
 749   0.0000      43.948016      1195.8863 
 750   0.0000      44.070356      1199.2154 
 751   0.0000      44.208286      1202.9686 

                    ********************************
                    * MULLIKEN POPULATION ANALYSIS *
                    ********************************

-----------------------
MULLIKEN ATOMIC CHARGES
-----------------------
   0 O :   -0.860916
   1 H :    0.425761
   2 H :    0.361694
   3 O :   -0.827920
   4 H :    0.429852
   5 H :    0.425234
   6 O :   -0.904997
   7 H :    0.446720
   8 H :    0.416230
   9 O :   -0.751627
  10 H :    0.416802
  11 H :    0.432325
  12 O :   -0.859319
  13 H :    0.361859
  14 H :    0.424015
  15 O :   -0.860633
  16 H :    0.361965
  17 H :    0.425371
  18 O :   -0.828551
  19 H :    0.427135
  20 H :    0.430468
  21 O :   -0.753568
  22 H :    0.430959
  23 H :    0.417435
  24 O :   -0.859025
  25 H :    0.425767
  26 H :    0.362004
  27 O :   -0.835812
  28 H :    0.426745
  29 H :    0.431999
  30 O :   -0.750997
  31 H :    0.432171
  32 H :    0.415995
  33 O :   -0.915362
  34 H :    0.419855
  35 H :    0.445793
  36 O :   -0.921605
  37 H :    0.446613
  38 H :    0.419953
  39 O :   -0.750404
  40 H :    0.431898
  41 H :    0.415674
  42 O :   -0.910113
  43 H :    0.445590
  44 H :    0.420011
  45 O :   -0.841378
  46 H :    0.426560
  47 H :    0.431776
Sum of atomic charges:    0.0000000

--------------------------------
MULLIKEN REDUCED ORBITAL CHARGES
--------------------------------
  0 O s       :     3.817113  s :     3.817113
      pz      :     1.627998  p :     5.025048
      px      :     1.654859
      py      :     1.742191
      dz2     :     0.003115  d :     0.017715
      dxz     :     0.006698
      dyz     :     0.004634
      dx2y2   :     0.000234
      dxy     :     0.003034
      f0      :     0.000011  f :     0.001039
      f+1     :     0.000185
      f-1     :     0.000076
      f+2     :     0.000039
      f-2     :     0.000379
      f+3     :     0.000138
      f-3     :     0.000212
  1 H s       :     0.511291  s :     0.511291
      pz      :     0.012064  p :     0.062948
      px      :     0.025953
      py      :     0.024932
  2 H s       :     0.593572  s :     0.593572
      pz      :     0.015806  p :     0.044734
      px      :     0.014868
      py      :     0.014060
  3 O s       :     3.761931  s :     3.761931
      pz      :     1.746632  p :     5.046716
      px      :     1.670167
      py      :     1.629917
[...]
      px      :     0.083034
      py      :     0.037884
 12 O s       :     3.492929  s :     3.492929
      pz      :     1.816819  p :     4.894107
      px      :     1.647461
      py      :     1.429828
      dz2     :     0.004038  d :     0.028784
      dxz     :     0.004179
      dyz     :     0.002747
      dx2y2   :     0.004726
      dxy     :     0.013095
      f0      :     0.000224  f :     0.001996
      f+1     :     0.000126
      f-1     :     0.000353
      f+2     :     0.000103
      f-2     :     0.000282
      f+3     :     0.000596
      f-3     :     0.000312
 13 H s       :     0.646090  s :     0.646090
      pz      :     0.042948  p :     0.158512
      px      :     0.043507
      py      :     0.072057
 14 H s       :     0.587042  s :     0.587042
      pz      :     0.044389  p :     0.217733
      px      :     0.097004
      py      :     0.076341
 15 O s       :     3.492823  s :     3.492823
      pz      :     1.829834  p :     4.894218
      px      :     1.410455
      py      :     1.653930
      dz2     :     0.004456  d :     0.028761
      dxz     :     0.002251
      dyz     :     0.003829
      dx2y2   :     0.004098
      dxy     :     0.014128
      f0      :     0.000148  f :     0.001996
      f+1     :     0.000451
      f-1     :     0.000161
      f+2     :     0.000038
      f-2     :     0.000250
      f+3     :     0.000271
      f-3     :     0.000678
 16 H s       :     0.646066  s :     0.646066
      pz      :     0.042249  p :     0.158513
      px      :     0.071770
      py      :     0.044494
 17 H s       :     0.586778  s :     0.586778
      pz      :     0.044251  p :     0.217867
      px      :     0.082529
      py      :     0.091087
 18 O s       :     3.487989  s :     3.487989
      pz      :     1.442737  p :     4.896926
      px      :     1.790806
      py      :     1.663382
      dz2     :     0.002701  d :     0.028766
      dxz     :     0.008040
      dyz     :     0.011092
      dx2y2   :     0.002035
      dxy     :     0.004898
      f0      :     0.000105  f :     0.001826
      f+1     :     0.000415
      f-1     :     0.000412
      f+2     :     0.000240
      f-2     :     0.000471
      f+3     :     0.000118
      f-3     :     0.000066
 19 H s       :     0.614634  s :     0.614634
      pz      :     0.081512  p :     0.182707
      px      :     0.059652
      py      :     0.041542
 20 H s       :     0.605410  s :     0.605410
      pz      :     0.075832  p :     0.198086
      px      :     0.042988
      py      :     0.079265
 21 O s       :     3.483193  s :     3.483193
      pz      :     1.633547  p :     4.842522
      px      :     1.648790
      py      :     1.560186
      dz2     :     0.001800  d :     0.030213
      dxz     :     0.009006
      dyz     :     0.012415
      dx2y2   :     0.000289
      dxy     :     0.006701
      f0      :     0.000188  f :     0.002016
      f+1     :     0.000189
      f-1     :     0.000251
      f+2     :     0.000034
      f-2     :     0.000948
      f+3     :     0.000283
      f-3     :     0.000123
 22 H s       :     0.619048  s :     0.619048
      pz      :     0.059938  p :     0.175230
      px      :     0.057024
      py      :     0.058269
 23 H s       :     0.619711  s :     0.619711
      pz      :     0.070165  p :     0.179670
      px      :     0.049707
      py      :     0.059798
 24 O s       :     3.492895  s :     3.492895
      pz      :     1.467807  p :     4.894253
      px      :     1.712268
      py      :     1.714178
      dz2     :     0.015268  d :     0.028758
      dxz     :     0.002323
      dyz     :     0.002209
      dx2y2   :     0.000824
      dxy     :     0.008133
      f0      :     0.001105  f :     0.001993
      f+1     :     0.000091
      f-1     :     0.000170
      f+2     :     0.000028
      f-2     :     0.000143
      f+3     :     0.000197
      f-3     :     0.000258
 25 H s       :     0.586752  s :     0.586752
      pz      :     0.032336  p :     0.217841
      px      :     0.095770
      py      :     0.089734
 26 H s       :     0.646071  s :     0.646071
      pz      :     0.082754  p :     0.158530
      px      :     0.037509
      py      :     0.038267
 27 O s       :     3.487969  s :     3.487969
      pz      :     1.481134  p :     4.896786
      px      :     1.666532
      py      :     1.749120
      dz2     :     0.001283  d :     0.028792
      dxz     :     0.012106
      dyz     :     0.007745
      dx2y2   :     0.002995
      dxy     :     0.004663
      f0      :     0.000057  f :     0.001827
      f+1     :     0.000475
      f-1     :     0.000263
      f+2     :     0.000414
      f-2     :     0.000419
      f+3     :     0.000143
      f-3     :     0.000056
 28 H s       :     0.614635  s :     0.614635
      pz      :     0.073360  p :     0.183019
      px      :     0.071586
      py      :     0.038073
 29 H s       :     0.605404  s :     0.605404
      pz      :     0.078966  p :     0.198005
      px      :     0.041593
      py      :     0.077446
 30 O s       :     3.483464  s :     3.483464
      pz      :     1.437177  p :     4.842225
      px      :     1.609434
      py      :     1.795613
      dz2     :     0.001666  d :     0.030235
      dxz     :     0.012785
      dyz     :     0.007114
      dx2y2   :     0.003459
      dxy     :     0.005210
      f0      :     0.000089  f :     0.002015
      f+1     :     0.000435
      f-1     :     0.000389
      f+2     :     0.000443
      f-2     :     0.000400
      f+3     :     0.000159
      f-3     :     0.000099
 31 H s       :     0.618739  s :     0.618739
      pz      :     0.061788  p :     0.175808
      px      :     0.074146
      py      :     0.039874
 32 H s       :     0.620201  s :     0.620201
      pz      :     0.076812  p :     0.179416
      px      :     0.040570
      py      :     0.062034
 33 O s       :     3.485294  s :     3.485294
      pz      :     1.711176  p :     4.894583
      px      :     1.632119
      py      :     1.551288
      dz2     :     0.001815  d :     0.028603
      dxz     :     0.006951
      dyz     :     0.006103
      dx2y2   :     0.001104
      dxy     :     0.012631
      f0      :     0.000370  f :     0.001857
      f+1     :     0.000072
      f-1     :     0.000057
      f+2     :     0.000084
      f-2     :     0.000722
      f+3     :     0.000244
      f-3     :     0.000307
 34 H s       :     0.606260  s :     0.606260
      pz      :     0.043920  p :     0.197514
      px      :     0.082358
      py      :     0.071236
 35 H s       :     0.614571  s :     0.614571
      pz      :     0.060576  p :     0.176530
      px      :     0.054600
      py      :     0.061355
 36 O s       :     3.485172  s :     3.485172
      pz      :     1.651021  p :     4.894644
      px      :     1.495751
      py      :     1.747872
      dz2     :     0.002370  d :     0.028621
      dxz     :     0.012525
      dyz     :     0.004546
      dx2y2   :     0.002090
      dxy     :     0.007090
      f0      :     0.000157  f :     0.001858
      f+1     :     0.000392
      f-1     :     0.000051
      f+2     :     0.000459
      f-2     :     0.000390
      f+3     :     0.000162
      f-3     :     0.000248
 37 H s       :     0.614486  s :     0.614486
      pz      :     0.071336  p :     0.176316
      px      :     0.068245
      py      :     0.036736
 38 H s       :     0.606039  s :     0.606039
      pz      :     0.041635  p :     0.198264
      px      :     0.079149
      py      :     0.077479
 39 O s       :     3.483319  s :     3.483319
      pz      :     1.414015  p :     4.842418
      px      :     1.815564
      py      :     1.612839
      dz2     :     0.002251  d :     0.030221
      dxz     :     0.005891
      dyz     :     0.013897
      dx2y2   :     0.002869
      dxy     :     0.005314
      f0      :     0.000091  f :     0.002014
      f+1     :     0.000329
      f-1     :     0.000555
      f+2     :     0.000401
      f-2     :     0.000399
      f+3     :     0.000100
      f-3     :     0.000140
 40 H s       :     0.618841  s :     0.618841
      pz      :     0.075843  p :     0.175505
      px      :     0.055932
      py      :     0.043730
 41 H s       :     0.620173  s :     0.620173
      pz      :     0.065361  p :     0.179684
      px      :     0.040263
      py      :     0.074060
 42 O s       :     3.485164  s :     3.485164
      pz      :     1.559910  p :     4.894467
      px      :     1.704329
      py      :     1.630228
      dz2     :     0.006439  d :     0.028624
      dxz     :     0.006598
      dyz     :     0.005167
      dx2y2   :     0.000986
      dxy     :     0.009434
      f0      :     0.000194  f :     0.001860
      f+1     :     0.000436
      f-1     :     0.000415
      f+2     :     0.000042
      f-2     :     0.000300
      f+3     :     0.000231
      f-3     :     0.000243
 43 H s       :     0.614681  s :     0.614681
      pz      :     0.085486  p :     0.176350
      px      :     0.048248
      py      :     0.042616
 44 H s       :     0.606319  s :     0.606319
      pz      :     0.036507  p :     0.197857
      px      :     0.082268
      py      :     0.079082
 45 O s       :     3.487464  s :     3.487464
      pz      :     1.631286  p :     4.896698
      px      :     1.689605
      py      :     1.575807
      dz2     :     0.001866  d :     0.028775
      dxz     :     0.007788
      dyz     :     0.012065
      dx2y2   :     0.000857
      dxy     :     0.006199
      f0      :     0.000172  f :     0.001832
      f+1     :     0.000129
      f-1     :     0.000297
      f+2     :     0.000118
      f-2     :     0.000754
      f+3     :     0.000258
      f-3     :     0.000104
 46 H s       :     0.614805  s :     0.614805
      pz      :     0.057879  p :     0.182810
      px      :     0.066617
      py      :     0.058314
 47 H s       :     0.605238  s :     0.605238
      pz      :     0.081371  p :     0.197755
      px      :     0.043335
      py      :     0.073049


                      *****************************
                      * MAYER POPULATION ANALYSIS *
                      *****************************

  NA   - Mulliken gross atomic population
  ZA   - Total nuclear charge
  QA   - Mulliken gross atomic charge
  VA   - Mayer's total valence
  BVA  - Mayer's bonded valence
  FA   - Mayer's free valence

  ATOM       NA         ZA         QA         VA         BVA        FA
  0 O      8.8609     8.0000    -0.8609     1.6276     1.6276    -0.0000
  1 H      0.5742     1.0000     0.4258     0.8615     0.8615    -0.0000
  2 H      0.6383     1.0000     0.3617     0.8939     0.8939    -0.0000
  3 O      8.8279     8.0000    -0.8279     1.7246     1.7246    -0.0000
  4 H      0.5701     1.0000     0.4299     0.8448     0.8448    -0.0000
  5 H      0.5748     1.0000     0.4252     0.8623     0.8623    -0.0000
  6 O      8.9050     8.0000    -0.9050     1.7834     1.7834     0.0000
  7 H      0.5533     1.0000     0.4467     0.8284     0.8284     0.0000
  8 H      0.5838     1.0000     0.4162     0.8618     0.8618     0.0000
  9 O      8.7516     8.0000    -0.7516     1.8660     1.8660     0.0000
 10 H      0.5832     1.0000     0.4168     0.8527     0.8527     0.0000
 11 H      0.5677     1.0000     0.4323     0.8376     0.8376     0.0000
 12 O      8.8593     8.0000    -0.8593     1.6278     1.6278    -0.0000
 13 H      0.6381     1.0000     0.3619     0.8936     0.8936    -0.0000
 14 H      0.5760     1.0000     0.4240     0.8634     0.8634     0.0000
 15 O      8.8606     8.0000    -0.8606     1.6278     1.6278     0.0000
 16 H      0.6380     1.0000     0.3620     0.8936     0.8936     0.0000
 17 H      0.5746     1.0000     0.4254     0.8619     0.8619     0.0000
 18 O      8.8286     8.0000    -0.8286     1.7274     1.7274    -0.0000
 19 H      0.5729     1.0000     0.4271     0.8606     0.8606     0.0000
 20 H      0.5695     1.0000     0.4305     0.8438     0.8438    -0.0000
 21 O      8.7536     8.0000    -0.7536     1.8620     1.8620     0.0000
 22 H      0.5690     1.0000     0.4310     0.8389     0.8389     0.0000
 23 H      0.5826     1.0000     0.4174     0.8518     0.8518     0.0000
 24 O      8.8590     8.0000    -0.8590     1.6297     1.6297     0.0000
 25 H      0.5742     1.0000     0.4258     0.8608     0.8608     0.0000
 26 H      0.6380     1.0000     0.3620     0.8939     0.8939     0.0000
 27 O      8.8358     8.0000    -0.8358     1.7324     1.7324    -0.0000
 28 H      0.5733     1.0000     0.4267     0.8607     0.8607    -0.0000
 29 H      0.5680     1.0000     0.4320     0.8422     0.8422    -0.0000
 30 O      8.7510     8.0000    -0.7510     1.8647     1.8647     0.0000
 31 H      0.5678     1.0000     0.4322     0.8381     0.8381     0.0000
 32 H      0.5840     1.0000     0.4160     0.8541     0.8541     0.0000
 33 O      8.9154     8.0000    -0.9154     1.7963     1.7963    -0.0000
 34 H      0.5801     1.0000     0.4199     0.8578     0.8578     0.0000
 35 H      0.5542     1.0000     0.4458     0.8281     0.8281     0.0000
 36 O      8.9216     8.0000    -0.9216     1.8007     1.8007    -0.0000
 37 H      0.5534     1.0000     0.4466     0.8269     0.8269     0.0000
 38 H      0.5800     1.0000     0.4200     0.8569     0.8569    -0.0000
 39 O      8.7504     8.0000    -0.7504     1.8641     1.8641    -0.0000
 40 H      0.5681     1.0000     0.4319     0.8387     0.8387    -0.0000
 41 H      0.5843     1.0000     0.4157     0.8546     0.8546    -0.0000
 42 O      8.9101     8.0000    -0.9101     1.7933     1.7933    -0.0000
 43 H      0.5544     1.0000     0.4456     0.8290     0.8290    -0.0000
 44 H      0.5800     1.0000     0.4200     0.8550     0.8550    -0.0000
 45 O      8.8414     8.0000    -0.8414     1.7346     1.7346    -0.0000
 46 H      0.5734     1.0000     0.4266     0.8604     0.8604    -0.0000
 47 H      0.5682     1.0000     0.4318     0.8426     0.8426    -0.0000

  Mayer bond orders larger than 0.1
B(  0-O ,  1-H ) :   0.7114 B(  0-O ,  2-H ) :   0.8696 B(  1-H ,  9-O ) :   0.1570 
B(  3-O ,  4-H ) :   0.7867 B(  3-O ,  5-H ) :   0.8015 B(  6-O ,  7-H ) :   0.8062 
B(  6-O ,  8-H ) :   0.7871 B(  9-O , 10-H ) :   0.8367 B(  9-O , 11-H ) :   0.8222 
B( 12-O , 13-H ) :   0.8698 B( 12-O , 14-H ) :   0.7118 B( 14-H , 39-O ) :   0.1589 
B( 15-O , 16-H ) :   0.8695 B( 15-O , 17-H ) :   0.7117 B( 17-H , 30-O ) :   0.1570 
B( 18-O , 19-H ) :   0.8011 B( 18-O , 20-H ) :   0.7870 B( 21-O , 22-H ) :   0.8226 
B( 21-O , 23-H ) :   0.8357 B( 21-O , 25-H ) :   0.1562 B( 24-O , 25-H ) :   0.7122 
B( 24-O , 26-H ) :   0.8698 B( 27-O , 28-H ) :   0.8012 B( 27-O , 29-H ) :   0.7881 
B( 30-O , 31-H ) :   0.8219 B( 30-O , 32-H ) :   0.8368 B( 33-O , 34-H ) :   0.7871 
B( 33-O , 35-H ) :   0.8068 B( 36-O , 37-H ) :   0.8070 B( 36-O , 38-H ) :   0.7862 
B( 39-O , 40-H ) :   0.8222 B( 39-O , 41-H ) :   0.8369 B( 42-O , 43-H ) :   0.8066 
B( 42-O , 44-H ) :   0.7874 B( 45-O , 46-H ) :   0.8013 B( 45-O , 47-H ) :   0.7871 


-------
TIMINGS
-------

Total SCF time: 0 days 1 hours 7 min 2 sec 

Total time                  ....    4022.407 sec
Sum of individual times     ....    3540.080 sec  ( 88.0%)

Fock matrix formation       ....    3383.748 sec  ( 84.1%)
  Coulomb formation         ....    3059.267 sec  ( 90.4% of F)
  Split-RI-J                ....     160.524 sec  (  4.7% of F)
  Chain of spheres X        ....    3449.766 sec  (102.0% of F)
  COS-X 1 center corr.      ....       0.000 sec  (  0.0% of F)
  XC integration            ....     324.046 sec  (  9.6% of F)
    Basis function eval.    ....     111.294 sec  ( 34.3% of XC)
    Density eval.           ....      79.004 sec  ( 24.4% of XC)
    XC-Functional eval.     ....      19.922 sec  (  6.1% of XC)
    XC-Potential eval.      ....     108.255 sec  ( 33.4% of XC)
Diagonalization             ....       3.281 sec  (  0.1%)
Density matrix formation    ....       0.369 sec  (  0.0%)
Population analysis         ....       2.836 sec  (  0.1%)
Initial guess               ....      60.947 sec  (  1.5%)
Orbital Transformation      ....       0.000 sec  (  0.0%)
Orbital Orthonormalization  ....       0.000 sec  (  0.0%)
DIIS solution               ....       1.207 sec  (  0.0%)
SOSCF solution              ....       2.345 sec  (  0.1%)
Grid generation             ....      85.347 sec  (  2.1%)

Entering the calculation of the dispersion correction...

Checking the input atom types...

Done


-------------------------------------------------------------------------------
                          DFT DISPERSION CORRECTION                            
                                                                               
                                DFTD3 V2.1  Rev 6                               
                              USING zero damping                               
-------------------------------------------------------------------------------
The omegaB97X-D3 functional is recognized. Fit by Chai et al.
Active option DFTDOPT                   ...         3   

molecular C6(AA) [au] = 11387.476833 


            DFT-D V3
 parameters
 s6 scaling factor         :     1.0000 
 rs6 scaling factor        :     1.2810 
 s8 scaling factor         :     1.0000 
 rs8 scaling factor        :     1.0940 
 Damping factor alpha6     :    14.0000 
 Damping factor alpha8     :    16.0000 
 ad hoc parameters k1-k3   :    16.0000     1.3333    -4.0000 

 Edisp/kcal,au: -20.744873202153  -0.033059056232 
 E6   /kcal   : -11.124958122 
 E8   /kcal   :  -9.619915080 
 % E8         :  46.372493995 

-------------------------   ----------------
Dispersion correction           -0.033059056
-------------------------   ----------------


-------------------------   --------------------
FINAL SINGLE POINT ENERGY     -1223.308413889396
-------------------------   --------------------


                            ***************************************
                            *     ORCA property calculations      *
                            ***************************************

                                    ---------------------
                                    Active property flags
                                    ---------------------
   (+) Dipole Moment


------------------------------------------------------------------------------
                       ORCA ELECTRIC PROPERTIES CALCULATION
------------------------------------------------------------------------------

Dipole Moment Calculation                       ... on
Quadrupole Moment Calculation                   ... off
Polarizability Calculation                      ... off
GBWName                                         ... 1_wb98x-ma-def2-TZVP-GasPhase_onBP86_16_waters.gbw
Electron density file                           ... 1_wb98x-ma-def2-TZVP-GasPhase_onBP86_16_waters.scfp.tmp

-------------
DIPOLE MOMENT
-------------
                                X             Y             Z
Electronic contribution:     -0.00351       0.00265      -0.00280
Nuclear contribution   :     -0.01604      -0.02139      -0.00043
                        -----------------------------------------
Total Dipole Moment    :     -0.01955      -0.01875      -0.00323
                        -----------------------------------------
Magnitude (a.u.)       :      0.02728
Magnitude (Debye)      :      0.06934


Timings for individual modules:

Sum of individual times         ...     4086.340 sec (=  68.106 min)
GTO integral calculation        ...        2.434 sec (=   0.041 min)   0.1 %
SCF iterations                  ...     4083.905 sec (=  68.065 min)  99.9 %
                             ****ORCA TERMINATED NORMALLY****
TOTAL RUN TIME: 0 days 1 hours 8 minutes 7 seconds 497 msec
cp: cannot stat /scratch/slurm-2202303/*.{prop}: No such file or directory
