
                                 *****************
                                 * O   R   C   A *
                                 *****************

           --- An Ab Initio, DFT and Semiempirical electronic structure package ---

                  #######################################################
                  #                        -***-                        #
                  #          Department of theory and spectroscopy      #
                  #               Directorship: Frank Neese             #
                  #        Max Planck Institute fuer Kohlenforschung    #
                  #                Kaiser Wilhelm Platz 1               #
                  #                 D-45470 Muelheim/Ruhr               #
                  #                      Germany                        #
                  #                                                     #
                  #                  All rights reserved                #
                  #                        -***-                        #
                  #######################################################


                         Program Version 4.2.0 -  RELEASE  -


 With contributions from (in alphabetic order):
   Daniel Aravena         : Magnetic Suceptibility
   Michael Atanasov       : Ab Initio Ligand Field Theory (pilot matlab implementation)
   Alexander A. Auer      : GIAO ZORA, VPT2
   Ute Becker             : Parallelization
   Giovanni Bistoni       : ED, misc. LED, open-shell LED, HFLED
   Martin Brehm           : Molecular dynamics
   Dmytro Bykov           : SCF Hessian
   Vijay G. Chilkuri      : MRCI spin determinant printing, contributions to CSF-ICE
   Dipayan Datta          : RHF DLPNO-CCSD density
   Achintya Kumar Dutta   : EOM-CC, STEOM-CC
   Dmitry Ganyushin       : Spin-Orbit,Spin-Spin,Magnetic field MRCI
   Miquel Garcia          : C-PCM Hessian, Gaussian charge scheme
   Yang Guo               : DLPNO-NEVPT2, CIM, IAO-localization
   Andreas Hansen         : Spin unrestricted coupled pair/coupled cluster methods
   Benjamin Helmich-Paris : CASSCF linear response (MC-RPA)
   Lee Huntington         : MR-EOM, pCC
   Robert Izsak           : Overlap fitted RIJCOSX, COSX-SCS-MP3, EOM
   Christian Kollmar      : KDIIS, OOCD, Brueckner-CCSD(T), CCSD density
   Simone Kossmann        : Meta GGA functionals, TD-DFT gradient, OOMP2, MP2 Hessian
   Martin Krupicka        : AUTO-CI
   Lucas Lang             : DCDCAS
   Dagmar Lenk            : GEPOL surface, SMD
   Dimitrios Liakos       : Extrapolation schemes; Compound Job, initial MDCI parallelization
   Dimitrios Manganas     : Further ROCIS development; embedding schemes
   Dimitrios Pantazis     : SARC Basis sets
   Taras Petrenko         : DFT Hessian,TD-DFT gradient, ASA, ECA, R-Raman, ABS, FL, XAS/XES, NRVS
   Peter Pinski           : DLPNO-MP2, DLPNO-MP2 Gradient
   Christoph Reimann      : Effective Core Potentials
   Marius Retegan         : Local ZFS, SOC
   Christoph Riplinger    : Optimizer, TS searches, QM/MM, DLPNO-CCSD(T), (RO)-DLPNO pert. Triples
   Tobias Risthaus        : Range-separated hybrids, TD-DFT gradient, RPA, STAB
   Michael Roemelt        : Original ROCIS implementation
   Masaaki Saitow         : Open-shell DLPNO-CCSD energy and density
   Barbara Sandhoefer     : DKH picture change effects
   Avijit Sen             : IP-ROCIS
   Kantharuban Sivalingam : CASSCF convergence, NEVPT2, FIC-MRCI
   Bernardo de Souza      : ESD, SOC TD-DFT
   Georgi Stoychev        : AutoAux, RI-MP2 NMR
   Willem Van den Heuvel  : Paramagnetic NMR
   Boris Wezisla          : Elementary symmetry handling
   Frank Wennmohs         : Technical directorship


 We gratefully acknowledge several colleagues who have allowed us to
 interface, adapt or use parts of their codes:
   Stefan Grimme, W. Hujo, H. Kruse,             : VdW corrections, initial TS optimization,
                  C. Bannwarth                     DFT functionals, gCP, sTDA/sTD-DF
   Ed Valeev, F. Pavosevic, A. Kumar             : LibInt (2-el integral package), F12 methods
   Garnet Chan, S. Sharma, J. Yang, R. Olivares  : DMRG
   Ulf Ekstrom                                   : XCFun DFT Library
   Mihaly Kallay                                 : mrcc  (arbitrary order and MRCC methods)
   Andreas Klamt, Michael Diedenhofen            : otool_cosmo (COSMO solvation model)
   Jiri Pittner, Ondrej Demel                    : Mk-CCSD
   Frank Weinhold                                : gennbo (NPA and NBO analysis)
   Christopher J. Cramer and Donald G. Truhlar   : smd solvation model
   Lars Goerigk                                  : TD-DFT with DH, B97 family of functionals
   V. Asgeirsson, H. Jonsson                     : NEB implementation
   FAccTs GmbH                                   : IRC, NEB, NEB-TS, Multilevel, MM, QM/MM, CI optimization
   S Lehtola, MJT Oliveira, MAL Marques          : LibXC Library


 Your calculation uses the libint2 library for the computation of 2-el integrals
 For citations please refer to: http://libint.valeyev.net

 Your ORCA version has been built with support for libXC version: 4.2.3
 For citations please refer to: https://tddft.org/programs/libxc/

 This ORCA versions uses:
   CBLAS   interface :  Fast vector & matrix operations
   LAPACKE interface :  Fast linear algebra routines
   SCALAPACK package :  Parallel linear algebra routines


----- Orbital basis set information -----
Your calculation utilizes the basis: def2-TZVP
   F. Weigend and R. Ahlrichs, Phys. Chem. Chem. Phys. 7, 3297 (2005).

================================================================================
                                        WARNINGS
                       Please study these warnings very carefully!
================================================================================


WARNING: The frozen-core approximation for MP2-gradient calculations is turned on by default.

INFO   : the flag for use of LIBINT has been found!

================================================================================
                                       INPUT FILE
================================================================================
NAME = 12h2o.su.etal.mol0,1,3,4,5,7,8-orca.engrad-mp2.def2tzvp.frozencore.inp
|  1> # 12h2o.su.etal.mol0,1,3,4,5,7,8
|  2> ! MP2 def2-TZVP EnGrad TightSCF
|  3> 
|  4> %pal
|  5>     nprocs 6
|  6> end
|  7> 
|  8> %maxcore 8000
|  9> 
| 10> %scf
| 11>     ConvForced true
| 12> end
| 13> 
| 14> *xyz 0 1
| 15> O   1.794470000   0.923410000   2.768350000
| 16> H   2.338250000   1.359750000   3.430940000
| 17> H   0.879480000   1.303000000   2.865760000
| 18> O  -1.794470000  -0.923410000   2.768350000
| 19> H  -2.338250000  -1.359750000   3.430940000
| 20> H  -0.879480000  -1.303000000   2.865760000
| 21> O  -1.752130000  -0.741530000  -2.896280000
| 22> H  -2.036450000  -0.920500000  -1.984040000
| 23> H  -0.921210000  -1.242140000  -2.984230000
| 24> O  -0.885520000   1.737840000   0.052730000
| 25> H  -1.032320000   2.090180000  -0.841890000
| 26> H  -1.284090000   0.839590000   0.017130000
| 27> O   0.885520000  -1.737840000   0.052730000
| 28> H   1.284090000  -0.839590000   0.017130000
| 29> H   1.032320000  -2.090180000  -0.841890000
| 30> O  -1.737840000  -0.885520000  -0.052730000
| 31> H  -2.090180000  -1.032320000   0.841890000
| 32> H  -0.839590000  -1.284090000  -0.017130000
| 33> O   1.752130000   0.741530000  -2.896280000
| 34> H   2.036450000   0.920500000  -1.984040000
| 35> H   0.921210000   1.242140000  -2.984230000
| 36> *
| 37> 
| 38>                          ****END OF INPUT****
================================================================================

                     *******************************
                     * Energy+Gradient Calculation *
                     *******************************

---------------------------------
CARTESIAN COORDINATES (ANGSTROEM)
---------------------------------
  O      1.794470    0.923410    2.768350
  H      2.338250    1.359750    3.430940
  H      0.879480    1.303000    2.865760
  O     -1.794470   -0.923410    2.768350
  H     -2.338250   -1.359750    3.430940
  H     -0.879480   -1.303000    2.865760
  O     -1.752130   -0.741530   -2.896280
  H     -2.036450   -0.920500   -1.984040
  H     -0.921210   -1.242140   -2.984230
  O     -0.885520    1.737840    0.052730
  H     -1.032320    2.090180   -0.841890
  H     -1.284090    0.839590    0.017130
  O      0.885520   -1.737840    0.052730
  H      1.284090   -0.839590    0.017130
  H      1.032320   -2.090180   -0.841890
  O     -1.737840   -0.885520   -0.052730
  H     -2.090180   -1.032320    0.841890
  H     -0.839590   -1.284090   -0.017130
  O      1.752130    0.741530   -2.896280
  H      2.036450    0.920500   -1.984040
  H      0.921210    1.242140   -2.984230

----------------------------
CARTESIAN COORDINATES (A.U.)
----------------------------
  NO LB      ZA    FRAG     MASS         X           Y           Z
   0 O     8.0000    0    15.999    3.391057    1.744992    5.231423
   1 H     1.0000    0     1.008    4.418652    2.569555    6.483537
   2 H     1.0000    0     1.008    1.661976    2.462313    5.415502
   3 O     8.0000    0    15.999   -3.391057   -1.744992    5.231423
   4 H     1.0000    0     1.008   -4.418652   -2.569555    6.483537
   5 H     1.0000    0     1.008   -1.661976   -2.462313    5.415502
   6 O     8.0000    0    15.999   -3.311046   -1.401289   -5.473176
   7 H     1.0000    0     1.008   -3.848333   -1.739493   -3.749292
   8 H     1.0000    0     1.008   -1.740835   -2.347304   -5.639377
   9 O     8.0000    0    15.999   -1.673390    3.284042    0.099645
  10 H     1.0000    0     1.008   -1.950802    3.949868   -1.590942
  11 H     1.0000    0     1.008   -2.426578    1.586595    0.032371
  12 O     8.0000    0    15.999    1.673390   -3.284042    0.099645
  13 H     1.0000    0     1.008    2.426578   -1.586595    0.032371
  14 H     1.0000    0     1.008    1.950802   -3.949868   -1.590942
  15 O     8.0000    0    15.999   -3.284042   -1.673390   -0.099645
  16 H     1.0000    0     1.008   -3.949868   -1.950802    1.590942
  17 H     1.0000    0     1.008   -1.586595   -2.426578   -0.032371
  18 O     8.0000    0    15.999    3.311046    1.401289   -5.473176
  19 H     1.0000    0     1.008    3.848333    1.739493   -3.749292
  20 H     1.0000    0     1.008    1.740835    2.347304   -5.639377

--------------------------------
INTERNAL COORDINATES (ANGSTROEM)
--------------------------------
 O      0   0   0     0.000000000000     0.00000000     0.00000000
 H      1   0   0     0.961828878803     0.00000000     0.00000000
 H      1   2   0     0.995381322057   106.21731035     0.00000000
 O      3   1   2     3.480861789658   117.35405144   223.81249033
 H      4   3   1     0.961828878803   134.84484566    98.22461471
 H      4   3   1     0.995381322057    62.29205096    12.66575463
 O      4   3   1     5.667707300743    90.09768939   276.02472436
 H      7   4   3     0.972136791249    18.92045113   191.47242104
 H      7   4   3     0.974050112161    94.59568686    71.02022155
 O      3   1   2     3.349245975813   116.85538783   143.82107740
 H     10   3   1     0.972645187106   154.03893681   304.15813038
 H     10   3   1     0.983350632989    97.20424340    87.67157074
 O      6   4   3     3.349245975813   116.85538783   276.41377787
 H     13   6   4     0.983350632989    97.20424340    87.67157074
 H     13   6   4     0.972645187106   154.03893681   304.15813038
 O     12  10   3     1.785153773264   170.81379649   301.36914736
 H     16  12  10     0.972645187106   101.65007623   109.44492584
 H     16  12  10     0.983350632989    99.09581498     3.33484705
 O      9   7   4     3.330079372477   112.10393238   271.95050236
 H     19   9   7     0.972136791249   111.66865871    85.41731375
 H     19   9   7     0.974050112161    67.60081190   348.80737033

---------------------------
INTERNAL COORDINATES (A.U.)
---------------------------
 O      0   0   0     0.000000000000     0.00000000     0.00000000
 H      1   0   0     1.817593168635     0.00000000     0.00000000
 H      1   2   0     1.880998097508   106.21731035     0.00000000
 O      3   1   2     6.577875492484   117.35405144   223.81249033
 H      4   3   1     1.817593168635   134.84484566    98.22461471
 H      4   3   1     1.880998097508    62.29205096    12.66575463
 O      4   3   1    10.710414605631    90.09768939   276.02472436
 H      7   4   3     1.837072300170    18.92045113   191.47242104
 H      7   4   3     1.840687952699    94.59568686    71.02022155
 O      3   1   2     6.329157649425   116.85538783   143.82107740
 H     10   3   1     1.838033029106   154.03893681   304.15813038
 H     10   3   1     1.858263389967    97.20424340    87.67157074
 O      6   4   3     6.329157649425   116.85538783   276.41377787
 H     13   6   4     1.858263389967    97.20424340    87.67157074
 H     13   6   4     1.838033029106   154.03893681   304.15813038
 O     12  10   3     3.373451738406   170.81379649   301.36914736
 H     16  12  10     1.838033029106   101.65007623   109.44492584
 H     16  12  10     1.858263389967    99.09581498     3.33484705
 O      9   7   4     6.292938018203   112.10393238   271.95050236
 H     19   9   7     1.837072300170   111.66865871    85.41731375
 H     19   9   7     1.840687952699    67.60081190   348.80737033

---------------------
BASIS SET INFORMATION
---------------------
There are 2 groups of distinct atoms

 Group   1 Type O   : 11s6p2d1f contracted to 5s3p2d1f pattern {62111/411/11/1}
 Group   2 Type H   : 5s1p contracted to 3s1p pattern {311/1}

Atom   0O    basis set group =>   1
Atom   1H    basis set group =>   2
Atom   2H    basis set group =>   2
Atom   3O    basis set group =>   1
Atom   4H    basis set group =>   2
Atom   5H    basis set group =>   2
Atom   6O    basis set group =>   1
Atom   7H    basis set group =>   2
Atom   8H    basis set group =>   2
Atom   9O    basis set group =>   1
Atom  10H    basis set group =>   2
Atom  11H    basis set group =>   2
Atom  12O    basis set group =>   1
Atom  13H    basis set group =>   2
Atom  14H    basis set group =>   2
Atom  15O    basis set group =>   1
Atom  16H    basis set group =>   2
Atom  17H    basis set group =>   2
Atom  18O    basis set group =>   1
Atom  19H    basis set group =>   2
Atom  20H    basis set group =>   2


           ************************************************************
           *        Program running with 6 parallel MPI-processes     *
           *              working on a common directory               *
           ************************************************************
------------------------------------------------------------------------------
                           ORCA GTO INTEGRAL CALCULATION
------------------------------------------------------------------------------

                         BASIS SET STATISTICS AND STARTUP INFO

 # of primitive gaussian shells          ...  224
 # of primitive gaussian functions       ...  434
 # of contracted shells                  ...  133
 # of contracted basis functions         ...  301
 Highest angular momentum                ...    3
 Maximum contraction depth               ...    6
 Integral package used                   ... LIBINT
 Integral threshhold            Thresh   ...  2.500e-11
 Primitive cut-off              TCut     ...  2.500e-12


------------------------------ INTEGRAL EVALUATION ----------------------------


 * One electron integrals 
 Pre-screening matrix                    ... done
 Shell pair data                         ... done (   0.002 sec)



           ************************************************************
           *        Program running with 6 parallel MPI-processes     *
           *              working on a common directory               *
           ************************************************************
-------------------------------------------------------------------------------
                                 ORCA SCF
-------------------------------------------------------------------------------

------------
SCF SETTINGS
------------
Hamiltonian:
 Ab initio Hamiltonian  Method          .... Hartree-Fock(GTOs)


General Settings:
 Integral files         IntName         .... 12h2o.su.etal.mol0,1,3,4,5,7,8-orca.engrad-mp2.def2tzvp.frozencore
 Hartree-Fock type      HFTyp           .... RHF
 Total Charge           Charge          ....    0
 Multiplicity           Mult            ....    1
 Number of Electrons    NEL             ....   70
 Basis Dimension        Dim             ....  301
 Nuclear Repulsion      ENuc            ....    344.0066871553 Eh

Convergence Acceleration:
 DIIS                   CNVDIIS         .... on
   Start iteration      DIISMaxIt       ....    12
   Startup error        DIISStart       ....  0.200000
   # of expansion vecs  DIISMaxEq       ....     5
   Bias factor          DIISBfac        ....   1.050
   Max. coefficient     DIISMaxC        ....  10.000
 Newton-Raphson         CNVNR           .... off
 SOSCF                  CNVSOSCF        .... on
   Start iteration      SOSCFMaxIt      ....   150
   Startup grad/error   SOSCFStart      ....  0.003300
 Level Shifting         CNVShift        .... on
   Level shift para.    LevelShift      ....    0.2500
   Turn off err/grad.   ShiftErr        ....    0.0010
 Zerner damping         CNVZerner       .... off
 Static damping         CNVDamp         .... on
   Fraction old density DampFac         ....    0.7000
   Max. Damping (<1)    DampMax         ....    0.9800
   Min. Damping (>=0)   DampMin         ....    0.0000
   Turn off err/grad.   DampErr         ....    0.1000
 Fernandez-Rico         CNVRico         .... off

SCF Procedure:
 Maximum # iterations   MaxIter         ....   125
 SCF integral mode      SCFMode         .... Direct
   Integral package                     .... LIBINT
 Reset frequency        DirectResetFreq ....    20
 Integral Threshold     Thresh          ....  2.500e-11 Eh
 Primitive CutOff       TCut            ....  2.500e-12 Eh

Convergence Tolerance:
 Convergence Check Mode ConvCheckMode   .... Total+1el-Energy
 Convergence forced     ConvForced      .... 1
 Energy Change          TolE            ....  1.000e-08 Eh
 1-El. energy change                    ....  1.000e-05 Eh
 Orbital Gradient       TolG            ....  1.000e-05
 Orbital Rotation angle TolX            ....  1.000e-05
 DIIS Error             TolErr          ....  5.000e-07


Diagonalization of the overlap matrix:
Smallest eigenvalue                        ... 3.427e-03
Time for diagonalization                   ...    0.014 sec
Threshold for overlap eigenvalues          ... 1.000e-08
Number of eigenvalues below threshold      ... 0
Time for construction of square roots      ...    0.007 sec
Total time needed                          ...    0.021 sec

-------------------
DFT GRID GENERATION
-------------------

General Integration Accuracy     IntAcc      ...  4.340
Radial Grid Type                 RadialGrid  ... Gauss-Chebyshev
Angular Grid (max. acc.)         AngularGrid ... Lebedev-110
Angular grid pruning method      GridPruning ... 3 (G Style)
Weight generation scheme         WeightScheme... Becke
Basis function cutoff            BFCut       ...    1.0000e-11
Integration weight cutoff        WCut        ...    1.0000e-14
Grids for H and He will be reduced by one unit

# of grid points (after initial pruning)     ...  23128 (   0.0 sec)
# of grid points (after weights+screening)   ...  21733 (   0.0 sec)
nearest neighbour list constructed           ...    0.0 sec
Grid point re-assignment to atoms done       ...    0.0 sec
Grid point division into batches done        ...    0.0 sec
Reduced shell lists constructed in    0.0 sec

Total number of grid points                  ...    21733
Total number of batches                      ...      349
Average number of points per batch           ...       62
Average number of grid points per atom       ...     1035
Average number of shells per batch           ...    55.02 (41.37%)
Average number of basis functions per batch  ...   105.78 (35.14%)
Average number of large shells per batch     ...    36.27 (65.92%)
Average number of large basis fcns per batch ...    70.03 (66.20%)
Maximum spatial batch extension              ...  14.53, 20.63, 16.21 au
Average spatial batch extension              ...   0.61,  0.73,  0.61 au

Time for grid setup =    0.077 sec

------------------------------
INITIAL GUESS: MODEL POTENTIAL
------------------------------
Loading Hartree-Fock densities                     ... done
Calculating cut-offs                               ... done
Setting up the integral package                    ... done
Initializing the effective Hamiltonian             ... done
Starting the Coulomb interaction                   ... done (   0.0 sec)
Reading the grid                                   ... done
Mapping shells                                     ... done
Starting the XC term evaluation                    ... done (   0.0 sec)
Transforming the Hamiltonian                       ... done (   0.0 sec)
Diagonalizing the Hamiltonian                      ... done (   0.0 sec)
Back transforming the eigenvectors                 ... done (   0.0 sec)
Now organizing SCF variables                       ... done
                      ------------------
                      INITIAL GUESS DONE (   0.2 sec)
                      ------------------
--------------
SCF ITERATIONS
--------------
ITER       Energy         Delta-E        Max-DP      RMS-DP      [F,P]     Damp
               ***  Starting incremental Fock matrix formation  ***
  0   -531.7861931285   0.000000000000 0.04363965  0.00090686  0.3505115 0.7000
  1   -532.0409516118  -0.254758483280 0.02895253  0.00062458  0.2166845 0.7000
                               ***Turning on DIIS***
  2   -532.1746039747  -0.133652362874 0.01663868  0.00034416  0.1637623 0.7000
  3   -533.3505663948  -1.175962420170 0.00746937  0.00015266  0.1218172 0.7000
  4   -533.1084391279   0.242127266894 0.01671609  0.00035159  0.0861698 0.0000
  5   -532.4814481293   0.626990998608 0.00231654  0.00005760  0.0054189 0.0000
                      *** Initiating the SOSCF procedure ***
                           *** Shutting down DIIS ***
                      *** Re-Reading the Fockian *** 
                      *** Removing any level shift *** 
ITER      Energy       Delta-E        Grad      Rot      Max-DP    RMS-DP
  6   -532.44226508   0.0391830460  0.000901  0.000901  0.001524  0.000035
               *** Restarting incremental Fock matrix formation ***
  7   -532.43113008   0.0111350054  0.000315  0.000410  0.000722  0.000016
  8   -532.43114073  -0.0000106553  0.000131  0.000367  0.000618  0.000013
  9   -532.43114336  -0.0000026242  0.000046  0.000054  0.000131  0.000003
 10   -532.43114357  -0.0000002133  0.000007  0.000005  0.000018  0.000000
 11   -532.43114357  -0.0000000041  0.000003  0.000003  0.000007  0.000000
                  ***Gradient check signals convergence***
              ***Rediagonalizing the Fockian in SOSCF/NRSCF***

               *****************************************************
               *                     SUCCESS                       *
               *           SCF CONVERGED AFTER  12 CYCLES          *
               *****************************************************


----------------
TOTAL SCF ENERGY
----------------

Total Energy       :         -532.43114358 Eh          -14488.18798 eV

Components:
Nuclear Repulsion  :          344.00668716 Eh            9360.89786 eV
Electronic Energy  :         -876.43783073 Eh          -23849.08584 eV
One Electron Energy:        -1420.80615965 Eh          -38662.10115 eV
Two Electron Energy:          544.36832892 Eh           14813.01531 eV

Virial components:
Potential Energy   :        -1064.04812906 Eh          -28954.22160 eV
Kinetic Energy     :          531.61698548 Eh           14466.03361 eV
Virial Ratio       :            2.00153147


---------------
SCF CONVERGENCE
---------------

  Last Energy change         ...   -4.1803e-10  Tolerance :   1.0000e-08
  Last MAX-Density change    ...    1.8743e-06  Tolerance :   1.0000e-07
  Last RMS-Density change    ...    4.0206e-08  Tolerance :   5.0000e-09
  Last Orbital Gradient      ...    1.3211e-06  Tolerance :   1.0000e-05
  Last Orbital Rotation      ...    7.9799e-07  Tolerance :   1.0000e-05

             **** THE GBW FILE WAS UPDATED (12h2o.su.etal.mol0,1,3,4,5,7,8-orca.engrad-mp2.def2tzvp.frozencore.gbw) ****
             **** DENSITY FILE WAS UPDATED (12h2o.su.etal.mol0,1,3,4,5,7,8-orca.engrad-mp2.def2tzvp.frozencore.scfp) ****
             **** ENERGY FILE WAS UPDATED (12h2o.su.etal.mol0,1,3,4,5,7,8-orca.engrad-mp2.def2tzvp.frozencore.en.tmp) ****
             **** THE GBW FILE WAS UPDATED (12h2o.su.etal.mol0,1,3,4,5,7,8-orca.engrad-mp2.def2tzvp.frozencore.gbw) ****
             **** DENSITY FILE WAS UPDATED (12h2o.su.etal.mol0,1,3,4,5,7,8-orca.engrad-mp2.def2tzvp.frozencore.scfp) ****
----------------
ORBITAL ENERGIES
----------------

  NO   OCC          E(Eh)            E(eV) 
   0   2.0000     -20.602356      -560.6186 
   1   2.0000     -20.594441      -560.4032 
   2   2.0000     -20.568572      -559.6993 
   3   2.0000     -20.566648      -559.6469 
   4   2.0000     -20.556204      -559.3628 
   5   2.0000     -20.537094      -558.8427 
   6   2.0000     -20.528665      -558.6134 
   7   2.0000      -1.383878       -37.6572 
   8   2.0000      -1.372680       -37.3525 
   9   2.0000      -1.347500       -36.6673 
  10   2.0000      -1.347066       -36.6555 
  11   2.0000      -1.341983       -36.5172 
  12   2.0000      -1.318490       -35.8779 
  13   2.0000      -1.308683       -35.6111 
  14   2.0000      -0.740795       -20.1581 
  15   2.0000      -0.738959       -20.1081 
  16   2.0000      -0.721302       -19.6276 
  17   2.0000      -0.710276       -19.3276 
  18   2.0000      -0.709945       -19.3186 
  19   2.0000      -0.688182       -18.7264 
  20   2.0000      -0.682215       -18.5640 
  21   2.0000      -0.632207       -17.2032 
  22   2.0000      -0.612554       -16.6685 
  23   2.0000      -0.591901       -16.1064 
  24   2.0000      -0.585553       -15.9337 
  25   2.0000      -0.579596       -15.7716 
  26   2.0000      -0.563852       -15.3432 
  27   2.0000      -0.553859       -15.0713 
  28   2.0000      -0.538328       -14.6487 
  29   2.0000      -0.528276       -14.3751 
  30   2.0000      -0.512921       -13.9573 
  31   2.0000      -0.510214       -13.8836 
  32   2.0000      -0.499709       -13.5978 
  33   2.0000      -0.483179       -13.1480 
  34   2.0000      -0.476620       -12.9695 
  35   0.0000       0.083600         2.2749 
  36   0.0000       0.110650         3.0109 
  37   0.0000       0.132931         3.6172 
  38   0.0000       0.140440         3.8216 
  39   0.0000       0.160802         4.3756 
  40   0.0000       0.187966         5.1148 
  41   0.0000       0.204608         5.5677 
  42   0.0000       0.214974         5.8497 
  43   0.0000       0.217757         5.9255 
  44   0.0000       0.247010         6.7215 
  45   0.0000       0.260894         7.0993 
  46   0.0000       0.297729         8.1016 
  47   0.0000       0.329700         8.9716 
  48   0.0000       0.338438         9.2094 
  49   0.0000       0.436799        11.8859 
  50   0.0000       0.466172        12.6852 
  51   0.0000       0.500744        13.6259 
  52   0.0000       0.508582        13.8392 
  53   0.0000       0.516454        14.0534 
  54   0.0000       0.524069        14.2606 
  55   0.0000       0.531162        14.4537 
  56   0.0000       0.539763        14.6877 
  57   0.0000       0.562420        15.3042 
  58   0.0000       0.566325        15.4105 
  59   0.0000       0.568588        15.4721 
  60   0.0000       0.576752        15.6942 
  61   0.0000       0.582127        15.8405 
  62   0.0000       0.588136        16.0040 
  63   0.0000       0.604841        16.4586 
  64   0.0000       0.616898        16.7866 
  65   0.0000       0.619309        16.8523 
  66   0.0000       0.628550        17.1037 
  67   0.0000       0.640746        17.4356 
  68   0.0000       0.652815        17.7640 
  69   0.0000       0.655784        17.8448 
  70   0.0000       0.682141        18.5620 
  71   0.0000       0.706154        19.2154 
  72   0.0000       0.724715        19.7205 
  73   0.0000       0.738667        20.1002 
  74   0.0000       0.746193        20.3049 
  75   0.0000       0.756270        20.5792 
  76   0.0000       0.766987        20.8708 
  77   0.0000       0.785156        21.3652 
  78   0.0000       0.793825        21.6011 
  79   0.0000       0.802390        21.8341 
  80   0.0000       0.810250        22.0480 
  81   0.0000       0.821322        22.3493 
  82   0.0000       0.823148        22.3990 
  83   0.0000       0.849671        23.1207 
  84   0.0000       0.854827        23.2610 
  85   0.0000       0.876988        23.8641 
  86   0.0000       0.919999        25.0344 
  87   0.0000       0.981029        26.6951 
  88   0.0000       1.010354        27.4931 
  89   0.0000       1.067573        29.0502 
  90   0.0000       1.119486        30.4628 
  91   0.0000       1.356474        36.9115 
  92   0.0000       1.372374        37.3442 
  93   0.0000       1.404609        38.2214 
  94   0.0000       1.405743        38.2522 
  95   0.0000       1.414505        38.4906 
  96   0.0000       1.422351        38.7041 
  97   0.0000       1.427126        38.8341 
  98   0.0000       1.432441        38.9787 
  99   0.0000       1.435478        39.0613 
 100   0.0000       1.452909        39.5357 
 101   0.0000       1.467126        39.9225 
 102   0.0000       1.469940        39.9991 
 103   0.0000       1.504597        40.9422 
 104   0.0000       1.510117        41.0924 
 105   0.0000       1.544714        42.0338 
 106   0.0000       1.550317        42.1863 
 107   0.0000       1.552583        42.2479 
 108   0.0000       1.568707        42.6867 
 109   0.0000       1.591997        43.3204 
 110   0.0000       1.614202        43.9247 
 111   0.0000       1.637779        44.5662 
 112   0.0000       1.788173        48.6587 
 113   0.0000       1.794121        48.8205 
 114   0.0000       1.812713        49.3264 
 115   0.0000       1.833424        49.8900 
 116   0.0000       1.845629        50.2221 
 117   0.0000       1.860844        50.6361 
 118   0.0000       1.869267        50.8653 
 119   0.0000       1.887609        51.3645 
 120   0.0000       1.900498        51.7152 
 121   0.0000       1.928380        52.4739 
 122   0.0000       1.968427        53.5636 
 123   0.0000       1.972374        53.6710 
 124   0.0000       1.995844        54.3097 
 125   0.0000       2.000047        54.4240 
 126   0.0000       2.012029        54.7501 
 127   0.0000       2.017072        54.8873 
 128   0.0000       2.023334        55.0577 
 129   0.0000       2.078256        56.5522 
 130   0.0000       2.112840        57.4933 
 131   0.0000       2.146431        58.4074 
 132   0.0000       2.206242        60.0349 
 133   0.0000       2.257030        61.4169 
 134   0.0000       2.262432        61.5639 
 135   0.0000       2.301434        62.6252 
 136   0.0000       2.307036        62.7776 
 137   0.0000       2.312829        62.9353 
 138   0.0000       2.317077        63.0509 
 139   0.0000       2.325882        63.2905 
 140   0.0000       2.343630        63.7734 
 141   0.0000       2.350382        63.9571 
 142   0.0000       2.351839        63.9968 
 143   0.0000       2.363359        64.3103 
 144   0.0000       2.372087        64.5478 
 145   0.0000       2.384991        64.8989 
 146   0.0000       2.386318        64.9350 
 147   0.0000       2.392847        65.1127 
 148   0.0000       2.401307        65.3429 
 149   0.0000       2.428270        66.0766 
 150   0.0000       2.452123        66.7257 
 151   0.0000       2.481807        67.5334 
 152   0.0000       2.531913        68.8969 
 153   0.0000       2.565996        69.8243 
 154   0.0000       2.589742        70.4705 
 155   0.0000       2.593777        70.5803 
 156   0.0000       2.604241        70.8650 
 157   0.0000       2.622932        71.3736 
 158   0.0000       2.637165        71.7609 
 159   0.0000       2.649312        72.0914 
 160   0.0000       2.650897        72.1346 
 161   0.0000       2.669382        72.6376 
 162   0.0000       2.678633        72.8893 
 163   0.0000       2.706543        73.6488 
 164   0.0000       2.714174        73.8564 
 165   0.0000       2.724305        74.1321 
 166   0.0000       2.767287        75.3017 
 167   0.0000       2.792349        75.9837 
 168   0.0000       2.878687        78.3330 
 169   0.0000       2.913154        79.2710 
 170   0.0000       2.917945        79.4013 
 171   0.0000       2.933497        79.8245 
 172   0.0000       2.940122        80.0048 
 173   0.0000       2.953143        80.3591 
 174   0.0000       2.964936        80.6800 
 175   0.0000       2.972243        80.8788 
 176   0.0000       2.988104        81.3104 
 177   0.0000       2.994195        81.4762 
 178   0.0000       3.007146        81.8286 
 179   0.0000       3.020976        82.2049 
 180   0.0000       3.034741        82.5795 
 181   0.0000       3.043175        82.8090 
 182   0.0000       3.065987        83.4298 
 183   0.0000       3.075032        83.6759 
 184   0.0000       3.098219        84.3068 
 185   0.0000       3.142878        85.5220 
 186   0.0000       3.159681        85.9793 
 187   0.0000       3.173755        86.3623 
 188   0.0000       3.180363        86.5421 
 189   0.0000       3.215833        87.5073 
 190   0.0000       3.241950        88.2179 
 191   0.0000       3.251951        88.4901 
 192   0.0000       3.317972        90.2866 
 193   0.0000       3.354923        91.2921 
 194   0.0000       3.407759        92.7298 
 195   0.0000       3.499136        95.2163 
 196   0.0000       3.971398       108.0672 
 197   0.0000       3.985195       108.4427 
 198   0.0000       4.017427       109.3197 
 199   0.0000       4.023984       109.4982 
 200   0.0000       4.070673       110.7686 
 201   0.0000       4.119118       112.0869 
 202   0.0000       4.131330       112.4192 
 203   0.0000       4.264954       116.0553 
 204   0.0000       4.284183       116.5785 
 205   0.0000       4.304654       117.1356 
 206   0.0000       4.310360       117.2909 
 207   0.0000       4.339615       118.0869 
 208   0.0000       4.353612       118.4678 
 209   0.0000       4.381736       119.2331 
 210   0.0000       5.504819       149.7938 
 211   0.0000       5.522174       150.2660 
 212   0.0000       5.541817       150.8005 
 213   0.0000       5.543592       150.8488 
 214   0.0000       5.546533       150.9288 
 215   0.0000       5.570483       151.5805 
 216   0.0000       5.576605       151.7471 
 217   0.0000       5.608467       152.6141 
 218   0.0000       5.631557       153.2425 
 219   0.0000       5.637559       153.4058 
 220   0.0000       5.646441       153.6475 
 221   0.0000       5.676058       154.4534 
 222   0.0000       5.676577       154.4675 
 223   0.0000       5.686009       154.7242 
 224   0.0000       5.779711       157.2739 
 225   0.0000       5.783886       157.3875 
 226   0.0000       5.805532       157.9766 
 227   0.0000       5.809819       158.0932 
 228   0.0000       5.815340       158.2435 
 229   0.0000       5.818198       158.3212 
 230   0.0000       5.831713       158.6890 
 231   0.0000       5.844002       159.0234 
 232   0.0000       5.845823       159.0729 
 233   0.0000       5.848029       159.1330 
 234   0.0000       5.849397       159.1702 
 235   0.0000       5.853381       159.2786 
 236   0.0000       5.865072       159.5967 
 237   0.0000       5.885189       160.1441 
 238   0.0000       5.888629       160.2377 
 239   0.0000       5.892096       160.3321 
 240   0.0000       5.895900       160.4356 
 241   0.0000       5.904113       160.6591 
 242   0.0000       5.915004       160.9554 
 243   0.0000       5.928523       161.3233 
 244   0.0000       5.930441       161.3755 
 245   0.0000       6.401460       174.1926 
 246   0.0000       6.428301       174.9230 
 247   0.0000       6.430956       174.9952 
 248   0.0000       6.471162       176.0893 
 249   0.0000       6.483554       176.4265 
 250   0.0000       6.501619       176.9180 
 251   0.0000       6.520102       177.4210 
 252   0.0000       6.650560       180.9709 
 253   0.0000       6.678985       181.7444 
 254   0.0000       6.689009       182.0172 
 255   0.0000       6.695610       182.1968 
 256   0.0000       6.703295       182.4059 
 257   0.0000       6.719823       182.8557 
 258   0.0000       6.759995       183.9488 
 259   0.0000       6.817826       185.5225 
 260   0.0000       6.823313       185.6718 
 261   0.0000       6.838379       186.0818 
 262   0.0000       6.845404       186.2729 
 263   0.0000       6.857703       186.6076 
 264   0.0000       6.860645       186.6877 
 265   0.0000       6.872224       187.0027 
 266   0.0000       6.881667       187.2597 
 267   0.0000       6.882847       187.2918 
 268   0.0000       6.886031       187.3784 
 269   0.0000       6.886754       187.3981 
 270   0.0000       6.904159       187.8717 
 271   0.0000       6.912240       188.0916 
 272   0.0000       6.919260       188.2826 
 273   0.0000       6.921976       188.3565 
 274   0.0000       6.941136       188.8779 
 275   0.0000       6.957066       189.3114 
 276   0.0000       6.979565       189.9236 
 277   0.0000       6.988671       190.1714 
 278   0.0000       6.996218       190.3768 
 279   0.0000       7.087293       192.8550 
 280   0.0000       7.345773       199.8886 
 281   0.0000       7.358473       200.2342 
 282   0.0000       7.367369       200.4763 
 283   0.0000       7.372155       200.6065 
 284   0.0000       7.397630       201.2998 
 285   0.0000       7.418869       201.8777 
 286   0.0000       7.468520       203.2288 
 287   0.0000       7.484883       203.6740 
 288   0.0000       7.492851       203.8908 
 289   0.0000       7.504958       204.2203 
 290   0.0000       7.515868       204.5172 
 291   0.0000       7.567519       205.9227 
 292   0.0000       7.603871       206.9118 
 293   0.0000       7.624162       207.4640 
 294   0.0000      44.818725      1219.5795 
 295   0.0000      44.851607      1220.4743 
 296   0.0000      44.858416      1220.6596 
 297   0.0000      44.934044      1222.7175 
 298   0.0000      44.951998      1223.2061 
 299   0.0000      45.043751      1225.7028 
 300   0.0000      45.102676      1227.3062 

                    ********************************
                    * MULLIKEN POPULATION ANALYSIS *
                    ********************************

-----------------------
MULLIKEN ATOMIC CHARGES
-----------------------
   0 O :   -0.719117
   1 H :    0.348601
   2 H :    0.371059
   3 O :   -0.726374
   4 H :    0.361411
   5 H :    0.376806
   6 O :   -0.723475
   7 H :    0.391686
   8 H :    0.327696
   9 O :   -0.750901
  10 H :    0.333324
  11 H :    0.392543
  12 O :   -0.719588
  13 H :    0.382718
  14 H :    0.365995
  15 O :   -0.792504
  16 H :    0.402174
  17 H :    0.378054
  18 O :   -0.703175
  19 H :    0.343585
  20 H :    0.359482
Sum of atomic charges:    0.0000000

--------------------------------
MULLIKEN REDUCED ORBITAL CHARGES
--------------------------------
  0 O s       :     3.813578  s :     3.813578
      pz      :     1.723105  p :     4.878917
      px      :     1.361068
      py      :     1.794744
      dz2     :     0.004360  d :     0.025075
      dxz     :     0.004831
      dyz     :     0.005747
      dx2y2   :     0.002531
      dxy     :     0.007606
      f0      :     0.000091  f :     0.001547
      f+1     :     0.000344
      f-1     :     0.000194
      f+2     :     0.000070
      f-2     :     0.000360
      f+3     :     0.000098
      f-3     :     0.000389
  1 H s       :     0.605576  s :     0.605576
      pz      :     0.017241  p :     0.045823
      px      :     0.013527
      py      :     0.015055
  2 H s       :     0.587073  s :     0.587073
      pz      :     0.011071  p :     0.041868
      px      :     0.017887
      py      :     0.012911
  3 O s       :     3.811280  s :     3.811280
      pz      :     1.717667  p :     4.889028
      px      :     1.367336
      py      :     1.804024
      dz2     :     0.003964  d :     0.024555
      dxz     :     0.004312
      dyz     :     0.005738
      dx2y2   :     0.002491
      dxy     :     0.008050
      f0      :     0.000083  f :     0.001512
      f+1     :     0.000329
      f-1     :     0.000186
      f+2     :     0.000071
      f-2     :     0.000349
      f+3     :     0.000100
      f-3     :     0.000396
  4 H s       :     0.593135  s :     0.593135
      pz      :     0.017060  p :     0.045454
      px      :     0.013464
      py      :     0.014931
  5 H s       :     0.581761  s :     0.581761
      pz      :     0.010554  p :     0.041433
      px      :     0.017861
      py      :     0.013018
  6 O s       :     3.811610  s :     3.811610
      pz      :     1.559624  p :     4.884882
      px      :     1.514144
      py      :     1.811114
      dz2     :     0.011646  d :     0.025499
      dxz     :     0.001209
      dyz     :     0.002962
      dx2y2   :     0.002147
      dxy     :     0.007534
      f0      :     0.000246  f :     0.001484
      f+1     :     0.000374
      f-1     :     0.000165
      f+2     :     0.000055
      f-2     :     0.000055
      f+3     :     0.000069
      f-3     :     0.000518
  7 H s       :     0.559492  s :     0.559492
      pz      :     0.024618  p :     0.048823
      px      :     0.011436
      py      :     0.012768
  8 H s       :     0.627271  s :     0.627271
      pz      :     0.011109  p :     0.045034
      px      :     0.017930
      py      :     0.015994
  9 O s       :     3.812362  s :     3.812362
      pz      :     1.523498  p :     4.912343
      px      :     1.875621
      py      :     1.513224
      dz2     :     0.011460  d :     0.024756
      dxz     :     0.002490
      dyz     :     0.002945
      dx2y2   :     0.002982
      dxy     :     0.004879
      f0      :     0.000186  f :     0.001439
      f+1     :     0.000124
      f-1     :     0.000452
      f+2     :     0.000076
      f-2     :     0.000041
      f+3     :     0.000445
      f-3     :     0.000115
 10 H s       :     0.621731  s :     0.621731
      pz      :     0.018267  p :     0.044945
      px      :     0.014421
      py      :     0.012257
 11 H s       :     0.553608  s :     0.553608
      pz      :     0.009407  p :     0.053849
      px      :     0.015445
      py      :     0.028997
 12 O s       :     3.807012  s :     3.807012
      pz      :     1.553918  p :     4.885172
      px      :     1.845665
      py      :     1.485589
      dz2     :     0.012142  d :     0.025980
      dxz     :     0.002310
      dyz     :     0.003012
      dx2y2   :     0.003607
      dxy     :     0.004908
      f0      :     0.000168  f :     0.001424
      f+1     :     0.000118
      f-1     :     0.000470
      f+2     :     0.000068
      f-2     :     0.000041
      f+3     :     0.000452
      f-3     :     0.000107
 13 H s       :     0.575192  s :     0.575192
      pz      :     0.009544  p :     0.042090
      px      :     0.013676
      py      :     0.018870
 14 H s       :     0.590134  s :     0.590134
      pz      :     0.019063  p :     0.043871
      px      :     0.013354
      py      :     0.011453
 15 O s       :     3.799058  s :     3.799058
      pz      :     1.607546  p :     4.969873
      px      :     1.512019
      py      :     1.850308
      dz2     :     0.010051  d :     0.022252
      dxz     :     0.002428
      dyz     :     0.001952
      dx2y2   :     0.003131
      dxy     :     0.004690
      f0      :     0.000169  f :     0.001320
      f+1     :     0.000430
      f-1     :     0.000107
      f+2     :     0.000068
      f-2     :     0.000036
      f+3     :     0.000098
      f-3     :     0.000413
 16 H s       :     0.549441  s :     0.549441
      pz      :     0.024764  p :     0.048385
      px      :     0.011180
      py      :     0.012441
 17 H s       :     0.569137  s :     0.569137
      pz      :     0.009113  p :     0.052808
      px      :     0.028870
      py      :     0.014825
 18 O s       :     3.815130  s :     3.815130
      pz      :     1.500158  p :     4.860246
      px      :     1.542987
      py      :     1.817101
      dz2     :     0.012311  d :     0.026271
      dxz     :     0.001276
      dyz     :     0.003033
      dx2y2   :     0.002106
      dxy     :     0.007545
      f0      :     0.000268  f :     0.001528
      f+1     :     0.000385
      f-1     :     0.000173
      f+2     :     0.000056
      f-2     :     0.000057
      f+3     :     0.000068
      f-3     :     0.000522
 19 H s       :     0.611436  s :     0.611436
      pz      :     0.018896  p :     0.044980
      px      :     0.012301
      py      :     0.013782
 20 H s       :     0.596328  s :     0.596328
      pz      :     0.010394  p :     0.044190
      px      :     0.018342
      py      :     0.015455


                     *******************************
                     * LOEWDIN POPULATION ANALYSIS *
                     *******************************

----------------------
LOEWDIN ATOMIC CHARGES
----------------------
   0 O :   -0.344715
   1 H :    0.158154
   2 H :    0.187006
   3 O :   -0.316499
   4 H :    0.163353
   5 H :    0.189863
   6 O :   -0.342150
   7 H :    0.157337
   8 H :    0.154936
   9 O :   -0.364900
  10 H :    0.155061
  11 H :    0.151464
  12 O :   -0.297170
  13 H :    0.183639
  14 H :    0.171777
  15 O :   -0.315862
  16 H :    0.159640
  17 H :    0.149088
  18 O :   -0.331460
  19 H :    0.161674
  20 H :    0.169762

-------------------------------
LOEWDIN REDUCED ORBITAL CHARGES
-------------------------------
  0 O s       :     3.474118  s :     3.474118
      pz      :     1.707153  p :     4.836565
      px      :     1.355808
      py      :     1.773604
      dz2     :     0.004885  d :     0.031918
      dxz     :     0.007268
      dyz     :     0.005836
      dx2y2   :     0.003886
      dxy     :     0.010042
      f0      :     0.000077  f :     0.002113
      f+1     :     0.000457
      f-1     :     0.000277
      f+2     :     0.000035
      f-2     :     0.000626
      f+3     :     0.000093
      f-3     :     0.000547
  1 H s       :     0.679019  s :     0.679019
      pz      :     0.066068  p :     0.162826
      px      :     0.044009
      py      :     0.052750
  2 H s       :     0.664909  s :     0.664909
      pz      :     0.033193  p :     0.148085
      px      :     0.071362
      py      :     0.043529
  3 O s       :     3.467406  s :     3.467406
      pz      :     1.681387  p :     4.815221
      px      :     1.358644
      py      :     1.775190
      dz2     :     0.005231  d :     0.031785
      dxz     :     0.006776
      dyz     :     0.005744
      dx2y2   :     0.003765
      dxy     :     0.010269
      f0      :     0.000087  f :     0.002086
      f+1     :     0.000443
      f-1     :     0.000272
      f+2     :     0.000035
      f-2     :     0.000608
      f+3     :     0.000092
      f-3     :     0.000549
  4 H s       :     0.673246  s :     0.673246
      pz      :     0.066332  p :     0.163400
      px      :     0.044251
      py      :     0.052817
  5 H s       :     0.661496  s :     0.661496
      pz      :     0.033228  p :     0.148641
      px      :     0.071853
      py      :     0.043560
  6 O s       :     3.467171  s :     3.467171
      pz      :     1.539141  p :     4.840784
      px      :     1.517694
      py      :     1.783949
      dz2     :     0.015284  d :     0.032065
      dxz     :     0.001808
      dyz     :     0.002281
      dx2y2   :     0.002455
      dxy     :     0.010238
      f0      :     0.000430  f :     0.002130
      f+1     :     0.000563
      f-1     :     0.000317
      f+2     :     0.000024
      f-2     :     0.000045
      f+3     :     0.000003
      f-3     :     0.000748
  7 H s       :     0.671262  s :     0.671262
      pz      :     0.094006  p :     0.171401
      px      :     0.035698
      py      :     0.041697
  8 H s       :     0.687734  s :     0.687734
      pz      :     0.031579  p :     0.157330
      px      :     0.070890
      py      :     0.054861
  9 O s       :     3.470740  s :     3.470740
      pz      :     1.536261  p :     4.861558
      px      :     1.838100
      py      :     1.487198
      dz2     :     0.014935  d :     0.030557
      dxz     :     0.001666
      dyz     :     0.004415
      dx2y2   :     0.003763
      dxy     :     0.005779
      f0      :     0.000398  f :     0.002044
      f+1     :     0.000192
      f-1     :     0.000754
      f+2     :     0.000048
      f-2     :     0.000046
      f+3     :     0.000541
      f-3     :     0.000065
 10 H s       :     0.686193  s :     0.686193
      pz      :     0.078250  p :     0.158747
      px      :     0.043649
      py      :     0.036847
 11 H s       :     0.662831  s :     0.662831
      pz      :     0.028932  p :     0.185705
      px      :     0.052649
      py      :     0.104124
 12 O s       :     3.466895  s :     3.466895
      pz      :     1.548293  p :     4.795523
      px      :     1.785186
      py      :     1.462044
      dz2     :     0.015543  d :     0.032669
      dxz     :     0.001427
      dyz     :     0.004205
      dx2y2   :     0.005259
      dxy     :     0.006234
      f0      :     0.000365  f :     0.002083
      f+1     :     0.000210
      f-1     :     0.000749
      f+2     :     0.000042
      f-2     :     0.000045
      f+3     :     0.000601
      f-3     :     0.000072
 13 H s       :     0.662123  s :     0.662123
      pz      :     0.028922  p :     0.154238
      px      :     0.049142
      py      :     0.076175
 14 H s       :     0.669393  s :     0.669393
      pz      :     0.080356  p :     0.158829
      px      :     0.042876
      py      :     0.035597
 15 O s       :     3.450048  s :     3.450048
      pz      :     1.560225  p :     4.835319
      px      :     1.485667
      py      :     1.789427
      dz2     :     0.013434  d :     0.028590
      dxz     :     0.003507
      dyz     :     0.001202
      dx2y2   :     0.004659
      dxy     :     0.005788
      f0      :     0.000337  f :     0.001905
      f+1     :     0.000688
      f-1     :     0.000190
      f+2     :     0.000035
      f-2     :     0.000043
      f+3     :     0.000066
      f-3     :     0.000545
 16 H s       :     0.666482  s :     0.666482
      pz      :     0.094012  p :     0.173877
      px      :     0.037212
      py      :     0.042653
 17 H s       :     0.664051  s :     0.664051
      pz      :     0.030609  p :     0.186861
      px      :     0.103568
      py      :     0.052683
 18 O s       :     3.472148  s :     3.472148
      pz      :     1.507316  p :     4.823777
      px      :     1.529205
      py      :     1.787255
      dz2     :     0.016795  d :     0.033331
      dxz     :     0.002155
      dyz     :     0.002472
      dx2y2   :     0.002267
      dxy     :     0.009641
      f0      :     0.000494  f :     0.002205
      f+1     :     0.000595
      f-1     :     0.000326
      f+2     :     0.000026
      f-2     :     0.000048
      f+3     :     0.000003
      f-3     :     0.000713
 19 H s       :     0.680446  s :     0.680446
      pz      :     0.080168  p :     0.157880
      px      :     0.035458
      py      :     0.042254
 20 H s       :     0.673289  s :     0.673289
      pz      :     0.029567  p :     0.156949
      px      :     0.072589
      py      :     0.054792


                      *****************************
                      * MAYER POPULATION ANALYSIS *
                      *****************************

  NA   - Mulliken gross atomic population
  ZA   - Total nuclear charge
  QA   - Mulliken gross atomic charge
  VA   - Mayer's total valence
  BVA  - Mayer's bonded valence
  FA   - Mayer's free valence

  ATOM       NA         ZA         QA         VA         BVA        FA
  0 O      8.7191     8.0000    -0.7191     1.7602     1.7602     0.0000
  1 H      0.6514     1.0000     0.3486     0.8936     0.8936     0.0000
  2 H      0.6289     1.0000     0.3711     0.8768     0.8768    -0.0000
  3 O      8.7264     8.0000    -0.7264     1.7627     1.7627    -0.0000
  4 H      0.6386     1.0000     0.3614     0.8848     0.8848     0.0000
  5 H      0.6232     1.0000     0.3768     0.8724     0.8724     0.0000
  6 O      8.7235     8.0000    -0.7235     1.7568     1.7568     0.0000
  7 H      0.6083     1.0000     0.3917     0.8734     0.8734     0.0000
  8 H      0.6723     1.0000     0.3277     0.9105     0.9105    -0.0000
  9 O      8.7509     8.0000    -0.7509     1.7168     1.7168    -0.0000
 10 H      0.6667     1.0000     0.3333     0.9057     0.9057     0.0000
 11 H      0.6075     1.0000     0.3925     0.8825     0.8825    -0.0000
 12 O      8.7196     8.0000    -0.7196     1.7741     1.7741    -0.0000
 13 H      0.6173     1.0000     0.3827     0.8736     0.8736    -0.0000
 14 H      0.6340     1.0000     0.3660     0.8816     0.8816     0.0000
 15 O      8.7925     8.0000    -0.7925     1.6743     1.6743    -0.0000
 16 H      0.5978     1.0000     0.4022     0.8691     0.8691     0.0000
 17 H      0.6219     1.0000     0.3781     0.8991     0.8991     0.0000
 18 O      8.7032     8.0000    -0.7032     1.7787     1.7787     0.0000
 19 H      0.6564     1.0000     0.3436     0.8988     0.8988     0.0000
 20 H      0.6405     1.0000     0.3595     0.8903     0.8903    -0.0000

  Mayer bond orders larger than 0.100000
B(  0-O ,  1-H ) :   0.8877 B(  0-O ,  2-H ) :   0.8671 B(  3-O ,  4-H ) :   0.8771 
B(  3-O ,  5-H ) :   0.8615 B(  6-O ,  7-H ) :   0.8450 B(  6-O ,  8-H ) :   0.9001 
B(  9-O , 10-H ) :   0.8978 B(  9-O , 11-H ) :   0.8221 B( 12-O , 13-H ) :   0.8559 
B( 12-O , 14-H ) :   0.8731 B( 15-O , 16-H ) :   0.8315 B( 15-O , 17-H ) :   0.8163 
B( 18-O , 19-H ) :   0.8896 B( 18-O , 20-H ) :   0.8772 

-------
TIMINGS
-------

Total SCF time: 0 days 0 hours 0 min 16 sec 

Total time                  ....      16.918 sec
Sum of individual times     ....      16.651 sec  ( 98.4%)

Fock matrix formation       ....      16.170 sec  ( 95.6%)
Diagonalization             ....       0.113 sec  (  0.7%)
Density matrix formation    ....       0.012 sec  (  0.1%)
Population analysis         ....       0.011 sec  (  0.1%)
Initial guess               ....       0.166 sec  (  1.0%)
Orbital Transformation      ....       0.000 sec  (  0.0%)
Orbital Orthonormalization  ....       0.000 sec  (  0.0%)
DIIS solution               ....       0.041 sec  (  0.2%)
SOSCF solution              ....       0.059 sec  (  0.4%)


           ************************************************************
           *        Program running with 6 parallel MPI-processes     *
           *              working on a common directory               *
           ************************************************************

------------------------------------------------------------------------------
                                ORCA  MP2 
------------------------------------------------------------------------------

Freezing NCore=14 chemical core electrons
MP2 will be done in the AO integral direct mode
The Q1-step will be done using symmetric double matrices
Dimension of the basis                    ...  301
Memory devoted for MP2                    ... 8000 MB   
Memory needed for all in one shot         ...  523 MB
Number of MOs that can be treated together...   75      
MP2 density construction                  ... relaxed
The MP2 gradient is requested => amplitudes will be stored on disk
Total number of MOs              ...   28
Number of MOs treated per batch  ...    5 
Number of batches necessary      ...    1 
OPERATORS   0/  0 PASS   0
-----------------------------------------------
 MP2 CORRELATION ENERGY   :     -1.804214311 Eh
-----------------------------------------------


---------------------
MP2 DENSITY FORMATION
---------------------

Completing the external part of the density      ... done
Storing the unrelaxed density                    ... done

Calculating G(D)                                 ... done
Completing the Lagrangian                        ... done
Solving the Z-vector equations                   ... 

------------------------------------------------------------------------------
                           ORCA CP-SCF CALCULATION
------------------------------------------------------------------------------

Input orbitals are from        ... 12h2o.su.etal.mol0,1,3,4,5,7,8-orca.engrad-mp2.def2tzvp.frozencore.gbw
Input Perturbation             ... 12h2o.su.etal.mol0,1,3,4,5,7,8-orca.engrad-mp2.def2tzvp.frozencore.pin.tmp
Wavefunction output            ... 12h2o.su.etal.mol0,1,3,4,5,7,8-orca.engrad-mp2.def2tzvp.frozencore.pout.tmp
Perturbation mode              ... Real perturbation (singlet)
Solver                         ... POPLE
Max. number of iterations      ... 128
Convergence tolerance          ... 1.000e-08
Integral handling              ... Direct
Number of perturbations        ... 1
Number of operators            ... 1
Orbital ranges used for CP-SCF:
 Operator 0:  Orbitals   0... 34  to  35...300
Variables per vector in CP-SCF ... 9310
Number of vectors sought       ... 1
     CP-SCF ITERATION   0: 
     CP-SCF ITERATION   1:      0.000921897632
     CP-SCF ITERATION   2:      0.000023405673
     CP-SCF ITERATION   3:      0.000001678472
     CP-SCF ITERATION   4:      0.000000110097
     CP-SCF ITERATION   5:      0.000000009478
                                                 ... done
Finalizing the relaxed density                   ... done
Transforming P to the AO basis                   ... done
Storing the relaxed density                      ... done

------------------------------------
ENERGY WEIGHTED DENSITY FINALIZATION
------------------------------------

Gathering the parts of the W-matrix              ...                                                      done
Forming the Z-density                            ... done
Transforming Z to the AO basis                   ... done
Calculating G(Z)                                 ... done
Finalizing the W-matrix                          ...                                                      done
Transforming W to the AO basis and storing       ... done

                *********************************************
                * UNRELAXED MP2 DENSITY POPULATION ANALYSIS *
                *********************************************

------------------------------------------------------------------------------
                           ORCA POPULATION ANALYSIS
------------------------------------------------------------------------------
Input electron density              ... 12h2o.su.etal.mol0,1,3,4,5,7,8-orca.engrad-mp2.def2tzvp.frozencore.pmp2ur
BaseName (.gbw .S,...)              ... 12h2o.su.etal.mol0,1,3,4,5,7,8-orca.engrad-mp2.def2tzvp.frozencore

                    ********************************
                    * MULLIKEN POPULATION ANALYSIS *
                    ********************************

-----------------------
MULLIKEN ATOMIC CHARGES
-----------------------
   0 O :   -0.714229
   1 H :    0.346477
   2 H :    0.368324
   3 O :   -0.720958
   4 H :    0.359238
   5 H :    0.373993
   6 O :   -0.717968
   7 H :    0.388660
   8 H :    0.325101
   9 O :   -0.745067
  10 H :    0.330788
  11 H :    0.388190
  12 O :   -0.713166
  13 H :    0.379860
  14 H :    0.363522
  15 O :   -0.785176
  16 H :    0.399174
  17 H :    0.373354
  18 O :   -0.698080
  19 H :    0.341098
  20 H :    0.356867
Sum of atomic charges:    0.0000000

--------------------------------
MULLIKEN REDUCED ORBITAL CHARGES
--------------------------------
  0 O s       :     3.808821  s :     3.808821
      pz      :     1.712658  p :     4.849803
      px      :     1.353585
      py      :     1.783559
      dz2     :     0.009722  d :     0.051520
      dxz     :     0.010085
      dyz     :     0.011040
      dx2y2   :     0.007856
      dxy     :     0.012817
      f0      :     0.000458  f :     0.004085
      f+1     :     0.000703
      f-1     :     0.000556
      f+2     :     0.000435
      f-2     :     0.000722
      f+3     :     0.000465
      f-3     :     0.000746
  1 H s       :     0.606081  s :     0.606081
      pz      :     0.017736  p :     0.047442
      px      :     0.013928
      py      :     0.015778
  2 H s       :     0.588263  s :     0.588263
      pz      :     0.011913  p :     0.043413
      px      :     0.017826
      py      :     0.013673
  3 O s       :     3.806487  s :     3.806487
      pz      :     1.706702  p :     4.858980
      px      :     1.359612
      py      :     1.792666
      dz2     :     0.009498  d :     0.051425
      dxz     :     0.009685
      dyz     :     0.011137
      dx2y2   :     0.007845
      dxy     :     0.013261
      f0      :     0.000453  f :     0.004065
      f+1     :     0.000690
      f-1     :     0.000551
      f+2     :     0.000437
      f-2     :     0.000713
      f+3     :     0.000468
      f-3     :     0.000753
  4 H s       :     0.593746  s :     0.593746
      pz      :     0.017527  p :     0.047016
      px      :     0.013850
      py      :     0.015639
  5 H s       :     0.583060  s :     0.583060
      pz      :     0.011377  p :     0.042947
      px      :     0.017785
      py      :     0.013785
  6 O s       :     3.806812  s :     3.806812
      pz      :     1.550112  p :     4.854958
      px      :     1.505124
      py      :     1.799722
      dz2     :     0.016767  d :     0.052153
      dxz     :     0.006604
      dyz     :     0.008432
      dx2y2   :     0.007613
      dxy     :     0.012737
      f0      :     0.000626  f :     0.004044
      f+1     :     0.000741
      f-1     :     0.000539
      f+2     :     0.000414
      f-2     :     0.000420
      f+3     :     0.000435
      f-3     :     0.000869
  7 H s       :     0.560999  s :     0.560999
      pz      :     0.024664  p :     0.050341
      px      :     0.012082
      py      :     0.013594
  8 H s       :     0.628127  s :     0.628127
      pz      :     0.011944  p :     0.046772
      px      :     0.018118
      py      :     0.016710
  9 O s       :     3.807370  s :     3.807370
      pz      :     1.514358  p :     4.882030
      px      :     1.863625
      py      :     1.504046
      dz2     :     0.016530  d :     0.051663
      dxz     :     0.008003
      dyz     :     0.008309
      dx2y2   :     0.008503
      dxy     :     0.010318
      f0      :     0.000564  f :     0.004004
      f+1     :     0.000493
      f-1     :     0.000817
      f+2     :     0.000439
      f-2     :     0.000406
      f+3     :     0.000802
      f-3     :     0.000482
 10 H s       :     0.622540  s :     0.622540
      pz      :     0.018420  p :     0.046672
      px      :     0.015317
      py      :     0.012934
 11 H s       :     0.556296  s :     0.556296
      pz      :     0.010221  p :     0.055514
      px      :     0.016151
      py      :     0.029142
 12 O s       :     3.801884  s :     3.801884
      pz      :     1.544460  p :     4.854325
      px      :     1.832954
      py      :     1.476911
      dz2     :     0.017220  d :     0.052961
      dxz     :     0.007891
      dyz     :     0.008311
      dx2y2   :     0.009144
      dxy     :     0.010394
      f0      :     0.000549  f :     0.003996
      f+1     :     0.000491
      f-1     :     0.000833
      f+2     :     0.000432
      f-2     :     0.000406
      f+3     :     0.000808
      f-3     :     0.000476
 13 H s       :     0.576549  s :     0.576549
      pz      :     0.010340  p :     0.043591
      px      :     0.014375
      py      :     0.018875
 14 H s       :     0.591039  s :     0.591039
      pz      :     0.019192  p :     0.045439
      px      :     0.014194
      py      :     0.012054
 15 O s       :     3.793819  s :     3.793819
      pz      :     1.597407  p :     4.936947
      px      :     1.502315
      py      :     1.837225
      dz2     :     0.015606  d :     0.050472
      dxz     :     0.007984
      dyz     :     0.007741
      dx2y2   :     0.008855
      dxy     :     0.010285
      f0      :     0.000560  f :     0.003937
      f+1     :     0.000804
      f-1     :     0.000486
      f+2     :     0.000437
      f-2     :     0.000406
      f+3     :     0.000470
      f-3     :     0.000775
 16 H s       :     0.550967  s :     0.550967
      pz      :     0.024865  p :     0.049859
      px      :     0.011746
      py      :     0.013248
 17 H s       :     0.572183  s :     0.572183
      pz      :     0.009920  p :     0.054463
      px      :     0.029023
      py      :     0.015520
 18 O s       :     3.810355  s :     3.810355
      pz      :     1.491305  p :     4.831027
      px      :     1.534001
      py      :     1.805720
      dz2     :     0.017263  d :     0.052623
      dxz     :     0.006602
      dyz     :     0.008439
      dx2y2   :     0.007556
      dxy     :     0.012762
      f0      :     0.000642  f :     0.004075
      f+1     :     0.000747
      f-1     :     0.000543
      f+2     :     0.000413
      f-2     :     0.000420
      f+3     :     0.000436
      f-3     :     0.000874
 19 H s       :     0.612271  s :     0.612271
      pz      :     0.018979  p :     0.046631
      px      :     0.013003
      py      :     0.014649
 20 H s       :     0.597347  s :     0.597347
      pz      :     0.011169  p :     0.045786
      px      :     0.018490
      py      :     0.016127


                     *******************************
                     * LOEWDIN POPULATION ANALYSIS *
                     *******************************

----------------------
LOEWDIN ATOMIC CHARGES
----------------------
   0 O :   -0.341878
   1 H :    0.157050
   2 H :    0.185307
   3 O :   -0.312765
   4 H :    0.162221
   5 H :    0.188092
   6 O :   -0.339067
   7 H :    0.155375
   8 H :    0.153240
   9 O :   -0.362018
  10 H :    0.153443
  11 H :    0.148878
  12 O :   -0.292643
  13 H :    0.181868
  14 H :    0.170321
  15 O :   -0.311351
  16 H :    0.157611
  17 H :    0.146348
  18 O :   -0.328417
  19 H :    0.160161
  20 H :    0.168226

-------------------------------
LOEWDIN REDUCED ORBITAL CHARGES
-------------------------------
  0 O s       :     3.470387  s :     3.470387
      pz      :     1.696724  p :     4.807248
      px      :     1.347873
      py      :     1.762651
      dz2     :     0.010331  d :     0.059401
      dxz     :     0.012738
      dyz     :     0.011414
      dx2y2   :     0.009323
      dxy     :     0.015594
      f0      :     0.000454  f :     0.004843
      f+1     :     0.000862
      f-1     :     0.000658
      f+2     :     0.000408
      f-2     :     0.001031
      f+3     :     0.000473
      f-3     :     0.000956
  1 H s       :     0.677027  s :     0.677027
      pz      :     0.067315  p :     0.165923
      px      :     0.044862
      py      :     0.053746
  2 H s       :     0.663577  s :     0.663577
      pz      :     0.034019  p :     0.151116
      px      :     0.072602
      py      :     0.044495
  3 O s       :     3.463643  s :     3.463643
      pz      :     1.669985  p :     4.784555
      px      :     1.350511
      py      :     1.764058
      dz2     :     0.010857  d :     0.059735
      dxz     :     0.012355
      dyz     :     0.011432
      dx2y2   :     0.009244
      dxy     :     0.015846
      f0      :     0.000469  f :     0.004833
      f+1     :     0.000852
      f-1     :     0.000656
      f+2     :     0.000409
      f-2     :     0.001015
      f+3     :     0.000473
      f-3     :     0.000959
  4 H s       :     0.671378  s :     0.671378
      pz      :     0.067529  p :     0.166402
      px      :     0.045071
      py      :     0.053801
  5 H s       :     0.660255  s :     0.660255
      pz      :     0.034060  p :     0.151653
      px      :     0.073056
      py      :     0.044536
  6 O s       :     3.463460  s :     3.463460
      pz      :     1.529617  p :     4.810861
      px      :     1.508399
      py      :     1.772845
      dz2     :     0.021090  d :     0.059861
      dxz     :     0.007158
      dyz     :     0.007697
      dx2y2   :     0.007925
      dxy     :     0.015991
      f0      :     0.000851  f :     0.004885
      f+1     :     0.000984
      f-1     :     0.000713
      f+2     :     0.000388
      f-2     :     0.000417
      f+3     :     0.000374
      f-3     :     0.001158
  7 H s       :     0.670386  s :     0.670386
      pz      :     0.095314  p :     0.174240
      px      :     0.036427
      py      :     0.042499
  8 H s       :     0.686010  s :     0.686010
      pz      :     0.032373  p :     0.160750
      px      :     0.072401
      py      :     0.055975
  9 O s       :     3.467030  s :     3.467030
      pz      :     1.526703  p :     4.831574
      px      :     1.826655
      py      :     1.478215
      dz2     :     0.020682  d :     0.058611
      dxz     :     0.007111
      dyz     :     0.009793
      dx2y2   :     0.009473
      dxy     :     0.011552
      f0      :     0.000808  f :     0.004803
      f+1     :     0.000577
      f-1     :     0.001188
      f+2     :     0.000418
      f-2     :     0.000417
      f+3     :     0.000953
      f-3     :     0.000443
 10 H s       :     0.684418  s :     0.684418
      pz      :     0.079992  p :     0.162139
      px      :     0.044456
      py      :     0.037691
 11 H s       :     0.662698  s :     0.662698
      pz      :     0.029744  p :     0.188425
      px      :     0.053491
      py      :     0.105189
 12 O s       :     3.462997  s :     3.462997
      pz      :     1.538540  p :     4.764098
      px      :     1.772446
      py      :     1.453112
      dz2     :     0.021275  d :     0.060698
      dxz     :     0.006928
      dyz     :     0.009529
      dx2y2   :     0.010970
      dxy     :     0.011997
      f0      :     0.000777  f :     0.004849
      f+1     :     0.000599
      f-1     :     0.001181
      f+2     :     0.000413
      f-2     :     0.000416
      f+3     :     0.001012
      f-3     :     0.000452
 13 H s       :     0.660974  s :     0.660974
      pz      :     0.029701  p :     0.157158
      px      :     0.050034
      py      :     0.077423
 14 H s       :     0.667799  s :     0.667799
      pz      :     0.081882  p :     0.161880
      px      :     0.043656
      py      :     0.036343
 15 O s       :     3.446375  s :     3.446375
      pz      :     1.549630  p :     4.802355
      px      :     1.476214
      py      :     1.776511
      dz2     :     0.019569  d :     0.057896
      dxz     :     0.009119
      dyz     :     0.006918
      dx2y2   :     0.010556
      dxy     :     0.011733
      f0      :     0.000760  f :     0.004725
      f+1     :     0.001133
      f-1     :     0.000586
      f+2     :     0.000411
      f-2     :     0.000420
      f+3     :     0.000451
      f-3     :     0.000964
 16 H s       :     0.665740  s :     0.665740
      pz      :     0.095257  p :     0.176649
      px      :     0.037983
      py      :     0.043410
 17 H s       :     0.663971  s :     0.663971
      pz      :     0.031458  p :     0.189681
      px      :     0.104668
      py      :     0.053555
 18 O s       :     3.468406  s :     3.468406
      pz      :     1.498082  p :     4.794290
      px      :     1.520013
      py      :     1.776195
      dz2     :     0.022475  d :     0.060778
      dxz     :     0.007415
      dyz     :     0.007818
      dx2y2   :     0.007706
      dxy     :     0.015363
      f0      :     0.000909  f :     0.004943
      f+1     :     0.001012
      f-1     :     0.000719
      f+2     :     0.000388
      f-2     :     0.000418
      f+3     :     0.000375
      f-3     :     0.001123
 19 H s       :     0.678731  s :     0.678731
      pz      :     0.081817  p :     0.161109
      px      :     0.036212
      py      :     0.043079
 20 H s       :     0.671762  s :     0.671762
      pz      :     0.030294  p :     0.160012
      px      :     0.073906
      py      :     0.055812


                      *****************************
                      * MAYER POPULATION ANALYSIS *
                      *****************************

  NA   - Mulliken gross atomic population
  ZA   - Total nuclear charge
  QA   - Mulliken gross atomic charge
  VA   - Mayer's total valence
  BVA  - Mayer's bonded valence
  FA   - Mayer's free valence

  ATOM       NA         ZA         QA         VA         BVA        FA
  0 O      8.7142     8.0000    -0.7142     2.0674     1.6792     0.3882
  1 H      0.6535     1.0000     0.3465     0.8993     0.8532     0.0461
  2 H      0.6317     1.0000     0.3683     0.8828     0.8355     0.0473
  3 O      8.7210     8.0000    -0.7210     2.0721     1.6820     0.3901
  4 H      0.6408     1.0000     0.3592     0.8903     0.8450     0.0454
  5 H      0.6260     1.0000     0.3740     0.8785     0.8312     0.0472
  6 O      8.7180     8.0000    -0.7180     2.0646     1.6759     0.3888
  7 H      0.6113     1.0000     0.3887     0.8796     0.8355     0.0441
  8 H      0.6749     1.0000     0.3251     0.9171     0.8673     0.0498
  9 O      8.7451     8.0000    -0.7451     2.0292     1.6367     0.3925
 10 H      0.6692     1.0000     0.3308     0.9121     0.8628     0.0493
 11 H      0.6118     1.0000     0.3882     0.8901     0.8441     0.0460
 12 O      8.7132     8.0000    -0.7132     2.0828     1.6933     0.3895
 13 H      0.6201     1.0000     0.3799     0.8798     0.8337     0.0461
 14 H      0.6365     1.0000     0.3635     0.8875     0.8412     0.0463
 15 O      8.7852     8.0000    -0.7852     1.9940     1.5979     0.3961
 16 H      0.6008     1.0000     0.3992     0.8749     0.8316     0.0433
 17 H      0.6266     1.0000     0.3734     0.9072     0.8592     0.0480
 18 O      8.6981     8.0000    -0.6981     2.0835     1.6969     0.3866
 19 H      0.6589     1.0000     0.3411     0.9050     0.8570     0.0480
 20 H      0.6431     1.0000     0.3569     0.8965     0.8497     0.0469

  Mayer bond orders larger than 0.100000
B(  0-O ,  1-H ) :   0.8477 B(  0-O ,  2-H ) :   0.8263 B(  3-O ,  4-H ) :   0.8379 
B(  3-O ,  5-H ) :   0.8209 B(  6-O ,  7-H ) :   0.8079 B(  6-O ,  8-H ) :   0.8575 
B(  9-O , 10-H ) :   0.8554 B(  9-O , 11-H ) :   0.7853 B( 12-O , 13-H ) :   0.8168 
B( 12-O , 14-H ) :   0.8331 B( 15-O , 16-H ) :   0.7952 B( 15-O , 17-H ) :   0.7789 
B( 18-O , 19-H ) :   0.8483 B( 18-O , 20-H ) :   0.8371 


                *******************************************
                * RELAXED MP2 DENSITY POPULATION ANALYSIS *
                *******************************************

------------------------------------------------------------------------------
                           ORCA POPULATION ANALYSIS
------------------------------------------------------------------------------
Input electron density              ... 12h2o.su.etal.mol0,1,3,4,5,7,8-orca.engrad-mp2.def2tzvp.frozencore.pmp2re
BaseName (.gbw .S,...)              ... 12h2o.su.etal.mol0,1,3,4,5,7,8-orca.engrad-mp2.def2tzvp.frozencore

                    ********************************
                    * MULLIKEN POPULATION ANALYSIS *
                    ********************************

-----------------------
MULLIKEN ATOMIC CHARGES
-----------------------
   0 O :   -0.699811
   1 H :    0.340254
   2 H :    0.360529
   3 O :   -0.702066
   4 H :    0.352739
   5 H :    0.366257
   6 O :   -0.698935
   7 H :    0.374378
   8 H :    0.318083
   9 O :   -0.725270
  10 H :    0.324409
  11 H :    0.365503
  12 O :   -0.688361
  13 H :    0.370437
  14 H :    0.357271
  15 O :   -0.748633
  16 H :    0.382958
  17 H :    0.350406
  18 O :   -0.682540
  19 H :    0.334166
  20 H :    0.348227
Sum of atomic charges:    0.0000000

--------------------------------
MULLIKEN REDUCED ORBITAL CHARGES
--------------------------------
  0 O s       :     3.813389  s :     3.813389
      pz      :     1.706510  p :     4.833181
      px      :     1.349819
      py      :     1.776852
      dz2     :     0.009432  d :     0.049229
      dxz     :     0.009492
      dyz     :     0.010747
      dx2y2   :     0.007591
      dxy     :     0.011966
      f0      :     0.000456  f :     0.004013
      f+1     :     0.000684
      f-1     :     0.000547
      f+2     :     0.000436
      f-2     :     0.000701
      f+3     :     0.000463
      f-3     :     0.000726
  1 H s       :     0.611605  s :     0.611605
      pz      :     0.017866  p :     0.048141
      px      :     0.013884
      py      :     0.016390
  2 H s       :     0.595438  s :     0.595438
      pz      :     0.012791  p :     0.044033
      px      :     0.016834
      py      :     0.014408
  3 O s       :     3.810637  s :     3.810637
      pz      :     1.696451  p :     4.838251
      px      :     1.355364
      py      :     1.786436
      dz2     :     0.009251  d :     0.049186
      dxz     :     0.009092
      dyz     :     0.010857
      dx2y2   :     0.007601
      dxy     :     0.012384
      f0      :     0.000452  f :     0.003993
      f+1     :     0.000670
      f-1     :     0.000543
      f+2     :     0.000437
      f-2     :     0.000692
      f+3     :     0.000466
      f-3     :     0.000733
  4 H s       :     0.599560  s :     0.599560
      pz      :     0.017665  p :     0.047700
      px      :     0.013789
      py      :     0.016246
  5 H s       :     0.590210  s :     0.590210
      pz      :     0.012211  p :     0.043534
      px      :     0.016782
      py      :     0.014541
  6 O s       :     3.808327  s :     3.808327
      pz      :     1.546270  p :     4.836667
      px      :     1.497273
      py      :     1.793123
      dz2     :     0.015538  d :     0.049971
      dxz     :     0.006566
      dyz     :     0.008405
      dx2y2   :     0.007513
      dxy     :     0.011948
      f0      :     0.000609  f :     0.003971
      f+1     :     0.000719
      f-1     :     0.000528
      f+2     :     0.000415
      f-2     :     0.000419
      f+3     :     0.000436
      f-3     :     0.000845
  7 H s       :     0.574811  s :     0.574811
      pz      :     0.023809  p :     0.050812
      px      :     0.012564
      py      :     0.014439
  8 H s       :     0.634255  s :     0.634255
      pz      :     0.012733  p :     0.047662
      px      :     0.017533
      py      :     0.017397
  9 O s       :     3.807988  s :     3.807988
      pz      :     1.507430  p :     4.863722
      px      :     1.855887
      py      :     1.500404
      dz2     :     0.015308  d :     0.049624
      dxz     :     0.008036
      dyz     :     0.008053
      dx2y2   :     0.008300
      dxy     :     0.009927
      f0      :     0.000551  f :     0.003936
      f+1     :     0.000487
      f-1     :     0.000790
      f+2     :     0.000438
      f-2     :     0.000405
      f+3     :     0.000784
      f-3     :     0.000481
 10 H s       :     0.628116  s :     0.628116
      pz      :     0.017735  p :     0.047475
      px      :     0.016330
      py      :     0.013410
 11 H s       :     0.578725  s :     0.578725
      pz      :     0.010905  p :     0.055772
      px      :     0.016690
      py      :     0.028176
 12 O s       :     3.804462  s :     3.804462
      pz      :     1.538588  p :     4.829185
      px      :     1.817065
      py      :     1.473532
      dz2     :     0.015980  d :     0.050794
      dxz     :     0.007954
      dyz     :     0.008053
      dx2y2   :     0.008853
      dxy     :     0.009954
      f0      :     0.000534  f :     0.003920
      f+1     :     0.000486
      f-1     :     0.000804
      f+2     :     0.000431
      f-2     :     0.000404
      f+3     :     0.000786
      f-3     :     0.000474
 13 H s       :     0.585426  s :     0.585426
      pz      :     0.011036  p :     0.044137
      px      :     0.015028
      py      :     0.018073
 14 H s       :     0.596648  s :     0.596648
      pz      :     0.018500  p :     0.046081
      px      :     0.015138
      py      :     0.012443
 15 O s       :     3.792504  s :     3.792504
      pz      :     1.590194  p :     4.903477
      px      :     1.494560
      py      :     1.818723
      dz2     :     0.014672  d :     0.048784
      dxz     :     0.007746
      dyz     :     0.007780
      dx2y2   :     0.008672
      dxy     :     0.009914
      f0      :     0.000549  f :     0.003869
      f+1     :     0.000776
      f-1     :     0.000481
      f+2     :     0.000436
      f-2     :     0.000404
      f+3     :     0.000468
      f-3     :     0.000756
 16 H s       :     0.566643  s :     0.566643
      pz      :     0.024187  p :     0.050399
      px      :     0.012100
      py      :     0.014113
 17 H s       :     0.594627  s :     0.594627
      pz      :     0.010636  p :     0.054967
      px      :     0.028211
      py      :     0.016120
 18 O s       :     3.814785  s :     3.814785
      pz      :     1.485103  p :     4.813479
      px      :     1.529163
      py      :     1.799213
      dz2     :     0.015853  d :     0.050279
      dxz     :     0.006534
      dyz     :     0.008407
      dx2y2   :     0.007464
      dxy     :     0.012021
      f0      :     0.000623  f :     0.003997
      f+1     :     0.000724
      f-1     :     0.000532
      f+2     :     0.000413
      f-2     :     0.000418
      f+3     :     0.000436
      f-3     :     0.000850
 19 H s       :     0.618415  s :     0.618415
      pz      :     0.018194  p :     0.047419
      px      :     0.013608
      py      :     0.015617
 20 H s       :     0.605288  s :     0.605288
      pz      :     0.011848  p :     0.046486
      px      :     0.017922
      py      :     0.016716


                     *******************************
                     * LOEWDIN POPULATION ANALYSIS *
                     *******************************

----------------------
LOEWDIN ATOMIC CHARGES
----------------------
   0 O :   -0.344558
   1 H :    0.158969
   2 H :    0.186231
   3 O :   -0.310918
   4 H :    0.164110
   5 H :    0.188974
   6 O :   -0.339589
   7 H :    0.151507
   8 H :    0.154549
   9 O :   -0.363303
  10 H :    0.154944
  11 H :    0.141651
  12 O :   -0.287035
  13 H :    0.181891
  14 H :    0.171775
  15 O :   -0.301963
  16 H :    0.153392
  17 H :    0.139537
  18 O :   -0.330179
  19 H :    0.161294
  20 H :    0.168720

-------------------------------
LOEWDIN REDUCED ORBITAL CHARGES
-------------------------------
  0 O s       :     3.472332  s :     3.472332
      pz      :     1.695881  p :     4.809319
      px      :     1.352714
      py      :     1.760724
      dz2     :     0.010149  d :     0.058044
      dxz     :     0.012339
      dyz     :     0.011349
      dx2y2   :     0.009085
      dxy     :     0.015122
      f0      :     0.000456  f :     0.004863
      f+1     :     0.000870
      f-1     :     0.000658
      f+2     :     0.000408
      f-2     :     0.001031
      f+3     :     0.000476
      f-3     :     0.000963
  1 H s       :     0.675139  s :     0.675139
      pz      :     0.067438  p :     0.165892
      px      :     0.044114
      py      :     0.054340
  2 H s       :     0.662696  s :     0.662696
      pz      :     0.034763  p :     0.151072
      px      :     0.071085
      py      :     0.045225
  3 O s       :     3.465472  s :     3.465472
      pz      :     1.664662  p :     4.782071
      px      :     1.355296
      py      :     1.762113
      dz2     :     0.010767  d :     0.058523
      dxz     :     0.011977
      dyz     :     0.011399
      dx2y2   :     0.009019
      dxy     :     0.015360
      f0      :     0.000472  f :     0.004852
      f+1     :     0.000858
      f-1     :     0.000656
      f+2     :     0.000410
      f-2     :     0.001015
      f+3     :     0.000476
      f-3     :     0.000965
  4 H s       :     0.669657  s :     0.669657
      pz      :     0.067533  p :     0.166233
      px      :     0.044283
      py      :     0.054417
  5 H s       :     0.659445  s :     0.659445
      pz      :     0.034741  p :     0.151581
      px      :     0.071556
      py      :     0.045284
  6 O s       :     3.464948  s :     3.464948
      pz      :     1.530767  p :     4.811079
      px      :     1.510062
      py      :     1.770250
      dz2     :     0.020479  d :     0.058660
      dxz     :     0.007041
      dyz     :     0.007733
      dx2y2   :     0.007837
      dxy     :     0.015570
      f0      :     0.000855  f :     0.004902
      f+1     :     0.000991
      f-1     :     0.000712
      f+2     :     0.000390
      f-2     :     0.000416
      f+3     :     0.000375
      f-3     :     0.001164
  7 H s       :     0.674016  s :     0.674016
      pz      :     0.094462  p :     0.174476
      px      :     0.036716
      py      :     0.043299
  8 H s       :     0.684189  s :     0.684189
      pz      :     0.032861  p :     0.161263
      px      :     0.071816
      py      :     0.056586
  9 O s       :     3.468605  s :     3.468605
      pz      :     1.528224  p :     4.832222
      px      :     1.823037
      py      :     1.480962
      dz2     :     0.020049  d :     0.057643
      dxz     :     0.007168
      dyz     :     0.009545
      dx2y2   :     0.009420
      dxy     :     0.011462
      f0      :     0.000805  f :     0.004833
      f+1     :     0.000577
      f-1     :     0.001202
      f+2     :     0.000420
      f-2     :     0.000416
      f+3     :     0.000968
      f-3     :     0.000446
 10 H s       :     0.682513  s :     0.682513
      pz      :     0.079427  p :     0.162544
      px      :     0.045327
      py      :     0.037789
 11 H s       :     0.669406  s :     0.669406
      pz      :     0.030156  p :     0.188943
      px      :     0.054156
      py      :     0.104632
 12 O s       :     3.464489  s :     3.464489
      pz      :     1.539889  p :     4.758125
      px      :     1.761784
      py      :     1.456452
      dz2     :     0.020610  d :     0.059558
      dxz     :     0.007004
      dyz     :     0.009284
      dx2y2   :     0.010848
      dxy     :     0.011812
      f0      :     0.000773  f :     0.004863
      f+1     :     0.000600
      f-1     :     0.001188
      f+2     :     0.000414
      f-2     :     0.000415
      f+3     :     0.001019
      f-3     :     0.000454
 13 H s       :     0.661151  s :     0.661151
      pz      :     0.030135  p :     0.156958
      px      :     0.050559
      py      :     0.076264
 14 H s       :     0.666397  s :     0.666397
      pz      :     0.081186  p :     0.161827
      px      :     0.044388
      py      :     0.036253
 15 O s       :     3.447207  s :     3.447207
      pz      :     1.548071  p :     4.792375
      px      :     1.478316
      py      :     1.765988
      dz2     :     0.019386  d :     0.057618
      dxz     :     0.008967
      dyz     :     0.006995
      dx2y2   :     0.010587
      dxy     :     0.011683
      f0      :     0.000765  f :     0.004763
      f+1     :     0.001145
      f-1     :     0.000588
      f+2     :     0.000413
      f-2     :     0.000419
      f+3     :     0.000454
      f-3     :     0.000978
 16 H s       :     0.669685  s :     0.669685
      pz      :     0.094674  p :     0.176923
      px      :     0.038158
      py      :     0.044092
 17 H s       :     0.669914  s :     0.669914
      pz      :     0.031938  p :     0.190548
      px      :     0.104504
      py      :     0.054106
 18 O s       :     3.470506  s :     3.470506
      pz      :     1.499840  p :     4.795334
      px      :     1.522003
      py      :     1.773491
      dz2     :     0.021651  d :     0.059381
      dxz     :     0.007263
      dyz     :     0.007846
      dx2y2   :     0.007626
      dxy     :     0.014996
      f0      :     0.000909  f :     0.004958
      f+1     :     0.001020
      f-1     :     0.000716
      f+2     :     0.000390
      f-2     :     0.000418
      f+3     :     0.000375
      f-3     :     0.001131
 19 H s       :     0.677326  s :     0.677326
      pz      :     0.081056  p :     0.161380
      px      :     0.036353
      py      :     0.043971
 20 H s       :     0.671294  s :     0.671294
      pz      :     0.030572  p :     0.159986
      px      :     0.073124
      py      :     0.056291


                      *****************************
                      * MAYER POPULATION ANALYSIS *
                      *****************************

  NA   - Mulliken gross atomic population
  ZA   - Total nuclear charge
  QA   - Mulliken gross atomic charge
  VA   - Mayer's total valence
  BVA  - Mayer's bonded valence
  FA   - Mayer's free valence

  ATOM       NA         ZA         QA         VA         BVA        FA
  0 O      8.6998     8.0000    -0.6998     2.0743     1.6910     0.3833
  1 H      0.6597     1.0000     0.3403     0.9038     0.8576     0.0462
  2 H      0.6395     1.0000     0.3605     0.8900     0.8427     0.0473
  3 O      8.7021     8.0000    -0.7021     2.0947     1.7103     0.3844
  4 H      0.6473     1.0000     0.3527     0.8952     0.8498     0.0454
  5 H      0.6337     1.0000     0.3663     0.8860     0.8388     0.0471
  6 O      8.6989     8.0000    -0.6989     2.0803     1.6969     0.3834
  7 H      0.6256     1.0000     0.3744     0.8994     0.8557     0.0437
  8 H      0.6819     1.0000     0.3181     0.9239     0.8743     0.0496
  9 O      8.7253     8.0000    -0.7253     2.0390     1.6519     0.3871
 10 H      0.6756     1.0000     0.3244     0.9170     0.8677     0.0493
 11 H      0.6345     1.0000     0.3655     0.9214     0.8764     0.0450
 12 O      8.6884     8.0000    -0.6884     2.1149     1.7314     0.3835
 13 H      0.6296     1.0000     0.3704     0.8913     0.8456     0.0457
 14 H      0.6427     1.0000     0.3573     0.8931     0.8468     0.0463
 15 O      8.7486     8.0000    -0.7486     2.0441     1.6546     0.3895
 16 H      0.6170     1.0000     0.3830     0.8957     0.8527     0.0429
 17 H      0.6496     1.0000     0.3504     0.9374     0.8905     0.0469
 18 O      8.6825     8.0000    -0.6825     2.0933     1.7119     0.3813
 19 H      0.6658     1.0000     0.3342     0.9113     0.8634     0.0479
 20 H      0.6518     1.0000     0.3482     0.9060     0.8594     0.0466

  Mayer bond orders larger than 0.100000
B(  0-O ,  1-H ) :   0.8518 B(  0-O ,  2-H ) :   0.8305 B(  3-O ,  4-H ) :   0.8415 
B(  3-O ,  5-H ) :   0.8246 B(  6-O ,  7-H ) :   0.8133 B(  6-O ,  8-H ) :   0.8604 
B(  9-O , 10-H ) :   0.8584 B(  9-O , 11-H ) :   0.7865 B( 12-O , 13-H ) :   0.8202 
B( 12-O , 14-H ) :   0.8364 B( 15-O , 16-H ) :   0.7997 B( 15-O , 17-H ) :   0.7760 
B( 18-O , 19-H ) :   0.8522 B( 18-O , 20-H ) :   0.8415 


----------------------------------
MP2 DERIVATIVE INTEGRAL GENERATION
----------------------------------


Input Wavefunction Amplitudes       ... 12h2o.su.etal.mol0,1,3,4,5,7,8-orca.engrad-mp2.def2tzvp.frozencore.mp2tsaa.tmp
Input Correlated Electron Density   ... 12h2o.su.etal.mol0,1,3,4,5,7,8-orca.engrad-mp2.def2tzvp.frozencore.pmp2re
Input Energy Weighted Density       ... 12h2o.su.etal.mol0,1,3,4,5,7,8-orca.engrad-mp2.def2tzvp.frozencore.wmp2.tmp
Input SCF Electron Density          ... 12h2o.su.etal.mol0,1,3,4,5,7,8-orca.engrad-mp2.def2tzvp.frozencore.scfp

One-Electron Terms    ...
                        ... One-Electron Terms done
Prescreening matrices              ... done

Batch handling in the gradient evaluation:
Memory available                      ... 8000.0 MB
Memory per occupied orbital in Q2     ...   19.4 MB
Memory per occupied orbital in Q3     ...    0.1 MB
Total memory requirement per |i>      ...   19.5 MB
Max. Number of orbitals possible      ...    410
Number of orbitals treated per batch  ...     28
Number of batches to be done          ...      1
Batch   0: i=    7 ...    34

---------------------------------------
MP2 TOTAL ENERGY:     -534.235357886 Eh
---------------------------------------

The final MP2 gradient
  0:   0.02693235  -0.00552877   0.00012536
  1:   0.00237586  -0.00180054  -0.00086163
  2:  -0.02775707   0.00817368   0.00314945
  3:  -0.02525062   0.00942994   0.00121729
  4:  -0.00131204   0.00175269  -0.00232295
  5:   0.02587147  -0.00995794   0.00018653
  6:  -0.01000403   0.00589513  -0.00046114
  7:  -0.00064949  -0.00188157   0.00113037
  8:   0.01014989  -0.00638870   0.00043538
  9:  -0.00035200   0.00114478   0.01058070
 10:   0.00028821   0.00307841  -0.01000071
 11:  -0.00144007  -0.00634535   0.00050793
 12:  -0.00581681  -0.01350620   0.01104066
 13:   0.00491657   0.01404909  -0.00387929
 14:  -0.00195415  -0.00120410  -0.00686442
 15:  -0.00236734   0.00532758  -0.00082833
 16:  -0.00040154  -0.00148744   0.00042597
 17:   0.00548024  -0.00175403  -0.00207096
 18:   0.00648781  -0.00366235  -0.00936289
 19:   0.00239236  -0.00138343   0.00853727
 20:  -0.00758961   0.00604914  -0.00068460

-----------------------------------
NORM OF THE MP2 GRADIENT:  0.068480
-----------------------------------

-------------------------   --------------------
FINAL SINGLE POINT ENERGY      -534.235357886083
-------------------------   --------------------


                            ***************************************
                            *     ORCA property calculations      *
                            ***************************************

                                    ---------------------
                                    Active property flags
                                    ---------------------
   (+) Dipole Moment


------------------------------------------------------------------------------
                       ORCA ELECTRIC PROPERTIES CALCULATION
------------------------------------------------------------------------------

Dipole Moment Calculation                       ... on
Quadrupole Moment Calculation                   ... off
Polarizability Calculation                      ... off
GBWName                                         ... 12h2o.su.etal.mol0,1,3,4,5,7,8-orca.engrad-mp2.def2tzvp.frozencore.gbw
Electron density file                           ... 12h2o.su.etal.mol0,1,3,4,5,7,8-orca.engrad-mp2.def2tzvp.frozencore.scfp
The origin for moment calculation is the CENTER OF MASS  = (-0.460903, -0.247294 -0.021026)

-------------
DIPOLE MOMENT
-------------
                                X             Y             Z
Electronic contribution:      0.02098      -0.20065       0.13842
Nuclear contribution   :      0.45439      -0.45394       1.86312
                        -----------------------------------------
Total Dipole Moment    :      0.47537      -0.65459       2.00154
                        -----------------------------------------
Magnitude (a.u.)       :      2.15885
Magnitude (Debye)      :      5.48737



--------------------
Rotational spectrum 
--------------------
 
Rotational constants in cm-1:     0.035322     0.023362     0.018327 
Rotational constants in MHz :  1058.937339   700.366439   549.434433 

 Dipole components along the rotational axes: 
x,y,z [a.u.] :     2.001096     0.149976    -0.796092 
x,y,z [Debye]:     5.086382     0.381208    -2.023506 

 

                         *** MP2 UNRELAXED DENSITY ***

------------------------------------------------------------------------------
                       ORCA ELECTRIC PROPERTIES CALCULATION
------------------------------------------------------------------------------

Dipole Moment Calculation                       ... on
Quadrupole Moment Calculation                   ... off
Polarizability Calculation                      ... off
GBWName                                         ... 12h2o.su.etal.mol0,1,3,4,5,7,8-orca.engrad-mp2.def2tzvp.frozencore.gbw
Electron density file                           ... 12h2o.su.etal.mol0,1,3,4,5,7,8-orca.engrad-mp2.def2tzvp.frozencore.pmp2ur
The origin for moment calculation is the CENTER OF MASS  = (-0.460903, -0.247294 -0.021026)

-------------
DIPOLE MOMENT
-------------
                                X             Y             Z
Electronic contribution:      0.01750      -0.19847       0.12424
Nuclear contribution   :      0.45439      -0.45394       1.86312
                        -----------------------------------------
Total Dipole Moment    :      0.47189      -0.65242       1.98736
                        -----------------------------------------
Magnitude (a.u.)       :      2.14428
Magnitude (Debye)      :      5.45033



--------------------
Rotational spectrum 
--------------------
 
Rotational constants in cm-1:     0.035322     0.023362     0.018327 
Rotational constants in MHz :  1058.937339   700.366439   549.434433 

 Dipole components along the rotational axes: 
x,y,z [a.u.] :     1.986923     0.147740    -0.792619 
x,y,z [Debye]:     5.050358     0.375526    -2.014677 

 

                           *** MP2 RELAXED DENSITY ***

------------------------------------------------------------------------------
                       ORCA ELECTRIC PROPERTIES CALCULATION
------------------------------------------------------------------------------

Dipole Moment Calculation                       ... on
Quadrupole Moment Calculation                   ... off
Polarizability Calculation                      ... off
GBWName                                         ... 12h2o.su.etal.mol0,1,3,4,5,7,8-orca.engrad-mp2.def2tzvp.frozencore.gbw
Electron density file                           ... 12h2o.su.etal.mol0,1,3,4,5,7,8-orca.engrad-mp2.def2tzvp.frozencore.pmp2re
The origin for moment calculation is the CENTER OF MASS  = (-0.460903, -0.247294 -0.021026)

-------------
DIPOLE MOMENT
-------------
                                X             Y             Z
Electronic contribution:      0.02980      -0.20121       0.11566
Nuclear contribution   :      0.45439      -0.45394       1.86312
                        -----------------------------------------
Total Dipole Moment    :      0.48419      -0.65515       1.97878
                        -----------------------------------------
Magnitude (a.u.)       :      2.13992
Magnitude (Debye)      :      5.43924



--------------------
Rotational spectrum 
--------------------
 
Rotational constants in cm-1:     0.035322     0.023362     0.018327 
Rotational constants in MHz :  1058.937339   700.366439   549.434433 

 Dipole components along the rotational axes: 
x,y,z [a.u.] :     1.978314     0.157613    -0.800423 
x,y,z [Debye]:     5.028475     0.400621    -2.034512 

 

Timings for individual modules:

Sum of individual times         ...      102.759 sec (=   1.713 min)
GTO integral calculation        ...        0.975 sec (=   0.016 min)   0.9 %
SCF iterations                  ...       17.585 sec (=   0.293 min)  17.1 %
MP2 module                      ...       84.199 sec (=   1.403 min)  81.9 %
                             ****ORCA TERMINATED NORMALLY****
TOTAL RUN TIME: 0 days 0 hours 1 minutes 43 seconds 711 msec
